 Gaussian 16, Revision A.03,

 -----------------------------------------------------------
 # opt freq B3LYP/6-31G(d) empiricaldispersion=gd3bj scf=xqc
 -----------------------------------------------------------

 ------------------------------
 CID_10374795_JID_1526_neutraal
 ------------------------------
 Symbolic Z-matrix:
 Charge =  0 Multiplicity = 1

 SCF Done:  E(RB3LYP) =  -822.391751330     A.U. after   15 cycles
 SCF Done:  E(RB3LYP) =  -822.397398312     A.U. after   12 cycles
 SCF Done:  E(RB3LYP) =  -822.397988613     A.U. after   12 cycles
 SCF Done:  E(RB3LYP) =  -822.398215227     A.U. after   12 cycles
 SCF Done:  E(RB3LYP) =  -822.398437739     A.U. after   12 cycles
 SCF Done:  E(RB3LYP) =  -822.398544043     A.U. after   11 cycles
 SCF Done:  E(RB3LYP) =  -822.398679335     A.U. after   12 cycles
 SCF Done:  E(RB3LYP) =  -822.398757848     A.U. after   12 cycles
 SCF Done:  E(RB3LYP) =  -822.398755684     A.U. after    9 cycles
 SCF Done:  E(RB3LYP) =  -822.398771049     A.U. after   10 cycles
 SCF Done:  E(RB3LYP) =  -822.398809928     A.U. after   10 cycles
 SCF Done:  E(RB3LYP) =  -822.398819243     A.U. after   10 cycles
 SCF Done:  E(RB3LYP) =  -822.398821556     A.U. after   10 cycles
 SCF Done:  E(RB3LYP) =  -822.398821677     A.U. after    9 cycles
 SCF Done:  E(RB3LYP) =  -822.398821749     A.U. after    7 cycles
 Optimization completed.
    -- Stationary point found.
 Normal termination of Gaussian 16 at Tue Dec  8 20:20:18 2020.

 --------------------------------------------------------------------
 #N Geom=AllCheck Guess=TCheck SCRF=Check GenChk RB3LYP/6-31G(d) Freq
 --------------------------------------------------------------------

 Structure from the checkpoint file:  "JID_1526.chk"
 ------------------------------
 CID_10374795_JID_1526_neutraal
 ------------------------------
 Charge =  0 Multiplicity = 1

 SCF Done:  E(RB3LYP) =  -822.398821749     A.U. after    1 cycles

  Exact polarizability: 182.475   7.417 111.311  -0.735   0.230  59.159
 Approx polarizability: 261.483  19.373 197.989  -2.573  -0.964  91.002

                      1                      2                      3
                      A                      A                      A
 Frequencies --     40.5015                84.2564               102.9189
 Red. masses --      3.8995                 4.0309                 1.0788
 Frc consts  --      0.0038                 0.0169                 0.0067
 IR Inten    --      0.2907                 3.4501                 0.0480

                      4                      5                      6
                      A                      A                      A
 Frequencies --    112.7397               134.8627               194.4009
 Red. masses --      4.4170                 2.1008                 3.2272
 Frc consts  --      0.0331                 0.0225                 0.0719
 IR Inten    --      0.8268                 1.9366                 0.4508

                      7                      8                      9
                      A                      A                      A
 Frequencies --    289.3058               302.3193               333.1258
 Red. masses --      3.4946                 3.9983                 5.9076
 Frc consts  --      0.1723                 0.2153                 0.3863
 IR Inten    --      1.1653                 3.6188                 0.4722

                     10                     11                     12
                      A                      A                      A
 Frequencies --    417.8833               487.9520               570.6146
 Red. masses --      5.8949                 5.3424                 3.0899
 Frc consts  --      0.6065                 0.7495                 0.5928
 IR Inten    --      3.9917                 2.0544                 1.2815

                     13                     14                     15
                      A                      A                      A
 Frequencies --    599.0145               652.4835               682.6459
 Red. masses --      5.2374                 3.2428                 6.3622
 Frc consts  --      1.1072                 0.8134                 1.7468
 IR Inten    --      0.0818                 1.8795                 1.9078

                     16                     17                     18
                      A                      A                      A
 Frequencies --    690.6948               721.1207               752.1086
 Red. masses --      2.6675                 1.4832                 6.2925
 Frc consts  --      0.7498                 0.4544                 2.0972
 IR Inten    --      2.4226                30.9762                 2.3958

                     19                     20                     21
                      A                      A                      A
 Frequencies --    807.9109               857.2378               872.6038
 Red. masses --      1.2648                 4.0994                 1.8769
 Frc consts  --      0.4864                 1.7749                 0.8420
 IR Inten    --     29.7153                15.4113                 3.8692

                     22                     23                     24
                      A                      A                      A
 Frequencies --    884.4195               947.3135               976.4073
 Red. masses --      1.4074                 2.9265                 2.5763
 Frc consts  --      0.6486                 1.5473                 1.4471
 IR Inten    --      0.0447                15.5412                25.2530

                     25                     26                     27
                      A                      A                      A
 Frequencies --    996.9395              1015.8560              1055.6119
 Red. masses --      1.9118                 2.2981                 2.6874
 Frc consts  --      1.1195                 1.3973                 1.7644
 IR Inten    --      4.7822                 0.1149                42.0439

                     28                     29                     30
                      A                      A                      A
 Frequencies --   1071.2070              1084.6322              1091.5391
 Red. masses --      1.3983                 1.4941                 1.7382
 Frc consts  --      0.9454                 1.0356                 1.2202
 IR Inten    --      1.2447                 3.6182                50.8964

                     31                     32                     33
                      A                      A                      A
 Frequencies --   1193.2555              1217.5291              1237.5889
 Red. masses --      4.1072                 1.2533                 2.1164
 Frc consts  --      3.4456                 1.0946                 1.9099
 IR Inten    --      9.1700                 3.9638                35.5854

                     34                     35                     36
                      A                      A                      A
 Frequencies --   1239.5207              1275.6079              1292.7653
 Red. masses --      1.3624                 1.3824                 1.7981
 Frc consts  --      1.2333                 1.3253                 1.7706
 IR Inten    --      2.2373                21.5887                26.9733

                     37                     38                     39
                      A                      A                      A
 Frequencies --   1341.3190              1382.9530              1421.9515
 Red. masses --      1.7742                 2.3429                 1.7274
 Frc consts  --      1.8806                 2.6401                 2.0578
 IR Inten    --     39.1429                11.8177                16.8204

                     40                     41                     42
                      A                      A                      A
 Frequencies --   1444.4411              1508.0415              1517.4687
 Red. masses --      1.2476                 1.0423                 1.3630
 Frc consts  --      1.5337                 1.3966                 1.8493
 IR Inten    --      3.3119                 7.3189                 7.3127

                     43                     44                     45
                      A                      A                      A
 Frequencies --   1523.8370              1540.4816              1548.6374
 Red. masses --      1.1009                 2.0574                 1.3391
 Frc consts  --      1.5062                 2.8766                 1.8922
 IR Inten    --      0.2479                22.3369                 3.2712

                     46                     47                     48
                      A                      A                      A
 Frequencies --   1613.4591              1701.3537              3012.5310
 Red. masses --      5.1810                 7.8374                 1.0717
 Frc consts  --      7.9466                13.3664                 5.7306
 IR Inten    --      7.2387                31.0171                69.8570

                     49                     50                     51
                      A                      A                      A
 Frequencies --   3043.7775              3051.0355              3075.7420
 Red. masses --      1.0365                 1.0712                 1.0881
 Frc consts  --      5.6580                 5.8753                 6.0651
 IR Inten    --     47.3101                40.2582                58.7275

                     52                     53                     54
                      A                      A                      A
 Frequencies --   3094.7654              3128.3583              3133.8092
 Red. masses --      1.1017                 1.1007                 1.1009
 Frc consts  --      6.2166                 6.3470                 6.3698
 IR Inten    --     16.7247                13.5363                38.6323

                     55                     56                     57
                      A                      A                      A
 Frequencies --   3209.7569              3227.7932              3262.8736
 Red. masses --      1.0897                 1.0964                 1.0947
 Frc consts  --      6.6144                 6.7301                 6.8666
 IR Inten    --     14.8953                 7.0748                 3.9346

 - Thermochemistry -
 -------------------
 Temperature   298.150 Kelvin.  Pressure   1.00000 Atm.
 Atom     1 has atomic number  6 and mass  12.00000

 Molecular mass:   166.04524 amu.
 Principal axes and moments of inertia in atomic units:
                           1         2         3
     Eigenvalues --   602.788413343.793813906.63686
           X            1.00000   0.00168  -0.00076
           Y           -0.00168   0.99999   0.00270
           Z            0.00076  -0.00269   1.00000
 This molecule is an asymmetric top.
 Rotational symmetry number  1.
 Warning -- assumption of classical behavior for rotation
           may cause significant error
 Rotational temperatures (Kelvin)      0.14369     0.02590     0.02217
 Rotational constants (GHZ):           2.99399     0.53973     0.46197
 Zero-point vibrational energy     443044.6 (Joules/Mol)
                                  105.89021 (Kcal/Mol)
 Warning -- explicit consideration of  13 degrees of freedom as
           vibrations may cause significant error
 Vibrational temperatures:     58.27   121.23   148.08   162.21   194.04
          (Kelvin)            279.70   416.25   434.97   479.29   601.24
                              702.05   820.99   861.85   938.78   982.18
                              993.76  1037.53  1082.12  1162.40  1233.37
                             1255.48  1272.48  1362.97  1404.83  1434.37
                             1461.59  1518.79  1541.23  1560.54  1570.48
                             1716.83  1751.75  1780.61  1783.39  1835.32
                             1860.00  1929.86  1989.76  2045.87  2078.23
                             2169.74  2183.30  2192.46  2216.41  2228.14
                             2321.41  2447.87  4334.36  4379.32  4389.76
                             4425.31  4452.68  4501.01  4508.85  4618.12
                             4644.07  4694.55

 Zero-point correction=                           0.168747 (Hartree/Particle)
 Thermal correction to Energy=                    0.179207
 Thermal correction to Enthalpy=                  0.180151
 Thermal correction to Gibbs Free Energy=         0.131552
 Sum of electronic and zero-point Energies=           -822.230075
 Sum of electronic and thermal Energies=              -822.219615
 Sum of electronic and thermal Enthalpies=            -822.218670
 Sum of electronic and thermal Free Energies=         -822.267270

                     E (Thermal)             CV                S
                      KCal/Mol        Cal/Mol-Kelvin    Cal/Mol-Kelvin
 Total                  112.454             38.502            102.287
 Electronic               0.000              0.000              0.000
 Translational            0.889              2.981             41.230
 Rotational               0.889              2.981             30.444
 Vibrational            110.677             32.541             30.613
 Vibration     1          0.594              1.981              5.234
 Vibration     2          0.601              1.960              3.789
 Vibration     3          0.605              1.947              3.398
 Vibration     4          0.607              1.939              3.221
 Vibration     5          0.613              1.919              2.876
 Vibration     6          0.635              1.848              2.185
 Vibration     7          0.686              1.694              1.478
 Vibration     8          0.694              1.669              1.404
 Vibration     9          0.715              1.609              1.245
 Vibration    10          0.781              1.431              0.899
 Vibration    11          0.844              1.277              0.689
 Vibration    12          0.927              1.095              0.503
 Vibration    13          0.957              1.034              0.451

                           ! Non-Optimized Parameters !
 Normal termination of Gaussian 16 at Tue Dec  8 20:23:53 2020.

 ----------------------------------------------------------------------
 # B3LYP/6-311++G(d,p) empiricaldispersion=gd3bj scf=xqc pop=npa geom=c
 heck
 ----------------------------------------------------------------------

 --------------------------------------
 CID_10374795_JID_1526_Energie_neutraal
 --------------------------------------
 Structure from the checkpoint file:  "JID_1526.chk"
 Charge =  0 Multiplicity = 1

 SCF Done:  E(RB3LYP) =  -822.539023959     A.U. after   15 cycles
 Normal termination of Gaussian 16 at Tue Dec  8 20:26:11 2020.

 ----------------------------------------------------------------------
 # B3LYP/6-311++G(d,p) empiricaldispersion=gd3bj scf=xqc pop=npa geom=c
 heck
 ----------------------------------------------------------------------

 ------------------------------------
 CID_10374795_JID_1526_Energie_kation
 ------------------------------------
 Structure from the checkpoint file:  "JID_1526.chk"
 Charge =  1 Multiplicity = 2

 SCF Done:  E(UB3LYP) =  -822.274534953     A.U. after   20 cycles
 Normal termination of Gaussian 16 at Tue Dec  8 20:31:42 2020.
 Gaussian 16:  ES64L-G16RevA.03 25-Dec-2016

 ----------------------------------------------------------------------
 # B3LYP/6-311++G(d,p) empiricaldispersion=gd3bj scf=xqc pop=npa geom=c
 heck
 ----------------------------------------------------------------------

 -----------------------------------
 CID_10374795_JID_1526_Energie_anion
 -----------------------------------
 Structure from the checkpoint file:  "JID_1526.chk"
 Charge = -1 Multiplicity = 2

                         Standard orientation:
 ---------------------------------------------------------------------
 Center     Atomic      Atomic             Coordinates (Angstroms)
 Number     Number       Type             X           Y           Z
 ---------------------------------------------------------------------
      1          6           0       -3.973030   -0.596646   -0.031616
      2          6           0       -2.604494    0.011875   -0.010357
      3          6           0       -2.268050    1.341762    0.027572
      4          6           0       -0.865248    1.575140    0.049391
      5          6           0       -0.125131    0.416067    0.021712
      6         16           0       -1.172985   -0.986564   -0.023497
      7          6           0        1.312522    0.251486    0.013217
      8          6           0        2.305426    1.148472   -0.114518
      9          6           0        3.630209    0.437193    0.023927
     10          6           0        3.179427   -1.037491   -0.074455
     11          8           0        1.752399   -1.045678    0.169730
     12          1           0       -4.138409   -1.201333   -0.931602
     13          1           0       -4.145395   -1.246108    0.835252
     14          1           0       -4.729399    0.194014   -0.014656
     15          1           0       -3.010637    2.132910    0.045567
     16          1           0       -0.415183    2.560795    0.090743
     17          1           0        2.179684    2.215054   -0.238016
     18          1           0        4.116490    0.658998    0.985949
     19          1           0        4.349293    0.690429   -0.763889
     20          1           0        3.348782   -1.441870   -1.079940
     21          1           0        3.643550   -1.699596    0.659463
 ---------------------------------------------------------------------

 SCF Done:  E(UB3LYP) =  -822.526335291     A.U. after   33 cycles
 SCF Done:  E(UB3LYP) =  -822.526335296     a.u. after    2 cycles

 The electronic state is 2-A.
 Alpha  occ. eigenvalues --  -88.72656 -19.01631 -10.10606 -10.09084 -10.05875
 Alpha  occ. eigenvalues --  -10.05696 -10.05585 -10.05366 -10.03614 -10.03007
 Alpha  occ. eigenvalues --  -10.01986  -7.81297  -5.77592  -5.77231  -5.76893
 Alpha  occ. eigenvalues --   -0.93796  -0.74159  -0.66265  -0.65070  -0.61387
 Alpha  occ. eigenvalues --   -0.59095  -0.54429  -0.48629  -0.46247  -0.40412
 Alpha  occ. eigenvalues --   -0.39910  -0.37933  -0.36778  -0.33885  -0.30793
 Alpha  occ. eigenvalues --   -0.30594  -0.28841  -0.27329  -0.26136  -0.25303
 Alpha  occ. eigenvalues --   -0.25131  -0.24245  -0.22827  -0.22548  -0.20980
 Alpha  occ. eigenvalues --   -0.19741  -0.12036  -0.11596  -0.06851   0.05475
 Alpha virt. eigenvalues --    0.07347   0.07671   0.09088   0.09660   0.09878
 Alpha virt. eigenvalues --    0.10577   0.11752   0.12235   0.12468   0.13591
 Alpha virt. eigenvalues --    0.14740   0.15342   0.15466   0.15696   0.16362

  Beta  occ. eigenvalues --  -88.72622 -19.01611 -10.10590 -10.09014 -10.05872
  Beta  occ. eigenvalues --  -10.05590 -10.05425 -10.05203 -10.03677 -10.02880
  Beta  occ. eigenvalues --  -10.01842  -7.81266  -5.77580  -5.77219  -5.76776
  Beta  occ. eigenvalues --   -0.93733  -0.73894  -0.66096  -0.64764  -0.61213
  Beta  occ. eigenvalues --   -0.58930  -0.54240  -0.48530  -0.45938  -0.40167
  Beta  occ. eigenvalues --   -0.39733  -0.37764  -0.36682  -0.33773  -0.30662
  Beta  occ. eigenvalues --   -0.30273  -0.28722  -0.27187  -0.26020  -0.25086
  Beta  occ. eigenvalues --   -0.24825  -0.24005  -0.22701  -0.22451  -0.20612
  Beta  occ. eigenvalues --   -0.19557  -0.11215  -0.11009  -0.05787
  Beta virt. eigenvalues --    0.07729   0.07957   0.09276   0.09648   0.09943
  Beta virt. eigenvalues --    0.10059   0.10766   0.12081   0.12346   0.12662
  Beta virt. eigenvalues --    0.13550   0.14693   0.15329   0.15437   0.16156

 Mulliken charges and spin densities:
               1          2
     1  C    1.069358  -1.554308
     2  C   -0.452715   1.036759
     3  C   -1.211922   0.333416
     4  C    0.693857   0.228037
     5  C   -0.044751   0.076805
     6  S   -0.379717  -0.105560
     7  C   -0.068818  -0.144488
     8  C   -0.376962   0.500527
     9  C    0.673480  -1.317010
    10  C   -0.038831  -0.073658
    11  O   -0.146420   0.041897
    12  H   -0.253375   0.409906
    13  H    0.123987   0.011963
    14  H   -0.210811   0.349387
    15  H   -0.110556   0.215197
    16  H    0.069838   0.025384
    17  H   -0.034850   0.158587
    18  H   -0.066563   0.179019
    19  H   -0.125050   0.240270
    20  H    0.065301   0.071182
    21  H   -0.174478   0.316687
 Sum of Mulliken charges =  -1.00000   1.00000

 Dipole moment (field-independent basis, Debye):
    X=              0.9161    Y=              0.3422    Z=              1.0339  Tot=              1.4232
 Quadrupole moment (field-independent basis, Debye-Ang):
   XX=           -133.0472   YY=            -92.3504   ZZ=            -92.2097
   XY=             -1.8613   XZ=             -8.6861   YZ=              0.8454

 Summary of Natural Population Analysis:

                                       Natural Population
                Natural  -----------------------------------------------
    Atom  No    Charge         Core      Valence    Rydberg      Total
 -----------------------------------------------------------------------
      C    1   -0.29900      0.99961     2.29320    0.00619     3.29900
      C    2   -0.05901      0.99952     2.04718    0.01231     3.05901
      C    3   -0.15359      0.99947     2.14296    0.01117     3.15359
      C    4   -0.09291      0.99950     2.08430    0.00911     3.09291
      C    5   -0.09642      0.99945     2.08453    0.01244     3.09642
      S    6    0.21319      4.99940     2.76764    0.01977     7.78681
      C    7    0.15862      0.99936     1.82787    0.01416     2.84138
      C    8   -0.13024      0.99949     2.12238    0.00836     3.13024
      C    9   -0.21335      0.99965     2.20515    0.00855     3.21335
      C   10   -0.00440      0.99960     1.99484    0.00996     3.00440
      O   11   -0.28395      0.99988     3.27594    0.00813     4.28395
      H   12    0.10612      0.00000     0.39154    0.00234     0.39388
      H   13    0.09958      0.00000     0.39947    0.00095     0.40042
      H   14    0.10221      0.00000     0.39683    0.00096     0.39779
      H   15    0.09808      0.00000     0.40102    0.00090     0.40192
      H   16    0.09931      0.00000     0.39977    0.00092     0.40069
      H   17    0.10039      0.00000     0.39879    0.00082     0.39961
      H   18    0.09471      0.00000     0.40329    0.00200     0.40529
      H   19    0.09622      0.00000     0.40239    0.00139     0.40378
      H   20    0.07853      0.00000     0.41976    0.00171     0.42147
      H   21    0.08591      0.00000     0.41194    0.00215     0.41409
 =======================================================================
   * Total *   -0.00000     14.99493    28.87078    0.13429    44.00000

 Normal termination of Gaussian 16 at Tue Dec  8 20:44:35 2020.
