 Gaussian 16, Revision A.03,

 -----------------------------------------------------------
 # opt freq B3LYP/6-31G(d) empiricaldispersion=gd3bj scf=xqc
 -----------------------------------------------------------

 --------------------------------
 CID_137565262_JID_10363_neutraal
 --------------------------------
 Symbolic Z-matrix:
 Charge =  0 Multiplicity = 1

 SCF Done:  E(RB3LYP) =  -1269.06097354     A.U. after   16 cycles
 SCF Done:  E(RB3LYP) =  -1269.08769113     A.U. after   14 cycles
 SCF Done:  E(RB3LYP) =  -1269.08964042     A.U. after   13 cycles
 SCF Done:  E(RB3LYP) =  -1269.09039619     A.U. after   13 cycles
 SCF Done:  E(RB3LYP) =  -1269.09099849     A.U. after   14 cycles
 SCF Done:  E(RB3LYP) =  -1269.09126445     A.U. after   13 cycles
 SCF Done:  E(RB3LYP) =  -1269.09135667     A.U. after   13 cycles
 SCF Done:  E(RB3LYP) =  -1269.09142438     A.U. after   12 cycles
 SCF Done:  E(RB3LYP) =  -1269.09144742     A.U. after   11 cycles
 SCF Done:  E(RB3LYP) =  -1269.09149135     A.U. after   12 cycles
 SCF Done:  E(RB3LYP) =  -1269.09303315     A.U. after   10 cycles
 SCF Done:  E(RB3LYP) =  -1269.09303477     A.U. after    9 cycles
 SCF Done:  E(RB3LYP) =  -1269.09303492     A.U. after    8 cycles
 SCF Done:  E(RB3LYP) =  -1269.09303511     A.U. after    8 cycles
 SCF Done:  E(RB3LYP) =  -1269.09303519     A.U. after    8 cycles
 Optimization completed.
    -- Stationary point found.
 Normal termination of Gaussian 16 at Sat Dec 12 15:34:03 2020.

 --------------------------------------------------------------------
 #N Geom=AllCheck Guess=TCheck SCRF=Check GenChk RB3LYP/6-31G(d) Freq
 --------------------------------------------------------------------

 Structure from the checkpoint file:  "JID_10363.chk"
 --------------------------------
 CID_137565262_JID_10363_neutraal
 --------------------------------
 Charge =  0 Multiplicity = 1

 SCF Done:  E(RB3LYP) =  -1269.09303519     A.U. after    1 cycles

  Exact polarizability: 225.414  -6.371 199.648  16.483  -0.081 114.617
 Approx polarizability: 326.699 -14.838 342.808  36.964  -4.422 192.677

                      1                      2                      3
                      A                      A                      A
 Frequencies --     19.7174                32.7611                40.0934
 Red. masses --      4.6439                 5.1141                 7.7703
 Frc consts  --      0.0011                 0.0032                 0.0074
 IR Inten    --      2.6343                 6.5798                 1.0794

                      4                      5                      6
                      A                      A                      A
 Frequencies --     48.6124                61.2633               104.6499
 Red. masses --     12.9549                 8.4753                 9.1518
 Frc consts  --      0.0180                 0.0187                 0.0591
 IR Inten    --      0.9080                 2.4519                 2.2049

                      7                      8                      9
                      A                      A                      A
 Frequencies --    124.3637               134.5700               150.0565
 Red. masses --     10.5891                 7.1505                10.1482
 Frc consts  --      0.0965                 0.0763                 0.1346
 IR Inten    --      5.9838                 0.1972                 2.6802

                     10                     11                     12
                      A                      A                      A
 Frequencies --    191.9311               201.2809               224.9522
 Red. masses --      6.0644                 6.1204                 2.9056
 Frc consts  --      0.1316                 0.1461                 0.0866
 IR Inten    --      1.2978                 1.5109                 1.4024

                     13                     14                     15
                      A                      A                      A
 Frequencies --    263.3400               268.5811               281.0030
 Red. masses --      1.3336                 9.9542                 5.2144
 Frc consts  --      0.0545                 0.4231                 0.2426
 IR Inten    --      0.5345                 4.8892                 6.9502

                     16                     17                     18
                      A                      A                      A
 Frequencies --    284.7456               329.8802               380.1431
 Red. masses --      4.2322                 6.2903                 9.5934
 Frc consts  --      0.2022                 0.4033                 0.8168
 IR Inten    --      2.1888                 2.3357                11.1560

                     19                     20                     21
                      A                      A                      A
 Frequencies --    411.9488               435.3027               438.8166
 Red. masses --      6.1397                 4.6640                 9.2002
 Frc consts  --      0.6139                 0.5207                 1.0438
 IR Inten    --      4.0055                 1.0399                 0.4577

                     22                     23                     24
                      A                      A                      A
 Frequencies --    493.7593               499.9027               516.2388
 Red. masses --      6.2892                 6.7836                 6.1049
 Frc consts  --      0.9034                 0.9988                 0.9586
 IR Inten    --      9.5011                 3.6536                 9.0041

                     25                     26                     27
                      A                      A                      A
 Frequencies --    540.0444               545.0633               563.9180
 Red. masses --      4.6837                 4.8233                 1.4436
 Frc consts  --      0.8048                 0.8443                 0.2705
 IR Inten    --     11.3580                17.6529                65.5069

                     28                     29                     30
                      A                      A                      A
 Frequencies --    585.7542               622.0007               640.9047
 Red. masses --      7.0718                 6.6871                 8.8575
 Frc consts  --      1.4296                 1.5243                 2.1436
 IR Inten    --      1.8504                 4.2654                 8.3838

                     31                     32                     33
                      A                      A                      A
 Frequencies --    663.0438               673.3346               716.7743
 Red. masses --      5.6217                 2.1253                 2.0451
 Frc consts  --      1.4561                 0.5677                 0.6190
 IR Inten    --     10.0705                27.1037                79.0541

                     34                     35                     36
                      A                      A                      A
 Frequencies --    731.4871               736.1716               769.4070
 Red. masses --      4.9967                 4.5551                 5.4458
 Frc consts  --      1.5752                 1.4545                 1.8994
 IR Inten    --      1.0457                29.2013                 9.6333

                     37                     38                     39
                      A                      A                      A
 Frequencies --    793.2901               827.4868               888.2041
 Red. masses --      5.1948                 1.4836                 5.2286
 Frc consts  --      1.9261                 0.5985                 2.4303
 IR Inten    --     17.6711                17.7064                 5.5453

                     40                     41                     42
                      A                      A                      A
 Frequencies --    908.6067               940.4818               959.6881
 Red. masses --      1.4501                 3.7979                 3.0137
 Frc consts  --      0.7053                 1.9792                 1.6354
 IR Inten    --      7.8969                10.8304                 3.5192

                     43                     44                     45
                      A                      A                      A
 Frequencies --    960.9651              1022.8766              1026.9077
 Red. masses --      1.4546                 3.1029                 3.6909
 Frc consts  --      0.7914                 1.9127                 2.2932
 IR Inten    --      2.5844                 9.7666                 1.3467

                     46                     47                     48
                      A                      A                      A
 Frequencies --   1080.2570              1120.1573              1152.7145
 Red. masses --      3.7354                 5.2760                 2.1037
 Frc consts  --      2.5683                 3.9005                 1.6469
 IR Inten    --     55.2155                 8.6056                15.1885

                     49                     50                     51
                      A                      A                      A
 Frequencies --   1175.4297              1175.8906              1197.9884
 Red. masses --      1.3515                 1.7301                 2.2866
 Frc consts  --      1.1002                 1.4094                 1.9335
 IR Inten    --     51.1908               182.1291                 4.8779

                     52                     53                     54
                      A                      A                      A
 Frequencies --   1219.8025              1223.7953              1231.7841
 Red. masses --      1.5064                 2.2085                 2.4253
 Frc consts  --      1.3206                 1.9488                 2.1681
 IR Inten    --      7.1046                27.7117                 3.4364

                     55                     56                     57
                      A                      A                      A
 Frequencies --   1280.1705              1294.2400              1305.0574
 Red. masses --      2.8479                 1.4378                 1.6370
 Frc consts  --      2.7499                 1.4190                 1.6427
 IR Inten    --     98.9082                17.7960                33.7604

                     58                     59                     60
                      A                      A                      A
 Frequencies --   1318.1471              1354.9046              1378.6640
 Red. masses --      1.4708                 1.6921                 2.0644
 Frc consts  --      1.5057                 1.8302                 2.3119
 IR Inten    --     26.5093                69.1181               133.1692

                     61                     62                     63
                      A                      A                      A
 Frequencies --   1392.1727              1420.5157              1451.1845
 Red. masses --      5.8089                 1.5091                 2.6308
 Frc consts  --      6.6334                 1.7941                 3.2642
 IR Inten    --     70.8829                34.1711               152.7916

                     64                     65                     66
                      A                      A                      A
 Frequencies --   1469.1891              1515.2849              1522.4791
 Red. masses --      2.4297                 1.4871                 1.0793
 Frc consts  --      3.0900                 2.0118                 1.4740
 IR Inten    --    166.0219                 3.0521                24.4165

                     67                     68                     69
                      A                      A                      A
 Frequencies --   1527.4264              1544.3780              1577.2305
 Red. masses --      1.0600                 2.3914                 2.2260
 Frc consts  --      1.4570                 3.3606                 3.2626
 IR Inten    --     13.0672                46.4627               383.1197

                     70                     71                     72
                      A                      A                      A
 Frequencies --   1612.9705              1676.6058              1839.4672
 Red. masses --      6.6089                 5.9091                10.3490
 Frc consts  --     10.1305                 9.7866                20.6315
 IR Inten    --     98.8253                76.7587               399.0638

                     73                     74                     75
                      A                      A                      A
 Frequencies --   2343.1946              2373.5762              3072.4769
 Red. masses --     12.6741                12.6539                 1.0300
 Frc consts  --     41.0001                42.0031                 5.7291
 IR Inten    --     44.9235                 5.1221                33.5193

                     76                     77                     78
                      A                      A                      A
 Frequencies --   3092.2466              3124.8493              3152.7628
 Red. masses --      1.0862                 1.0845                 1.1081
 Frc consts  --      6.1195                 6.2393                 6.4894
 IR Inten    --      7.8946                 0.2326                15.9199

                     79                     80                     81
                      A                      A                      A
 Frequencies --   3176.7359              3193.3795              3223.5039
 Red. masses --      1.1061                 1.0891                 1.0941
 Frc consts  --      6.5765                 6.5438                 6.6982
 IR Inten    --     14.2561                 4.8670                 2.6175

                     82                     83                     84
                      A                      A                      A
 Frequencies --   3233.4986              3596.7286              3625.2161
 Red. masses --      1.0907                 1.0777                 1.0781
 Frc consts  --      6.7191                 8.2145                 8.3481
 IR Inten    --      1.5236                78.3467                55.5181

 - Thermochemistry -
 -------------------
 Temperature   298.150 Kelvin.  Pressure   1.00000 Atm.
 Atom     1 has atomic number  6 and mass  12.00000

 Molecular mass:   286.05245 amu.
 Principal axes and moments of inertia in atomic units:
                           1         2         3
     Eigenvalues --  3452.783279017.21654**********
           X            0.99993   0.01153   0.00358
           Y           -0.01159   0.99976   0.01875
           Z           -0.00336  -0.01879   0.99982
 This molecule is an asymmetric top.
 Rotational symmetry number  1.
 Warning -- assumption of classical behavior for rotation
           may cause significant error
 Rotational temperatures (Kelvin)      0.02509     0.00961     0.00798
 Rotational constants (GHZ):           0.52269     0.20014     0.16631
 Zero-point vibrational energy     576123.9 (Joules/Mol)
                                  137.69693 (Kcal/Mol)
 Warning -- explicit consideration of  28 degrees of freedom as
           vibrations may cause significant error
 Vibrational temperatures:     28.37    47.14    57.69    69.94    88.14
          (Kelvin)            150.57   178.93   193.62   215.90   276.15
                              289.60   323.66   378.89   386.43   404.30
                              409.69   474.62   546.94   592.70   626.30
                              631.36   710.41   719.25   742.75   777.00
                              784.22   811.35   842.77   894.92   922.12
                              953.97   968.78  1031.28  1052.45  1059.19
                             1107.01  1141.37  1190.57  1277.93  1307.28
                             1353.14  1380.78  1382.61  1471.69  1477.49
                             1554.25  1611.66  1658.50  1691.18  1691.84
                             1723.64  1755.02  1760.77  1772.26  1841.88
                             1862.12  1877.69  1896.52  1949.41  1983.59
                             2003.03  2043.81  2087.93  2113.84  2180.16
                             2190.51  2197.63  2222.02  2269.28  2320.70
                             2412.26  2646.58  3371.33  3415.05  4420.61
                             4449.05  4495.96  4536.12  4570.61  4594.56
                             4637.90  4652.28  5174.89  5215.88

 Zero-point correction=                           0.219434 (Hartree/Particle)
 Thermal correction to Energy=                    0.237381
 Thermal correction to Enthalpy=                  0.238325
 Thermal correction to Gibbs Free Energy=         0.170973
 Sum of electronic and zero-point Energies=          -1268.873601
 Sum of electronic and thermal Energies=             -1268.855654
 Sum of electronic and thermal Enthalpies=           -1268.854710
 Sum of electronic and thermal Free Energies=        -1268.922062

                     E (Thermal)             CV                S
                      KCal/Mol        Cal/Mol-Kelvin    Cal/Mol-Kelvin
 Total                  148.959             66.181            141.754
 Electronic               0.000              0.000              0.000
 Translational            0.889              2.981             42.851
 Rotational               0.889              2.981             34.179
 Vibrational            147.181             60.219             64.724
 Vibration     1          0.593              1.986              6.662
 Vibration     2          0.594              1.983              5.655
 Vibration     3          0.594              1.981              5.254
 Vibration     4          0.595              1.978              4.873
 Vibration     5          0.597              1.973              4.416
 Vibration     6          0.605              1.946              3.366
 Vibration     7          0.610              1.929              3.031
 Vibration     8          0.613              1.919              2.880
 Vibration     9          0.618              1.903              2.672
 Vibration    10          0.634              1.851              2.209
 Vibration    11          0.638              1.838              2.121
 Vibration    12          0.650              1.803              1.919
 Vibration    13          0.670              1.740              1.640
 Vibration    14          0.673              1.731              1.605
 Vibration    15          0.681              1.709              1.528
 Vibration    16          0.683              1.702              1.505
 Vibration    17          0.713              1.616              1.261
 Vibration    18          0.750              1.513              1.039
 Vibration    19          0.776              1.444              0.920
 Vibration    20          0.796              1.393              0.842
 Vibration    21          0.799              1.386              0.830
 Vibration    22          0.849              1.264              0.674
 Vibration    23          0.855              1.250              0.658
 Vibration    24          0.871              1.214              0.619
 Vibration    25          0.895              1.162              0.565
 Vibration    26          0.900              1.150              0.554
 Vibration    27          0.920              1.109              0.516
 Vibration    28          0.943              1.062              0.475

 Optimization completed.
    -- Stationary point found.
 Normal termination of Gaussian 16 at Sat Dec 12 15:51:25 2020.

 ----------------------------------------------------------------------
 # B3LYP/6-311++G(d,p) empiricaldispersion=gd3bj scf=xqc pop=npa geom=c
 heck
 ----------------------------------------------------------------------

 ----------------------------------------
 CID_137565262_JID_10363_Energie_neutraal
 ----------------------------------------
 Structure from the checkpoint file:  "JID_10363.chk"
 Charge =  0 Multiplicity = 1

 SCF Done:  E(RB3LYP) =  -1269.35955775     A.U. after   16 cycles
 Normal termination of Gaussian 16 at Sat Dec 12 15:58:52 2020.

 ----------------------------------------------------------------------
 # B3LYP/6-311++G(d,p) empiricaldispersion=gd3bj scf=xqc pop=npa geom=c
 heck
 ----------------------------------------------------------------------

 --------------------------------------
 CID_137565262_JID_10363_Energie_kation
 --------------------------------------
 Structure from the checkpoint file:  "JID_10363.chk"
 Charge =  1 Multiplicity = 2

 SCF Done:  E(UB3LYP) =  -1269.04303273     A.U. after   33 cycles
 SCF Done:  E(UB3LYP) =  -1269.04303273     a.u. after    1 cycles
 Normal termination of Gaussian 16 at Sat Dec 12 16:20:59 2020.
 Gaussian 16:  ES64L-G16RevA.03 25-Dec-2016

 ----------------------------------------------------------------------
 # B3LYP/6-311++G(d,p) empiricaldispersion=gd3bj scf=xqc pop=npa geom=c
 heck
 ----------------------------------------------------------------------

 -------------------------------------
 CID_137565262_JID_10363_Energie_anion
 -------------------------------------
 Structure from the checkpoint file:  "JID_10363.chk"
 Charge = -1 Multiplicity = 2

                         Standard orientation:
 ---------------------------------------------------------------------
 Center     Atomic      Atomic             Coordinates (Angstroms)
 Number     Number       Type             X           Y           Z
 ---------------------------------------------------------------------
      1          6           0        4.063446    2.010826    0.533258
      2          8           0        2.718453    1.741680    0.128659
      3          6           0        2.277538    0.496405   -0.134110
      4          6           0        3.028986   -0.700627   -0.164607
      5          6           0        2.366979   -1.912198   -0.468252
      6          6           0        1.012248   -1.949433   -0.733009
      7          6           0        0.266437   -0.758457   -0.700410
      8          6           0        0.898339    0.438931   -0.409431
      9          6           0       -1.233268   -0.831889   -0.965242
     10          6           0       -1.967344   -1.512552    0.219724
     11          6           0       -2.040345   -0.557499    1.424035
     12          8           0       -1.995146   -0.931941    2.573698
     13          7           0       -2.197796    0.771952    1.073278
     14          6           0       -2.201918    1.320912   -0.203149
     15         16           0       -2.574178    2.919813   -0.454208
     16          7           0       -1.867867    0.456499   -1.194132
     17          6           0       -3.322275   -1.915430   -0.166900
     18          7           0       -4.390672   -2.226193   -0.494651
     19          6           0        4.437128   -0.793053    0.069020
     20          7           0        5.577141   -0.951895    0.240103
     21          1           0        4.083054    3.081356    0.739953
     22          1           0        4.773998    1.774725   -0.262756
     23          1           0        4.323689    1.454636    1.438002
     24          1           0        2.957103   -2.821886   -0.496095
     25          1           0        0.533743   -2.894582   -0.973614
     26          1           0        0.359439    1.378811   -0.388528
     27          1           0       -1.403475   -1.438576   -1.859367
     28          1           0       -1.413364   -2.392637    0.554539
     29          1           0       -2.363189    1.423196    1.832931
     30          1           0       -1.811959    0.871892   -2.114344
 ---------------------------------------------------------------------

 SCF Done:  E(UB3LYP) =  -1269.39630312     A.U. after   26 cycles

 The electronic state is 2-A.
 Alpha  occ. eigenvalues --  -88.68486 -19.06967 -19.00009 -14.26401 -14.25179
 Alpha  occ. eigenvalues --  -14.22278 -14.20074 -10.18106 -10.17152 -10.15227
 Alpha  occ. eigenvalues --  -10.15013 -10.14120 -10.13849 -10.12326 -10.10488
 Alpha  occ. eigenvalues --  -10.10285 -10.08883 -10.08612 -10.08125 -10.07181
 Alpha  occ. eigenvalues --   -7.77277  -5.73675  -5.73118  -5.72833  -0.98743
 Alpha  occ. eigenvalues --   -0.96008  -0.89942  -0.82373  -0.81807  -0.80471
 Alpha  occ. eigenvalues --   -0.77048  -0.73537  -0.68018  -0.67701  -0.64243
 Alpha  occ. eigenvalues --   -0.61655  -0.59574  -0.53665  -0.53295  -0.52281
 Alpha  occ. eigenvalues --   -0.50696  -0.46888  -0.44795  -0.43800  -0.42065
 Alpha  occ. eigenvalues --   -0.41426  -0.39620  -0.38891  -0.37561  -0.36457
 Alpha  occ. eigenvalues --   -0.35517  -0.34257  -0.33924  -0.33132  -0.31637
 Alpha  occ. eigenvalues --   -0.30526  -0.29772  -0.28373  -0.28240  -0.27150
 Alpha  occ. eigenvalues --   -0.26754  -0.26492  -0.26457  -0.25553  -0.25129
 Alpha  occ. eigenvalues --   -0.24407  -0.23220  -0.22214  -0.18537  -0.17632
 Alpha  occ. eigenvalues --   -0.16241  -0.13919  -0.12659  -0.11456   0.01396
 Alpha virt. eigenvalues --    0.03991   0.06889   0.07365   0.07758   0.08579
 Alpha virt. eigenvalues --    0.09728   0.09792   0.09986   0.10457   0.10939
 Alpha virt. eigenvalues --    0.11396   0.11525   0.11801   0.12339   0.12723

  Beta  occ. eigenvalues --  -88.68457 -19.06940 -18.99727 -14.26500 -14.25137
  Beta  occ. eigenvalues --  -14.22224 -14.19904 -10.17879 -10.16768 -10.15162
  Beta  occ. eigenvalues --  -10.15007 -10.14122 -10.13818 -10.12318 -10.10482
  Beta  occ. eigenvalues --  -10.10137 -10.08770 -10.08360 -10.08172 -10.07140
  Beta  occ. eigenvalues --   -7.77252  -5.73673  -5.73014  -5.72817  -0.98675
  Beta  occ. eigenvalues --   -0.95558  -0.89650  -0.82297  -0.81714  -0.80212
  Beta  occ. eigenvalues --   -0.76779  -0.73266  -0.67648  -0.67542  -0.63933
  Beta  occ. eigenvalues --   -0.61521  -0.59328  -0.53401  -0.52913  -0.52173
  Beta  occ. eigenvalues --   -0.50501  -0.46791  -0.44604  -0.43599  -0.41915
  Beta  occ. eigenvalues --   -0.41292  -0.39533  -0.38774  -0.37325  -0.36149
  Beta  occ. eigenvalues --   -0.35248  -0.34103  -0.33814  -0.32636  -0.31201
  Beta  occ. eigenvalues --   -0.30083  -0.29449  -0.28172  -0.28048  -0.26885
  Beta  occ. eigenvalues --   -0.26491  -0.25936  -0.25695  -0.25187  -0.24802
  Beta  occ. eigenvalues --   -0.24304  -0.22726  -0.22118  -0.18113  -0.17358
  Beta  occ. eigenvalues --   -0.15265  -0.13314  -0.12035  -0.11359
  Beta virt. eigenvalues --    0.05779   0.06388   0.06988   0.07378   0.07989
  Beta virt. eigenvalues --    0.08602   0.09744   0.09918   0.10274   0.10900
  Beta virt. eigenvalues --    0.11057   0.11395   0.11617   0.11840   0.12383

 Mulliken charges and spin densities:
               1          2
     1  C   -0.234084  -0.004097
     2  O   -0.147141   0.006321
     3  C   -1.601652   0.078996
     4  C    3.040685   0.137274
     5  C   -0.325849   0.104986
     6  C   -0.212539  -0.001489
     7  C    0.911417   0.064181
     8  C   -0.913215   0.046640
     9  C    0.124429   0.040114
    10  C    0.424989  -0.078662
    11  C   -0.240924   0.146934
    12  O   -0.326391   0.091400
    13  N   -0.153583  -0.043336
    14  C    0.231374   0.157924
    15  S   -0.960374   0.077134
    16  N   -0.129348   0.018436
    17  C   -0.251748   0.036237
    18  N   -0.316542   0.029265
    19  C   -1.856868  -0.042553
    20  N   -0.242350   0.091663
    21  H    0.150360   0.001165
    22  H    0.187236   0.000885
    23  H    0.176542   0.003096
    24  H    0.162782  -0.005690
    25  H    0.129207   0.002773
    26  H    0.263950   0.035234
    27  H    0.225718   0.001093
    28  H    0.259457  -0.000788
    29  H    0.314649   0.004899
    30  H    0.309813  -0.000035
 Sum of Mulliken charges =  -1.00000   1.00000

 Dipole moment (field-independent basis, Debye):
    X=              2.6226    Y=             -0.4840    Z=             -2.0618  Tot=              3.3709
 Quadrupole moment (field-independent basis, Debye-Ang):
   XX=           -220.9620   YY=           -150.7799   ZZ=           -137.4733
   XY=             12.2464   XZ=              0.0238   YZ=              8.6252

 Summary of Natural Population Analysis:

                                       Natural Population
                Natural  -----------------------------------------------
    Atom  No    Charge         Core      Valence    Rydberg      Total
 -----------------------------------------------------------------------
      C    1   -0.10139      0.99960     2.09441    0.00738     3.10139
      O    2   -0.26643      0.99985     3.25763    0.00895     4.26643
      C    3    0.20395      0.99938     1.78533    0.01134     2.79605
      C    4   -0.12672      0.99942     2.11277    0.01453     3.12672
      C    5   -0.01177      0.99956     2.00785    0.00436     3.01177
      C    6   -0.14589      0.99955     2.13362    0.01272     3.14589
      C    7    0.02705      0.99949     1.96194    0.01151     2.97295
      C    8   -0.11507      0.99947     2.10730    0.00830     3.11507
      C    9   -0.00115      0.99955     1.98829    0.01330     3.00115
      C   10   -0.19670      0.99947     2.18622    0.01101     3.19670
      C   11    0.38223      0.99967     1.59452    0.02358     2.61777
      O   12   -0.26817      0.99987     3.26219    0.00611     4.26817
      N   13   -0.33465      0.99961     2.82378    0.01126     3.83465
      C   14    0.19568      0.99968     1.78371    0.02093     2.80432
      S   15   -0.12453      4.99956     3.11223    0.01273     8.12453
      N   16   -0.31051      0.99963     2.79894    0.01193     3.81051
      C   17    0.15960      0.99964     1.82094    0.01981     2.84040
      N   18   -0.17155      0.99979     2.66098    0.01078     3.67155
      C   19    0.14400      0.99964     1.83719    0.01917     2.85600
      N   20   -0.17423      0.99979     2.66351    0.01093     3.67423
      H   21    0.09014      0.00000     0.40912    0.00074     0.40986
      H   22    0.09010      0.00000     0.40883    0.00106     0.40990
      H   23    0.09020      0.00000     0.40878    0.00102     0.40980
      H   24    0.09664      0.00000     0.40220    0.00116     0.40336
      H   25    0.09728      0.00000     0.40113    0.00159     0.40272
      H   26    0.11560      0.00000     0.38288    0.00151     0.38440
      H   27    0.10792      0.00000     0.39081    0.00127     0.39208
      H   28    0.13503      0.00000     0.36382    0.00115     0.36497
      H   29    0.20967      0.00000     0.28881    0.00152     0.29033
      H   30    0.20383      0.00000     0.29485    0.00132     0.29617
 =======================================================================
   * Total *    0.00018     23.99222    49.74460    0.26300    73.99982

 Normal termination of Gaussian 16 at Sat Dec 12 16:38:31 2020.
