 Gaussian 16, Revision A.03,

 -----------------------------------------------------------
 # opt freq B3LYP/6-31G(d) empiricaldispersion=gd3bj scf=xqc
 -----------------------------------------------------------

 -------------------------------
 CID_130144194_JID_3497_neutraal
 -------------------------------
 Symbolic Z-matrix:
 Charge =  0 Multiplicity = 1

 SCF Done:  E(RB3LYP) =  -544.593332203     A.U. after   13 cycles
 SCF Done:  E(RB3LYP) =  -544.595271982     A.U. after   10 cycles
 SCF Done:  E(RB3LYP) =  -544.595402681     A.U. after   10 cycles
 SCF Done:  E(RB3LYP) =  -544.595530408     A.U. after   10 cycles
 SCF Done:  E(RB3LYP) =  -544.595549540     A.U. after    9 cycles
 SCF Done:  E(RB3LYP) =  -544.595552074     A.U. after    8 cycles
 SCF Done:  E(RB3LYP) =  -544.595553030     A.U. after    7 cycles
 SCF Done:  E(RB3LYP) =  -544.595553435     A.U. after    7 cycles
 SCF Done:  E(RB3LYP) =  -544.595553539     A.U. after    6 cycles
 Optimization completed.
    -- Stationary point found.
 Normal termination of Gaussian 16 at Mon Dec 14 13:07:39 2020.

 --------------------------------------------------------------------
 #N Geom=AllCheck Guess=TCheck SCRF=Check GenChk RB3LYP/6-31G(d) Freq
 --------------------------------------------------------------------

 Structure from the checkpoint file:  "JID_3497.chk"
 -------------------------------
 CID_130144194_JID_3497_neutraal
 -------------------------------
 Charge =  0 Multiplicity = 1

 SCF Done:  E(RB3LYP) =  -544.595553539     A.U. after    1 cycles

  Exact polarizability: 135.337  -1.712 130.365   0.987   0.414  98.029
 Approx polarizability: 171.779   0.782 196.404   1.363   1.472 154.624

                      1                      2                      3
                      A                      A                      A
 Frequencies --     93.8017               128.2063               157.0893
 Red. masses --      3.7262                 2.5326                 2.4448
 Frc consts  --      0.0193                 0.0245                 0.0355
 IR Inten    --      0.5706                 0.0776                 0.7847

                      4                      5                      6
                      A                      A                      A
 Frequencies --    206.3466               232.0031               249.1706
 Red. masses --      2.9000                 1.2005                 2.5136
 Frc consts  --      0.0728                 0.0381                 0.0919
 IR Inten    --      1.3587                 0.7355                 1.0339

                      7                      8                      9
                      A                      A                      A
 Frequencies --    267.9069               277.0637               298.3826
 Red. masses --      1.5330                 2.5234                 1.5663
 Frc consts  --      0.0648                 0.1141                 0.0822
 IR Inten    --      1.4804                 0.5524                23.3223

                     10                     11                     12
                      A                      A                      A
 Frequencies --    307.7962               320.5282               340.7729
 Red. masses --      1.3440                 2.1211                 2.5476
 Frc consts  --      0.0750                 0.1284                 0.1743
 IR Inten    --     71.6392                12.1789                 6.4225

                     13                     14                     15
                      A                      A                      A
 Frequencies --    379.6331               389.8668               427.4395
 Red. masses --      2.5690                 3.9078                 2.3781
 Frc consts  --      0.2181                 0.3500                 0.2560
 IR Inten    --      1.8815                 1.9593                 0.0831

                     16                     17                     18
                      A                      A                      A
 Frequencies --    474.5586               482.5913               497.1871
 Red. masses --      2.8798                 2.0067                 2.5729
 Frc consts  --      0.3821                 0.2754                 0.3747
 IR Inten    --      2.8429                 2.8888                 0.9092

                     19                     20                     21
                      A                      A                      A
 Frequencies --    530.5988               591.3010               614.6705
 Red. masses --      3.2342                 3.4618                 2.4352
 Frc consts  --      0.5365                 0.7131                 0.5421
 IR Inten    --      4.4511                 7.6647                 3.2402

                     22                     23                     24
                      A                      A                      A
 Frequencies --    690.2873               735.8659               796.0189
 Red. masses --      3.2493                 1.3904                 2.1911
 Frc consts  --      0.9122                 0.4436                 0.8180
 IR Inten    --      0.3087                23.6691                 3.7019

                     25                     26                     27
                      A                      A                      A
 Frequencies --    817.5945               842.5180               894.5353
 Red. masses --      2.6482                 2.5364                 1.7347
 Frc consts  --      1.0430                 1.0608                 0.8179
 IR Inten    --      0.3723                 1.2115                 0.9129

                     28                     29                     30
                      A                      A                      A
 Frequencies --    911.6050               927.3784               954.7004
 Red. masses --      2.5645                 1.7742                 1.9284
 Frc consts  --      1.2557                 0.8990                 1.0356
 IR Inten    --      0.3046                 4.3179                 2.0336

                     31                     32                     33
                      A                      A                      A
 Frequencies --    970.6730               991.5156               999.5589
 Red. masses --      1.9620                 1.7347                 1.2538
 Frc consts  --      1.0892                 1.0048                 0.7381
 IR Inten    --      4.4871                 5.3695                 0.7217

                     34                     35                     36
                      A                      A                      A
 Frequencies --   1010.2909              1023.8666              1035.7493
 Red. masses --      1.5808                 1.7986                 1.8634
 Frc consts  --      0.9506                 1.1109                 1.1778
 IR Inten    --      4.5345                 8.3439                 5.5990

                     37                     38                     39
                      A                      A                      A
 Frequencies --   1068.5479              1076.7239              1090.6096
 Red. masses --      1.6498                 2.2685                 2.8128
 Frc consts  --      1.1099                 1.5495                 1.9712
 IR Inten    --      2.4871                13.5574                79.3555

                     40                     41                     42
                      A                      A                      A
 Frequencies --   1099.0010              1120.2623              1153.9531
 Red. masses --      2.2769                 1.7788                 2.3643
 Frc consts  --      1.6203                 1.3153                 1.8550
 IR Inten    --      1.8613                 4.2311                 6.4515

                     43                     44                     45
                      A                      A                      A
 Frequencies --   1162.7225              1178.8460              1199.3907
 Red. masses --      1.5367                 1.5132                 2.0052
 Frc consts  --      1.2240                 1.2390                 1.6995
 IR Inten    --      5.8960                 0.2135                 7.8504

                     46                     47                     48
                      A                      A                      A
 Frequencies --   1208.2650              1230.6681              1244.2136
 Red. masses --      1.7166                 1.3087                 1.2184
 Frc consts  --      1.4765                 1.1678                 1.1113
 IR Inten    --     19.6739                 1.5086                 0.6658

                     49                     50                     51
                      A                      A                      A
 Frequencies --   1261.4380              1305.5572              1323.7686
 Red. masses --      1.3635                 1.2664                 1.4907
 Frc consts  --      1.2783                 1.2718                 1.5391
 IR Inten    --     19.8047                 0.6243                12.0778

                     52                     53                     54
                      A                      A                      A
 Frequencies --   1328.4841              1351.1343              1357.8303
 Red. masses --      1.3793                 1.4621                 1.3023
 Frc consts  --      1.4342                 1.5727                 1.4146
 IR Inten    --     10.9672                14.5377                 1.7723

                     55                     56                     57
                      A                      A                      A
 Frequencies --   1377.0529              1384.2898              1386.4496
 Red. masses --      1.4851                 1.5108                 1.4016
 Frc consts  --      1.6592                 1.7058                 1.5873
 IR Inten    --      0.5750                 1.1340                 2.2587

                     58                     59                     60
                      A                      A                      A
 Frequencies --   1400.5524              1411.4194              1421.1373
 Red. masses --      1.4619                 1.3741                 1.5084
 Frc consts  --      1.6895                 1.6128                 1.7949
 IR Inten    --      1.4341                 0.8755                22.5174

                     61                     62                     63
                      A                      A                      A
 Frequencies --   1428.8518              1442.9101              1446.0575
 Red. masses --      1.4905                 1.2960                 1.2850
 Frc consts  --      1.7929                 1.5898                 1.5832
 IR Inten    --      2.3161                 3.2178                10.2917

                     64                     65                     66
                      A                      A                      A
 Frequencies --   1458.9507              1504.4674              1513.9236
 Red. masses --      1.6031                 1.0856                 1.0805
 Frc consts  --      2.0105                 1.4477                 1.4591
 IR Inten    --      6.1144                 0.1780                 2.3626

                     67                     68                     69
                      A                      A                      A
 Frequencies --   1517.6633              1527.2301              1531.0591
 Red. masses --      1.0807                 1.0701                 1.0664
 Frc consts  --      1.4665                 1.4705                 1.4728
 IR Inten    --      5.9732                 1.4436                 2.4090

                     70                     71                     72
                      A                      A                      A
 Frequencies --   1539.6419              1542.2137              1550.5243
 Red. masses --      1.0574                 1.0761                 1.0549
 Frc consts  --      1.4768                 1.5079                 1.4942
 IR Inten    --      0.8881                 3.2411                 6.8076

                     73                     74                     75
                      A                      A                      A
 Frequencies --   1741.0264              2954.4156              2978.1107
 Red. masses --      6.6409                 1.0827                 1.0821
 Frc consts  --     11.8600                 5.5681                 5.6547
 IR Inten    --      3.0073                43.9382                13.0510

                     76                     77                     78
                      A                      A                      A
 Frequencies --   2995.5490              3002.1071              3020.8008
 Red. masses --      1.0821                 1.0679                 1.0642
 Frc consts  --      5.7208                 5.6705                 5.7218
 IR Inten    --     38.4472                30.8836                44.9742

                     79                     80                     81
                      A                      A                      A
 Frequencies --   3029.6909              3043.1811              3051.6894
 Red. masses --      1.0649                 1.0925                 1.0533
 Frc consts  --      5.7593                 5.9610                 5.7795
 IR Inten    --     64.2835                16.3169                28.1488

                     82                     83                     84
                      A                      A                      A
 Frequencies --   3054.3552              3059.8372              3064.3929
 Red. masses --      1.0523                 1.0435                 1.0937
 Frc consts  --      5.7842                 5.7564                 6.0513
 IR Inten    --      3.3255                45.1927                38.3398

                     85                     86                     87
                      A                      A                      A
 Frequencies --   3082.5202              3095.8234              3117.0269
 Red. masses --      1.0980                 1.1017                 1.0970
 Frc consts  --      6.1471                 6.2214                 6.2795
 IR Inten    --     39.4882                49.2073                29.2541

                     88                     89                     90
                      A                      A                      A
 Frequencies --   3120.6029              3141.8863              3143.4999
 Red. masses --      1.0960                 1.0843                 1.1018
 Frc consts  --      6.2884                 6.3066                 6.4147
 IR Inten    --     36.2535                12.0004                21.8118

                     91                     92                     93
                      A                      A                      A
 Frequencies --   3154.0237              3167.4765              3735.7505
 Red. masses --      1.0991                 1.0961                 1.0660
 Frc consts  --      6.4421                 6.4790                 8.7655
 IR Inten    --     22.7912                59.9531                 6.1701

 - Thermochemistry -
 -------------------
 Temperature   298.150 Kelvin.  Pressure   1.00000 Atm.
 Atom     1 has atomic number  6 and mass  12.00000

 Molecular mass:   180.15142 amu.
 Principal axes and moments of inertia in atomic units:
                           1         2         3
     Eigenvalues --  1397.270342830.020253563.17108
           X            0.99970  -0.02393  -0.00523
           Y            0.02398   0.99968   0.00811
           Z            0.00504  -0.00823   0.99995
 This molecule is an asymmetric top.
 Rotational symmetry number  1.
 Warning -- assumption of classical behavior for rotation
           may cause significant error
 Rotational temperatures (Kelvin)      0.06199     0.03061     0.02431
 Rotational constants (GHZ):           1.29162     0.63771     0.50650
 Zero-point vibrational energy     794132.9 (Joules/Mol)
                                  189.80232 (Kcal/Mol)
 Warning -- explicit consideration of  21 degrees of freedom as
           vibrations may cause significant error
 Vibrational temperatures:    134.96   184.46   226.02   296.89   333.80
          (Kelvin)            358.50   385.46   398.63   429.31   442.85
                              461.17   490.30   546.21   560.93   614.99
                              682.78   694.34   715.34   763.41   850.75
                              884.37   993.17  1058.75  1145.29  1176.34
                             1212.20  1287.04  1311.60  1334.29  1373.60
                             1396.58  1426.57  1438.14  1453.58  1473.12
                             1490.21  1537.40  1549.17  1569.14  1581.22
                             1611.81  1660.28  1672.90  1696.10  1725.66
                             1738.42  1770.66  1790.15  1814.93  1878.41
                             1904.61  1911.39  1943.98  1953.62  1981.27
                             1991.68  1994.79  2015.08  2030.72  2044.70
                             2055.80  2076.03  2080.55  2099.10  2164.59
                             2178.20  2183.58  2197.34  2202.85  2215.20
                             2218.90  2230.86  2504.95  4250.75  4284.84
                             4309.93  4319.36  4346.26  4359.05  4378.46
                             4390.70  4394.54  4402.42  4408.98  4435.06
                             4454.20  4484.71  4489.85  4520.47  4522.80
                             4537.94  4557.29  5374.91

 Zero-point correction=                           0.302469 (Hartree/Particle)
 Thermal correction to Energy=                    0.314853
 Thermal correction to Enthalpy=                  0.315797
 Thermal correction to Gibbs Free Energy=         0.265662
 Sum of electronic and zero-point Energies=           -544.293084
 Sum of electronic and thermal Energies=              -544.280701
 Sum of electronic and thermal Enthalpies=            -544.279757
 Sum of electronic and thermal Free Energies=         -544.329892

                     E (Thermal)             CV                S
                      KCal/Mol        Cal/Mol-Kelvin    Cal/Mol-Kelvin
 Total                  197.573             51.536            105.518
 Electronic               0.000              0.000              0.000
 Translational            0.889              2.981             41.473
 Rotational               0.889              2.981             31.022
 Vibrational            195.796             45.575             33.023
 Vibration     1          0.603              1.954              3.579
 Vibration     2          0.611              1.925              2.973
 Vibration     3          0.621              1.895              2.585
 Vibration     4          0.641              1.831              2.076
 Vibration     5          0.653              1.792              1.863
 Vibration     6          0.662              1.764              1.736
 Vibration     7          0.673              1.732              1.610
 Vibration     8          0.678              1.716              1.552
 Vibration     9          0.691              1.677              1.426
 Vibration    10          0.698              1.659              1.374
 Vibration    11          0.706              1.634              1.307
 Vibration    12          0.720              1.594              1.209
 Vibration    13          0.750              1.514              1.041
 Vibration    14          0.758              1.492              1.001
 Vibration    15          0.789              1.411              0.867
 Vibration    16          0.831              1.306              0.725
 Vibration    17          0.839              1.289              0.703
 Vibration    18          0.853              1.256              0.665
 Vibration    19          0.886              1.182              0.586
 Vibration    20          0.949              1.050              0.465
 Vibration    21          0.974              1.001              0.425

 Optimization completed.
    -- Stationary point found.
 Normal termination of Gaussian 16 at Mon Dec 14 13:17:38 2020.

 ----------------------------------------------------------------------
 # B3LYP/6-311++G(d,p) empiricaldispersion=gd3bj scf=xqc pop=npa geom=c
 heck
 ----------------------------------------------------------------------

 ---------------------------------------
 CID_130144194_JID_3497_Energie_neutraal
 ---------------------------------------
 Structure from the checkpoint file:  "JID_3497.chk"
 Charge =  0 Multiplicity = 1

 SCF Done:  E(RB3LYP) =  -544.753692224     A.U. after   14 cycles
 Normal termination of Gaussian 16 at Mon Dec 14 13:21:32 2020.

 ----------------------------------------------------------------------
 # B3LYP/6-311++G(d,p) empiricaldispersion=gd3bj scf=xqc pop=npa geom=c
 heck
 ----------------------------------------------------------------------

 -------------------------------------
 CID_130144194_JID_3497_Energie_kation
 -------------------------------------
 Structure from the checkpoint file:  "JID_3497.chk"
 Charge =  1 Multiplicity = 2

 SCF Done:  E(UB3LYP) =  -544.435554738     A.U. after   27 cycles
 Normal termination of Gaussian 16 at Mon Dec 14 13:31:21 2020.
 Gaussian 16:  ES64L-G16RevA.03 25-Dec-2016

 ----------------------------------------------------------------------
 # B3LYP/6-311++G(d,p) empiricaldispersion=gd3bj scf=xqc pop=npa geom=c
 heck
 ----------------------------------------------------------------------

 ------------------------------------
 CID_130144194_JID_3497_Energie_anion
 ------------------------------------
 Structure from the checkpoint file:  "JID_3497.chk"
 Charge = -1 Multiplicity = 2

                         Standard orientation:
 ---------------------------------------------------------------------
 Center     Atomic      Atomic             Coordinates (Angstroms)
 Number     Number       Type             X           Y           Z
 ---------------------------------------------------------------------
      1          6           0       -1.481034    2.258664    0.793621
      2          6           0       -1.446226    1.316959   -0.427815
      3          6           0       -2.717017    0.508803   -0.511067
      4          6           0       -2.765685   -0.825440   -0.501821
      5          6           0       -1.544757   -1.701263   -0.401498
      6          6           0       -0.318415   -0.961364    0.173881
      7          6           0       -0.195259    0.407939   -0.555176
      8          6           0        1.108845    1.141209   -0.210685
      9          6           0        2.336144    0.286442   -0.504980
     10          6           0        2.249352   -1.053883    0.227968
     11          6           0        0.951891   -1.786409   -0.131966
     12          8           0        3.479155    1.043455   -0.109017
     13          6           0       -0.498442   -0.827394    1.698739
     14          1           0       -1.474239    1.711295    1.739117
     15          1           0       -2.395560    2.862594    0.768187
     16          1           0       -0.631052    2.947812    0.792077
     17          1           0       -1.427531    1.980253   -1.307793
     18          1           0       -3.643452    1.079068   -0.578671
     19          1           0       -3.729499   -1.326470   -0.580258
     20          1           0       -1.300207   -2.096060   -1.400411
     21          1           0       -1.765777   -2.583053    0.216186
     22          1           0       -0.137557    0.147638   -1.624088
     23          1           0        1.139303    1.416893    0.849456
     24          1           0        1.178335    2.076961   -0.779039
     25          1           0        2.374002    0.088717   -1.591534
     26          1           0        3.116724   -1.678726   -0.029335
     27          1           0        2.306213   -0.861668    1.306401
     28          1           0        0.967404   -2.020682   -1.206303
     29          1           0        0.899299   -2.748707    0.393621
     30          1           0        4.260802    0.490229   -0.263394
     31          1           0        0.239145   -0.161128    2.154661
     32          1           0       -1.493138   -0.447586    1.944708
     33          1           0       -0.392842   -1.810604    2.173337
 ---------------------------------------------------------------------

 SCF Done:  E(UB3LYP) =  -544.738919765     A.U. after   33 cycles
 SCF Done:  E(UB3LYP) =  -544.738919765     a.u. after    1 cycles

 The electronic state is 2-A.
 Alpha  occ. eigenvalues --  -19.01720 -10.11300 -10.08064 -10.07869 -10.07159
 Alpha  occ. eigenvalues --  -10.06693 -10.06658 -10.06442 -10.06263 -10.06238
 Alpha  occ. eigenvalues --  -10.05995 -10.05972 -10.05683  -0.91878  -0.75988
 Alpha  occ. eigenvalues --   -0.70285  -0.68212  -0.64180  -0.62940  -0.58507
 Alpha  occ. eigenvalues --   -0.57734  -0.52587  -0.49965  -0.48357  -0.44429
 Alpha  occ. eigenvalues --   -0.41619  -0.39237  -0.38598  -0.37406  -0.35276
 Alpha  occ. eigenvalues --   -0.34517  -0.33558  -0.32902  -0.30978  -0.30349
 Alpha  occ. eigenvalues --   -0.29174  -0.28761  -0.27841  -0.27251  -0.26700
 Alpha  occ. eigenvalues --   -0.25925  -0.25108  -0.24738  -0.23359  -0.22416
 Alpha  occ. eigenvalues --   -0.21144  -0.19684  -0.18652  -0.16967  -0.14687
 Alpha  occ. eigenvalues --    0.04446
 Alpha virt. eigenvalues --    0.06156   0.07104   0.07648   0.08336   0.08994
 Alpha virt. eigenvalues --    0.09606   0.09831   0.10226   0.10789   0.11320
 Alpha virt. eigenvalues --    0.11660   0.12405   0.12819   0.13100   0.13305

  Beta  occ. eigenvalues --  -19.01693 -10.11285 -10.08066 -10.07861 -10.07150
  Beta  occ. eigenvalues --  -10.06678 -10.06645 -10.06431 -10.06249 -10.06219
  Beta  occ. eigenvalues --  -10.05988 -10.05947 -10.05665  -0.91822  -0.75967
  Beta  occ. eigenvalues --   -0.70252  -0.68187  -0.64143  -0.62909  -0.58470
  Beta  occ. eigenvalues --   -0.57696  -0.52541  -0.49917  -0.48316  -0.44385
  Beta  occ. eigenvalues --   -0.41555  -0.39196  -0.38545  -0.37369  -0.35238
  Beta  occ. eigenvalues --   -0.34496  -0.33529  -0.32870  -0.30945  -0.30323
  Beta  occ. eigenvalues --   -0.29144  -0.28735  -0.27816  -0.27220  -0.26670
  Beta  occ. eigenvalues --   -0.25895  -0.25081  -0.24708  -0.23323  -0.22388
  Beta  occ. eigenvalues --   -0.21119  -0.19652  -0.18621  -0.16931  -0.14666
  Beta virt. eigenvalues --    0.06579   0.07512   0.07710   0.07998   0.09046
  Beta virt. eigenvalues --    0.09593   0.09937   0.10074   0.10545   0.11142
  Beta virt. eigenvalues --    0.11649   0.12132   0.12660   0.13155   0.13290

 Mulliken charges and spin densities:
               1          2
     1  C   -0.258644  -0.383374
     2  C    0.408383  -0.364563
     3  C    0.102234  -0.409315
     4  C    0.654584  -0.869298
     5  C    0.045769  -0.626724
     6  C   -0.645250   1.496364
     7  C   -0.508346   0.514196
     8  C    0.631200  -1.055823
     9  C    0.804200  -1.366441
    10  C   -0.772732   0.425277
    11  C    0.892352  -1.115454
    12  O   -0.201392   0.030140
    13  C   -0.054930  -0.792300
    14  H    0.055685   0.090141
    15  H   -0.200087   0.345430
    16  H    0.068712   0.078902
    17  H   -0.088255   0.271633
    18  H   -0.362300   0.535774
    19  H   -0.613839   0.793185
    20  H   -0.167504   0.312361
    21  H   -0.041570   0.204647
    22  H   -0.084363   0.304900
    23  H    0.191304   0.009963
    24  H    0.097201   0.078199
    25  H   -0.110699   0.280986
    26  H   -0.953386   1.146206
    27  H    0.179722  -0.014139
    28  H   -0.101025   0.254397
    29  H   -0.117176   0.282639
    30  H   -0.118541   0.359046
    31  H    0.071308   0.070720
    32  H    0.259375  -0.102949
    33  H   -0.061990   0.215274
 Sum of Mulliken charges =  -1.00000   1.00000

 Dipole moment (field-independent basis, Debye):
    X=             -1.5264    Y=              1.7297    Z=              2.5434  Tot=              3.4338
 Quadrupole moment (field-independent basis, Debye-Ang):
   XX=           -163.3995   YY=           -127.1626   ZZ=           -113.9718
   XY=              4.5289   XZ=              0.6583   YZ=             -1.5122

 Summary of Natural Population Analysis:

                                       Natural Population
                Natural  -----------------------------------------------
    Atom  No    Charge         Core      Valence    Rydberg      Total
 -----------------------------------------------------------------------
      C    1   -0.28309      0.99964     2.27773    0.00572     3.28309
      C    2   -0.12481      0.99957     2.11322    0.01201     3.12481
      C    3   -0.09082      0.99951     2.08004    0.01127     3.09082
      C    4   -0.08905      0.99952     2.07907    0.01045     3.08905
      C    5   -0.20503      0.99957     2.19414    0.01131     3.20503
      C    6   -0.03368      0.99954     2.02063    0.01351     3.03368
      C    7   -0.10217      0.99954     2.09048    0.01215     3.10217
      C    8   -0.19658      0.99959     2.18662    0.01038     3.19658
      C    9    0.06914      0.99952     1.91838    0.01295     2.93086
      C   10   -0.20079      0.99960     2.19077    0.01042     3.20079
      C   11   -0.18647      0.99958     2.17575    0.01113     3.18647
      O   12   -0.37365      0.99989     3.36773    0.00602     4.37365
      C   13   -0.29170      0.99962     2.28510    0.00698     3.29170
      H   14    0.09818      0.00000     0.40090    0.00092     0.40182
      H   15    0.09888      0.00000     0.40021    0.00091     0.40112
      H   16    0.09917      0.00000     0.40004    0.00079     0.40083
      H   17    0.10106      0.00000     0.39740    0.00155     0.39894
      H   18    0.09708      0.00000     0.40165    0.00127     0.40292
      H   19    0.09745      0.00000     0.40128    0.00128     0.40255
      H   20    0.10573      0.00000     0.39297    0.00131     0.39427
      H   21    0.10251      0.00000     0.39621    0.00128     0.39749
      H   22    0.10079      0.00000     0.39704    0.00216     0.39921
      H   23    0.09929      0.00000     0.39920    0.00151     0.40071
      H   24    0.10328      0.00000     0.39568    0.00104     0.39672
      H   25    0.07459      0.00000     0.42311    0.00230     0.42541
      H   26    0.10213      0.00000     0.39512    0.00275     0.39787
      H   27    0.09643      0.00000     0.40215    0.00142     0.40357
      H   28    0.09872      0.00000     0.39955    0.00172     0.40128
      H   29    0.10046      0.00000     0.39842    0.00113     0.39954
      H   30    0.23036      0.00000     0.26552    0.00412     0.26964
      H   31    0.09961      0.00000     0.39953    0.00086     0.40039
      H   32    0.10353      0.00000     0.39559    0.00089     0.39647
      H   33    0.09947      0.00000     0.39971    0.00082     0.40053
 =======================================================================
   * Total *   -0.00000     12.99470    36.84095    0.16435    50.00000

 Normal termination of Gaussian 16 at Mon Dec 14 13:43:13 2020.
