 Gaussian 16, Revision A.03,

 -----------------------------------------------------------
 # opt freq B3LYP/6-31G(d) empiricaldispersion=gd3bj scf=xqc
 -----------------------------------------------------------

 -----------------------------
 CID_1540269_JID_4861_neutraal
 -----------------------------
 Symbolic Z-matrix:
 Charge =  0 Multiplicity = 1

 SCF Done:  E(RB3LYP) =  -612.380729019     A.U. after   15 cycles
 SCF Done:  E(RB3LYP) =  -612.384982685     A.U. after   12 cycles
 SCF Done:  E(RB3LYP) =  -612.385625530     A.U. after   11 cycles
 SCF Done:  E(RB3LYP) =  -612.385967819     A.U. after   11 cycles
 SCF Done:  E(RB3LYP) =  -612.386259606     A.U. after   11 cycles
 SCF Done:  E(RB3LYP) =  -612.386418359     A.U. after   11 cycles
 SCF Done:  E(RB3LYP) =  -612.386529347     A.U. after   11 cycles
 SCF Done:  E(RB3LYP) =  -612.386585139     A.U. after   11 cycles
 SCF Done:  E(RB3LYP) =  -612.386595621     A.U. after    9 cycles
 SCF Done:  E(RB3LYP) =  -612.386600429     A.U. after    9 cycles
 SCF Done:  E(RB3LYP) =  -612.386602872     A.U. after    9 cycles
 SCF Done:  E(RB3LYP) =  -612.386603376     A.U. after    9 cycles
 SCF Done:  E(RB3LYP) =  -612.386603913     A.U. after    9 cycles
 SCF Done:  E(RB3LYP) =  -612.386603969     A.U. after    7 cycles
 Optimization completed.
    -- Stationary point found.
 Normal termination of Gaussian 16 at Thu Dec 10 10:43:11 2020.

 --------------------------------------------------------------------
 #N Geom=AllCheck Guess=TCheck SCRF=Check GenChk RB3LYP/6-31G(d) Freq
 --------------------------------------------------------------------

 Structure from the checkpoint file:  "JID_4861.chk"
 -----------------------------
 CID_1540269_JID_4861_neutraal
 -----------------------------
 Charge =  0 Multiplicity = 1

 SCF Done:  E(RB3LYP) =  -612.386603969     A.U. after    1 cycles

  Exact polarizability: 174.942  -2.596 130.012  -6.869 -12.092  76.914
 Approx polarizability: 260.748  -1.343 208.632 -14.983 -30.028 118.900

                      1                      2                      3
                      A                      A                      A
 Frequencies --     48.5323                59.7769                61.4794
 Red. masses --      2.6726                 3.6530                 3.2678
 Frc consts  --      0.0037                 0.0077                 0.0073
 IR Inten    --      0.2234                 0.3633                 0.1625

                      4                      5                      6
                      A                      A                      A
 Frequencies --    117.2883               134.7970               162.1068
 Red. masses --      2.2571                 2.0938                 3.2646
 Frc consts  --      0.0183                 0.0224                 0.0505
 IR Inten    --      1.4932                 4.8394                 0.7179

                      7                      8                      9
                      A                      A                      A
 Frequencies --    203.5217               224.4383               226.2548
 Red. masses --      1.5072                 2.5229                 1.4239
 Frc consts  --      0.0368                 0.0749                 0.0429
 IR Inten    --      2.5048                 1.7301                 0.4433

                     10                     11                     12
                      A                      A                      A
 Frequencies --    281.1271               315.7732               344.7482
 Red. masses --      3.4810                 3.5123                 3.7954
 Frc consts  --      0.1621                 0.2063                 0.2658
 IR Inten    --      4.8076                 2.1566                 3.5015

                     13                     14                     15
                      A                      A                      A
 Frequencies --    384.8958               439.4544               476.4048
 Red. masses --      2.6808                 3.0205                 3.6465
 Frc consts  --      0.2340                 0.3437                 0.4876
 IR Inten    --      1.2334                 2.0792                 2.9320

                     16                     17                     18
                      A                      A                      A
 Frequencies --    497.9449               586.9598               600.0500
 Red. masses --      4.7378                 4.2002                 4.1447
 Frc consts  --      0.6921                 0.8526                 0.8793
 IR Inten    --      1.0334                 1.1693                 0.5310

                     19                     20                     21
                      A                      A                      A
 Frequencies --    630.2216               659.7347               687.3889
 Red. masses --      5.4458                 4.5688                 4.1844
 Frc consts  --      1.2744                 1.1716                 1.1649
 IR Inten    --      8.0808                 0.8788                13.1440

                     22                     23                     24
                      A                      A                      A
 Frequencies --    753.6195               774.0829               788.6301
 Red. masses --      1.3785                 3.6948                 4.5245
 Frc consts  --      0.4613                 1.3044                 1.6579
 IR Inten    --     48.3008                 5.1124                29.3736

                     25                     26                     27
                      A                      A                      A
 Frequencies --    819.5743               857.7219               869.5573
 Red. masses --      1.3402                 1.4591                 3.6114
 Frc consts  --      0.5304                 0.6325                 1.6089
 IR Inten    --      8.0670                 0.6161                 6.4889

                     28                     29                     30
                      A                      A                      A
 Frequencies --    909.8175               925.7999               946.9398
 Red. masses --      5.7265                 1.3528                 4.4155
 Frc consts  --      2.7928                 0.6832                 2.3328
 IR Inten    --      1.0574                 1.3483                34.0725

                     31                     32                     33
                      A                      A                      A
 Frequencies --    970.3479              1013.1969              1041.1172
 Red. masses --      1.2345                 2.0378                 2.0493
 Frc consts  --      0.6849                 1.2325                 1.3088
 IR Inten    --      0.1353                 2.2011                 4.9437

                     34                     35                     36
                      A                      A                      A
 Frequencies --   1084.0064              1106.3401              1123.9513
 Red. masses --      2.0682                 2.2669                 1.5679
 Frc consts  --      1.4319                 1.6348                 1.1670
 IR Inten    --     59.6779                 6.3081                 1.5155

                     37                     38                     39
                      A                      A                      A
 Frequencies --   1133.4959              1155.0885              1180.2453
 Red. masses --      2.4265                 2.3161                 1.9848
 Frc consts  --      1.8368                 1.8207                 1.6289
 IR Inten    --     27.0900                74.8945                38.5401

                     40                     41                     42
                      A                      A                      A
 Frequencies --   1188.5728              1190.4625              1221.9586
 Red. masses --      1.3738                 1.3678                 1.6080
 Frc consts  --      1.1435                 1.1421                 1.4146
 IR Inten    --     19.9259                14.9158                34.5085

                     43                     44                     45
                      A                      A                      A
 Frequencies --   1263.5120              1300.0857              1306.1826
 Red. masses --      2.4480                 1.9233                 1.4209
 Frc consts  --      2.3026                 1.9153                 1.4283
 IR Inten    --     11.3790                47.5406                35.9637

                     46                     47                     48
                      A                      A                      A
 Frequencies --   1329.6688              1346.7317              1375.2687
 Red. masses --      1.4411                 2.1507                 3.7303
 Frc consts  --      1.5011                 2.2983                 4.1569
 IR Inten    --      4.7822                64.0948                24.5123

                     49                     50                     51
                      A                      A                      A
 Frequencies --   1420.1754              1424.9665              1443.5914
 Red. masses --      2.4824                 1.6406                 1.2369
 Frc consts  --      2.9498                 1.9627                 1.5187
 IR Inten    --      5.6371                76.3738                 2.7980

                     52                     53                     54
                      A                      A                      A
 Frequencies --   1456.6665              1497.9106              1502.2503
 Red. masses --      1.6775                 2.5801                 1.1605
 Frc consts  --      2.0971                 3.4108                 1.5430
 IR Inten    --     12.3031                58.1988                 3.4621

                     55                     56                     57
                      A                      A                      A
 Frequencies --   1511.1070              1517.4353              1521.7063
 Red. masses --      1.1244                 1.0620                 1.0399
 Frc consts  --      1.5128                 1.4408                 1.4187
 IR Inten    --      4.1049                 3.9630                 4.8491

                     58                     59                     60
                      A                      A                      A
 Frequencies --   1524.3387              1530.7007              1532.5461
 Red. masses --      1.1056                 2.2995                 1.1656
 Frc consts  --      1.5136                 3.1744                 1.6130
 IR Inten    --      7.0297                 3.7048                 3.4522

                     61                     62                     63
                      A                      A                      A
 Frequencies --   1536.5676              1590.0848              1644.5149
 Red. masses --      1.0627                 6.8943                 6.5363
 Frc consts  --      1.4782                10.2703                10.4149
 IR Inten    --     10.5564                54.5550                 0.1517

                     64                     65                     66
                      A                      A                      A
 Frequencies --   1676.9140              3014.7617              3020.9142
 Red. masses --      7.1125                 1.0422                 1.0688
 Frc consts  --     11.7840                 5.5810                 5.7469
 IR Inten    --     14.2557                35.8531                22.2550

                     67                     68                     69
                      A                      A                      A
 Frequencies --   3044.2053              3068.9024              3069.5830
 Red. masses --      1.0672                 1.0414                 1.0860
 Frc consts  --      5.8272                 5.7786                 6.0288
 IR Inten    --     45.2568                29.2615                 8.6581

                     70                     71                     72
                      A                      A                      A
 Frequencies --   3085.7692              3136.6798              3138.5323
 Red. masses --      1.0967                 1.0986                 1.1023
 Frc consts  --      6.1529                 6.3683                 6.3972
 IR Inten    --     31.0171                13.4611                38.0591

                     73                     74                     75
                      A                      A                      A
 Frequencies --   3149.5784              3156.3997              3185.9240
 Red. masses --      1.1028                 1.1006                 1.0853
 Frc consts  --      6.4456                 6.4602                 6.4907
 IR Inten    --     19.1846                30.1236                 0.1909

                     76                     77                     78
                      A                      A                      A
 Frequencies --   3196.0827              3207.7885              3218.4578
 Red. masses --      1.0895                 1.0941                 1.0955
 Frc consts  --      6.5573                 6.6329                 6.6860
 IR Inten    --     16.2307                27.9254                16.7018

 - Thermochemistry -
 -------------------
 Temperature   298.150 Kelvin.  Pressure   1.00000 Atm.
 Atom     1 has atomic number  6 and mass  12.00000

 Molecular mass:   190.11061 amu.
 Principal axes and moments of inertia in atomic units:
                           1         2         3
     Eigenvalues --  1876.308943018.462704468.19192
           X            0.99888  -0.04724  -0.00066
           Y            0.04724   0.99888   0.00132
           Z            0.00060  -0.00135   1.00000
 This molecule is an asymmetric top.
 Rotational symmetry number  1.
 Warning -- assumption of classical behavior for rotation
           may cause significant error
 Rotational temperatures (Kelvin)      0.04616     0.02869     0.01938
 Rotational constants (GHZ):           0.96186     0.59790     0.40391
 Zero-point vibrational energy     622919.0 (Joules/Mol)
                                  148.88122 (Kcal/Mol)
 Warning -- explicit consideration of  18 degrees of freedom as
           vibrations may cause significant error
 Vibrational temperatures:     69.83    86.01    88.46   168.75   193.94
          (Kelvin)            233.24   292.82   322.92   325.53   404.48
                              454.33   496.02   553.78   632.28   685.44
                              716.43   844.50   863.34   906.75   949.21
                              989.00  1084.29  1113.73  1134.66  1179.18
                             1234.07  1251.10  1309.02  1332.02  1362.44
                             1396.11  1457.76  1497.94  1559.64  1591.78
                             1617.12  1630.85  1661.91  1698.11  1710.09
                             1712.81  1758.13  1817.91  1870.53  1879.31
                             1913.10  1937.65  1978.70  2043.32  2050.21
                             2077.01  2095.82  2155.16  2161.40  2174.15
                             2183.25  2189.40  2193.18  2202.34  2204.99
                             2210.78  2287.78  2366.09  2412.71  4337.57
                             4346.42  4379.93  4415.47  4416.45  4439.73
                             4512.98  4515.65  4531.54  4541.36  4583.83
                             4598.45  4615.29  4630.64

 Zero-point correction=                           0.237257 (Hartree/Particle)
 Thermal correction to Energy=                    0.250177
 Thermal correction to Enthalpy=                  0.251121
 Thermal correction to Gibbs Free Energy=         0.197243
 Sum of electronic and zero-point Energies=           -612.149347
 Sum of electronic and thermal Energies=              -612.136427
 Sum of electronic and thermal Enthalpies=            -612.135483
 Sum of electronic and thermal Free Energies=         -612.189361

                     E (Thermal)             CV                S
                      KCal/Mol        Cal/Mol-Kelvin    Cal/Mol-Kelvin
 Total                  156.988             48.719            113.395
 Electronic               0.000              0.000              0.000
 Translational            0.889              2.981             41.633
 Rotational               0.889              2.981             31.604
 Vibrational            155.211             42.757             40.158
 Vibration     1          0.595              1.978              4.876
 Vibration     2          0.597              1.973              4.465
 Vibration     3          0.597              1.973              4.409
 Vibration     4          0.608              1.935              3.145
 Vibration     5          0.613              1.919              2.876
 Vibration     6          0.622              1.889              2.525
 Vibration     7          0.639              1.835              2.101
 Vibration     8          0.649              1.804              1.923
 Vibration     9          0.650              1.801              1.908
 Vibration    10          0.681              1.709              1.527
 Vibration    11          0.703              1.644              1.332
 Vibration    12          0.723              1.586              1.190
 Vibration    13          0.754              1.502              1.020
 Vibration    14          0.799              1.384              0.828
 Vibration    15          0.833              1.302              0.720
 Vibration    16          0.853              1.255              0.663
 Vibration    17          0.944              1.060              0.473
 Vibration    18          0.958              1.032              0.450

 Optimization completed.
    -- Stationary point found.
 Normal termination of Gaussian 16 at Thu Dec 10 10:50:46 2020.

 ----------------------------------------------------------------------
 # B3LYP/6-311++G(d,p) empiricaldispersion=gd3bj scf=xqc pop=npa geom=c
 heck
 ----------------------------------------------------------------------

 -------------------------------------
 CID_1540269_JID_4861_Energie_neutraal
 -------------------------------------
 Structure from the checkpoint file:  "JID_4861.chk"
 Charge =  0 Multiplicity = 1

 SCF Done:  E(RB3LYP) =  -612.549493447     A.U. after   15 cycles
 Normal termination of Gaussian 16 at Thu Dec 10 10:53:40 2020.

 ----------------------------------------------------------------------
 # B3LYP/6-311++G(d,p) empiricaldispersion=gd3bj scf=xqc pop=npa geom=c
 heck
 ----------------------------------------------------------------------

 -----------------------------------
 CID_1540269_JID_4861_Energie_kation
 -----------------------------------
 Structure from the checkpoint file:  "JID_4861.chk"
 Charge =  1 Multiplicity = 2

 SCF Done:  E(UB3LYP) =  -612.252397724     A.U. after   33 cycles
 SCF Done:  E(UB3LYP) =  -612.252397724     a.u. after    1 cycles
 Normal termination of Gaussian 16 at Thu Dec 10 11:01:47 2020.
 Gaussian 16:  ES64L-G16RevA.03 25-Dec-2016

 ----------------------------------------------------------------------
 # B3LYP/6-311++G(d,p) empiricaldispersion=gd3bj scf=xqc pop=npa geom=c
 heck
 ----------------------------------------------------------------------

 ----------------------------------
 CID_1540269_JID_4861_Energie_anion
 ----------------------------------
 Structure from the checkpoint file:  "JID_4861.chk"
 Charge = -1 Multiplicity = 2

                         Standard orientation:
 ---------------------------------------------------------------------
 Center     Atomic      Atomic             Coordinates (Angstroms)
 Number     Number       Type             X           Y           Z
 ---------------------------------------------------------------------
      1          6           0        3.017056   -2.349921    0.253450
      2          6           0        2.550984   -0.995251   -0.281173
      3          6           0        1.064984   -0.824311   -0.202443
      4          7           0        0.208418   -1.737697    0.183648
      5          6           0       -1.042882   -1.132861    0.111115
      6          6           0       -2.306514   -1.649215    0.412189
      7          6           0       -3.409635   -0.813116    0.260706
      8          6           0       -3.264793    0.514610   -0.182543
      9          6           0       -2.013603    1.047606   -0.490270
     10          6           0       -0.914679    0.203084   -0.337207
     11          7           0        0.451549    0.378681   -0.549154
     12          6           0        1.128764    1.610410   -0.890174
     13          8           0        1.788152    2.213445    0.194045
     14          6           0        0.907164    2.650017    1.220406
     15          1           0        2.732905   -2.470939    1.302453
     16          1           0        4.105404   -2.434681    0.172260
     17          1           0        2.556358   -3.168681   -0.305295
     18          1           0        3.026577   -0.173708    0.269627
     19          1           0        2.869887   -0.875203   -1.327620
     20          1           0       -2.409224   -2.673934    0.754707
     21          1           0       -4.402620   -1.189178    0.489008
     22          1           0       -4.146384    1.140226   -0.287751
     23          1           0       -1.912148    2.073447   -0.831700
     24          1           0        1.905270    1.406925   -1.630191
     25          1           0        0.380172    2.284278   -1.328500
     26          1           0        0.166137    3.363849    0.829887
     27          1           0        0.375896    1.810081    1.684609
     28          1           0        1.525705    3.146748    1.970343
 ---------------------------------------------------------------------

 SCF Done:  E(UB3LYP) =  -612.535770577     A.U. after   33 cycles
 SCF Done:  E(UB3LYP) =  -612.535770577     a.u. after    1 cycles

 The electronic state is 2-A.
 Alpha  occ. eigenvalues --  -19.04154 -14.26920 -14.20005 -10.16655 -10.14577
 Alpha  occ. eigenvalues --  -10.11558 -10.11406 -10.09942 -10.08704 -10.08241
 Alpha  occ. eigenvalues --  -10.07959 -10.07856 -10.07748 -10.06846  -0.96434
 Alpha  occ. eigenvalues --   -0.91701  -0.79455  -0.75409  -0.69445  -0.65987
 Alpha  occ. eigenvalues --   -0.63720  -0.62666  -0.57148  -0.55915  -0.51074
 Alpha  occ. eigenvalues --   -0.50127  -0.47029  -0.43538  -0.42149  -0.41291
 Alpha  occ. eigenvalues --   -0.38411  -0.37645  -0.36818  -0.35631  -0.34510
 Alpha  occ. eigenvalues --   -0.33215  -0.32691  -0.32607  -0.29869  -0.28862
 Alpha  occ. eigenvalues --   -0.27423  -0.26769  -0.26643  -0.26391  -0.24487
 Alpha  occ. eigenvalues --   -0.23551  -0.21095  -0.18973  -0.17936  -0.13670
 Alpha  occ. eigenvalues --   -0.13333   0.04412
 Alpha virt. eigenvalues --    0.06318   0.06914   0.07112   0.07593   0.08315
 Alpha virt. eigenvalues --    0.08989   0.09565   0.10093   0.10392   0.11000
 Alpha virt. eigenvalues --    0.11282   0.11836   0.12151   0.13278   0.13596

  Beta  occ. eigenvalues --  -19.04144 -14.26920 -14.19997 -10.16618 -10.14575
  Beta  occ. eigenvalues --  -10.11515 -10.11405 -10.09941 -10.08679 -10.08215
  Beta  occ. eigenvalues --  -10.07955 -10.07845 -10.07742 -10.06831  -0.96414
  Beta  occ. eigenvalues --   -0.91692  -0.79443  -0.75390  -0.69414  -0.65956
  Beta  occ. eigenvalues --   -0.63683  -0.62633  -0.57084  -0.55872  -0.51056
  Beta  occ. eigenvalues --   -0.50078  -0.46985  -0.43490  -0.42119  -0.41246
  Beta  occ. eigenvalues --   -0.38371  -0.37614  -0.36785  -0.35602  -0.34476
  Beta  occ. eigenvalues --   -0.33178  -0.32672  -0.32570  -0.29826  -0.28823
  Beta  occ. eigenvalues --   -0.27396  -0.26739  -0.26617  -0.26366  -0.24446
  Beta  occ. eigenvalues --   -0.23515  -0.21078  -0.18945  -0.17902  -0.13650
  Beta  occ. eigenvalues --   -0.13319
  Beta virt. eigenvalues --    0.06657   0.06953   0.07047   0.07810   0.08500
  Beta virt. eigenvalues --    0.08917   0.09397   0.09777   0.10505   0.10728
  Beta virt. eigenvalues --    0.11326   0.11438   0.12365   0.12601   0.13377

 Mulliken charges and spin densities:
               1          2
     1  C    0.278466  -0.985090
     2  C    0.171279  -0.233798
     3  C    0.020852  -0.257819
     4  N   -0.082102   0.077708
     5  C    0.065197   0.045917
     6  C   -0.859883   0.520985
     7  C    0.463070  -0.762045
     8  C    1.271948  -1.574985
     9  C   -0.659835   0.442416
    10  C   -0.141918   0.547648
    11  N    0.160595  -0.009923
    12  C    0.772480  -1.160046
    13  O   -0.158018   0.077548
    14  C    0.782509  -1.111943
    15  H    0.073890   0.084532
    16  H   -0.222866   0.362603
    17  H    0.100093   0.064890
    18  H    0.084386   0.096078
    19  H   -0.276752   0.454690
    20  H    0.063993   0.092993
    21  H    0.021034   0.120677
    22  H   -0.533439   0.710536
    23  H   -0.424560   0.578940
    24  H   -0.596477   0.802942
    25  H   -0.723513   0.887249
    26  H   -0.362143   0.527425
    27  H    0.023958   0.134778
    28  H   -0.312244   0.465094
 Sum of Mulliken charges =  -1.00000   1.00000

 Dipole moment (field-independent basis, Debye):
    X=             -1.0456    Y=             -4.8250    Z=              2.0774  Tot=              5.3562
 Quadrupole moment (field-independent basis, Debye-Ang):
   XX=           -144.0155   YY=           -140.7931   ZZ=           -118.2256
   XY=              6.2119   XZ=              2.2651   YZ=              2.0775

 Summary of Natural Population Analysis:

                                       Natural Population
                Natural  -----------------------------------------------
    Atom  No    Charge         Core      Valence    Rydberg      Total
 -----------------------------------------------------------------------
      C    1   -0.27975      0.99967     2.27547    0.00461     3.27975
      C    2   -0.21906      0.99960     2.21155    0.00792     3.21906
      C    3    0.22945      0.99960     1.75352    0.01743     2.77055
      N    4   -0.26010      0.99967     2.75167    0.00875     3.76010
      C    5    0.05549      0.99945     1.93211    0.01295     2.94451
      C    6   -0.10117      0.99952     2.09327    0.00838     3.10117
      C    7   -0.11480      0.99958     2.10449    0.01074     3.11480
      C    8   -0.10401      0.99958     2.09384    0.01059     3.10401
      C    9   -0.11512      0.99952     2.10596    0.00964     3.11512
      C   10    0.07104      0.99945     1.91763    0.01189     2.92896
      N   11   -0.23125      0.99959     2.72047    0.01118     3.73125
      C   12    0.08184      0.99959     1.90164    0.01693     2.91816
      O   13   -0.29365      0.99989     3.28411    0.00966     4.29365
      C   14   -0.10261      0.99961     2.09404    0.00896     3.10261
      H   15    0.10105      0.00000     0.39777    0.00118     0.39895
      H   16    0.09708      0.00000     0.40198    0.00094     0.40292
      H   17    0.10235      0.00000     0.39634    0.00131     0.39765
      H   18    0.11316      0.00000     0.38510    0.00174     0.38684
      H   19    0.10916      0.00000     0.38883    0.00201     0.39084
      H   20    0.10221      0.00000     0.39653    0.00126     0.39779
      H   21    0.09834      0.00000     0.40091    0.00075     0.40166
      H   22    0.10185      0.00000     0.39691    0.00123     0.39815
      H   23    0.10893      0.00000     0.38855    0.00252     0.39107
      H   24    0.09905      0.00000     0.39815    0.00280     0.40095
      H   25    0.08967      0.00000     0.40747    0.00286     0.41033
      H   26    0.08461      0.00000     0.41307    0.00232     0.41539
      H   27    0.08372      0.00000     0.41486    0.00143     0.41628
      H   28    0.09252      0.00000     0.40618    0.00130     0.40748
 =======================================================================
   * Total *   -0.00000     13.99430    36.83241    0.17328    51.00000

 Normal termination of Gaussian 16 at Thu Dec 10 11:10:04 2020.
