 Gaussian 16, Revision A.03,

 -----------------------------------------------------------
 # opt freq B3LYP/6-31G(d) empiricaldispersion=gd3bj scf=xqc
 -----------------------------------------------------------

 -------------------------------
 CID_144122778_JID_7086_neutraal
 -------------------------------
 Symbolic Z-matrix:
 Charge =  0 Multiplicity = 1

 SCF Done:  E(RB3LYP) =  -723.992764632     A.U. after   15 cycles
 SCF Done:  E(RB3LYP) =  -723.998115071     A.U. after   13 cycles
 SCF Done:  E(RB3LYP) =  -723.999256028     A.U. after   13 cycles
 SCF Done:  E(RB3LYP) =  -723.999702016     A.U. after   13 cycles
 SCF Done:  E(RB3LYP) =  -723.999785800     A.U. after   12 cycles
 SCF Done:  E(RB3LYP) =  -723.999824981     A.U. after   11 cycles
 SCF Done:  E(RB3LYP) =  -723.999837844     A.U. after   10 cycles
 SCF Done:  E(RB3LYP) =  -723.999847804     A.U. after   11 cycles
 SCF Done:  E(RB3LYP) =  -723.999850676     A.U. after   10 cycles
 SCF Done:  E(RB3LYP) =  -723.999851129     A.U. after    8 cycles
 SCF Done:  E(RB3LYP) =  -723.999851327     A.U. after    7 cycles
 SCF Done:  E(RB3LYP) =  -723.999851396     A.U. after    7 cycles
 SCF Done:  E(RB3LYP) =  -723.999851437     A.U. after    7 cycles
 Optimization completed.
    -- Stationary point found.
 Normal termination of Gaussian 16 at Mon Dec 14 16:36:26 2020.

 --------------------------------------------------------------------
 #N Geom=AllCheck Guess=TCheck SCRF=Check GenChk RB3LYP/6-31G(d) Freq
 --------------------------------------------------------------------

 Structure from the checkpoint file:  "JID_7086.chk"
 -------------------------------
 CID_144122778_JID_7086_neutraal
 -------------------------------
 Charge =  0 Multiplicity = 1

 SCF Done:  E(RB3LYP) =  -723.999851437     A.U. after    1 cycles

  Exact polarizability: 238.672  -6.033 176.074 -13.558 -12.283  90.303
 Approx polarizability: 333.788 -24.575 292.419 -24.965 -24.530 141.639

                      1                      2                      3
                      A                      A                      A
 Frequencies --     23.5538                39.7163                85.5437
 Red. masses --      4.3511                 3.5285                 3.3213
 Frc consts  --      0.0014                 0.0033                 0.0143
 IR Inten    --      0.6661                 0.0731                 0.8494

                      4                      5                      6
                      A                      A                      A
 Frequencies --     90.5073               101.6032               109.9605
 Red. masses --      3.3745                 3.1574                 3.8827
 Frc consts  --      0.0163                 0.0192                 0.0277
 IR Inten    --      1.3741                 1.5728                 1.4024

                      7                      8                      9
                      A                      A                      A
 Frequencies --    161.4049               170.7556               202.2270
 Red. masses --      2.6741                 2.7679                 1.6943
 Frc consts  --      0.0410                 0.0475                 0.0408
 IR Inten    --      3.3743                 2.5960                 1.7676

                     10                     11                     12
                      A                      A                      A
 Frequencies --    235.7266               254.7143               267.3986
 Red. masses --      3.4285                 3.5237                 1.8079
 Frc consts  --      0.1122                 0.1347                 0.0762
 IR Inten    --      7.8636                 4.1925                 4.7309

                     13                     14                     15
                      A                      A                      A
 Frequencies --    292.6031               359.8028               384.5895
 Red. masses --      5.6500                 4.2274                 2.9608
 Frc consts  --      0.2850                 0.3224                 0.2580
 IR Inten    --      4.8930                 7.7462                29.4923

                     16                     17                     18
                      A                      A                      A
 Frequencies --    427.4999               443.6613               478.3775
 Red. masses --      3.0199                 2.6801                 3.5032
 Frc consts  --      0.3252                 0.3108                 0.4723
 IR Inten    --     31.3041                21.0348                39.0444

                     19                     20                     21
                      A                      A                      A
 Frequencies --    487.1841               502.1401               526.3166
 Red. masses --      3.2135                 3.4310                 3.2098
 Frc consts  --      0.4494                 0.5097                 0.5239
 IR Inten    --      9.3947                22.0491                12.3516

                     22                     23                     24
                      A                      A                      A
 Frequencies --    603.8641               611.0978               637.5886
 Red. masses --      5.0606                 2.5910                 4.3529
 Frc consts  --      1.0873                 0.5701                 1.0426
 IR Inten    --      2.0358                38.6745                 1.6654

                     25                     26                     27
                      A                      A                      A
 Frequencies --    663.4856               706.5958               722.0915
 Red. masses --      5.6014                 2.1973                 3.9384
 Frc consts  --      1.4528                 0.6464                 1.2099
 IR Inten    --     11.6184                15.2767                 2.3579

                     28                     29                     30
                      A                      A                      A
 Frequencies --    775.5061               801.0346               810.6451
 Red. masses --      2.0967                 1.3985                 1.5242
 Frc consts  --      0.7429                 0.5287                 0.5901
 IR Inten    --      1.6208                26.4945                 1.4442

                     31                     32                     33
                      A                      A                      A
 Frequencies --    846.2157               851.1623               882.1504
 Red. masses --      1.3276                 1.7753                 4.1963
 Frc consts  --      0.5601                 0.7578                 1.9240
 IR Inten    --      4.9694                21.2265                23.3802

                     34                     35                     36
                      A                      A                      A
 Frequencies --    897.0329               921.6418               931.2572
 Red. masses --      1.3831                 1.5312                 2.8310
 Frc consts  --      0.6557                 0.7663                 1.4465
 IR Inten    --      1.0531                 7.6266                18.0357

                     37                     38                     39
                      A                      A                      A
 Frequencies --    973.2199               977.3121               986.7621
 Red. masses --      3.5547                 1.3262                 3.8694
 Frc consts  --      1.9837                 0.7463                 2.2198
 IR Inten    --      6.6769                 0.2975                 8.5299

                     40                     41                     42
                      A                      A                      A
 Frequencies --    997.1222              1013.7644              1047.0549
 Red. masses --      2.8606                 6.0279                 2.7853
 Frc consts  --      1.6758                 3.6500                 1.7991
 IR Inten    --     15.1762                 1.6308                 4.0661

                     43                     44                     45
                      A                      A                      A
 Frequencies --   1068.2703              1079.5761              1092.3028
 Red. masses --      1.3210                 2.1735                 1.3643
 Frc consts  --      0.8882                 1.4925                 0.9591
 IR Inten    --      6.4256                29.2752                 1.5146

                     46                     47                     48
                      A                      A                      A
 Frequencies --   1096.8697              1107.3085              1125.2173
 Red. masses --      2.4191                 1.9879                 1.5044
 Frc consts  --      1.7148                 1.4361                 1.1222
 IR Inten    --      0.8188                 3.6859                 8.9617

                     49                     50                     51
                      A                      A                      A
 Frequencies --   1139.5113              1162.1128              1192.4166
 Red. masses --      1.1808                 1.3324                 1.6371
 Frc consts  --      0.9034                 1.0602                 1.3714
 IR Inten    --      0.8320                14.6665                 8.1951

                     52                     53                     54
                      A                      A                      A
 Frequencies --   1204.9619              1209.5723              1224.3242
 Red. masses --      1.1447                 1.3507                 2.3029
 Frc consts  --      0.9792                 1.1643                 2.0339
 IR Inten    --      2.2536                 0.3589                 6.4805

                     55                     56                     57
                      A                      A                      A
 Frequencies --   1262.7857              1270.4638              1295.0425
 Red. masses --      1.2771                 1.9139                 1.8716
 Frc consts  --      1.1999                 1.8201                 1.8494
 IR Inten    --      2.5806                 4.0723                 1.6749

                     58                     59                     60
                      A                      A                      A
 Frequencies --   1325.4600              1339.6746              1366.5851
 Red. masses --      2.8562                 1.8164                 1.4554
 Frc consts  --      2.9565                 1.9207                 1.6014
 IR Inten    --    102.3578                49.3000                81.0982

                     61                     62                     63
                      A                      A                      A
 Frequencies --   1377.1262              1386.3363              1424.1578
 Red. masses --      2.2637                 4.5000                 1.7931
 Frc consts  --      2.5294                 5.0956                 2.1427
 IR Inten    --     31.4492                 5.1500                90.1013

                     64                     65                     66
                      A                      A                      A
 Frequencies --   1434.0117              1460.4744              1486.3948
 Red. masses --      2.3260                 2.2809                 1.0922
 Frc consts  --      2.8181                 2.8665                 1.4218
 IR Inten    --     41.1046                52.3303                 1.7361

                     67                     68                     69
                      A                      A                      A
 Frequencies --   1495.9680              1513.5894              1523.6295
 Red. masses --      1.3610                 1.0780                 1.7053
 Frc consts  --      1.7945                 1.4551                 2.3324
 IR Inten    --      2.0191                 6.1690                10.8286

                     70                     71                     72
                      A                      A                      A
 Frequencies --   1527.9230              1539.4030              1553.3016
 Red. masses --      1.4028                 1.1719                 1.1213
 Frc consts  --      1.9295                 1.6362                 1.5940
 IR Inten    --     33.0667                15.5005                16.3563

                     73                     74                     75
                      A                      A                      A
 Frequencies --   1566.4621              1609.5900              1643.1665
 Red. masses --      1.9922                 5.6485                 4.5437
 Frc consts  --      2.8803                 8.6221                 7.2281
 IR Inten    --     58.9837                86.9821               169.2192

                     76                     77                     78
                      A                      A                      A
 Frequencies --   1654.3952              1667.7447              2938.2152
 Red. masses --      6.1099                 5.2873                 1.0738
 Frc consts  --      9.8529                 8.6645                 5.4617
 IR Inten    --     44.7418               127.5835                60.7733

                     79                     80                     81
                      A                      A                      A
 Frequencies --   2988.7960              3075.4500              3096.0322
 Red. masses --      1.0554                 1.0841                 1.0868
 Frc consts  --      5.5548                 6.0413                 6.1377
 IR Inten    --     71.2984                38.2844                29.9841

                     82                     83                     84
                      A                      A                      A
 Frequencies --   3101.2115              3138.7950              3157.1456
 Red. masses --      1.0874                 1.0986                 1.0520
 Frc consts  --      6.1619                 6.3768                 6.1783
 IR Inten    --     34.5602                28.4193                 8.8700

                     85                     86                     87
                      A                      A                      A
 Frequencies --   3162.8244              3171.9275              3193.1054
 Red. masses --      1.0579                 1.0875                 1.0911
 Frc consts  --      6.2350                 6.4466                 6.5545
 IR Inten    --      6.0003                14.7910                13.5119

                     88                     89                     90
                      A                      A                      A
 Frequencies --   3195.9241              3229.3394              3237.2597
 Red. masses --      1.0929                 1.0876                 1.1205
 Frc consts  --      6.5769                 6.6823                 6.9183
 IR Inten    --     32.2694                 9.9489                 1.1617

                     91                     92                     93
                      A                      A                      A
 Frequencies --   3244.1665              3249.8875              3600.1429
 Red. masses --      1.0922                 1.1170                 1.0760
 Frc consts  --      6.7726                 6.9508                 8.2168
 IR Inten    --      2.1996                17.9082                12.8451

 - Thermochemistry -
 -------------------
 Temperature   298.150 Kelvin.  Pressure   1.00000 Atm.
 Atom     1 has atomic number  6 and mass  12.00000

 Molecular mass:   228.13750 amu.
 Principal axes and moments of inertia in atomic units:
                           1         2         3
     Eigenvalues --  2283.686636788.584628594.46432
           X            0.99999   0.00461   0.00240
           Y           -0.00458   0.99993  -0.01076
           Z           -0.00245   0.01075   0.99994
 This molecule is an asymmetric top.
 Rotational symmetry number  1.
 Warning -- assumption of classical behavior for rotation
           may cause significant error
 Rotational temperatures (Kelvin)      0.03793     0.01276     0.01008
 Rotational constants (GHZ):           0.79028     0.26585     0.20999
 Zero-point vibrational energy     726780.7 (Joules/Mol)
                                  173.70476 (Kcal/Mol)
 Warning -- explicit consideration of  23 degrees of freedom as
           vibrations may cause significant error
 Vibrational temperatures:     33.89    57.14   123.08   130.22   146.18
          (Kelvin)            158.21   232.23   245.68   290.96   339.16
                              366.48   384.73   420.99   517.68   553.34
                              615.08   638.33   688.28   700.95   722.47
                              757.25   868.83   879.23   917.35   954.61
                             1016.63  1038.93  1115.78  1152.51  1166.34
                             1217.52  1224.63  1269.22  1290.63  1326.04
                             1339.87  1400.25  1406.13  1419.73  1434.64
                             1458.58  1506.48  1537.00  1553.27  1571.58
                             1578.15  1593.17  1618.94  1639.50  1672.02
                             1715.62  1733.67  1740.30  1761.53  1816.87
                             1827.91  1863.28  1907.04  1927.49  1966.21
                             1981.38  1994.63  2049.05  2063.22  2101.30
                             2138.59  2152.36  2177.72  2192.16  2198.34
                             2214.86  2234.85  2253.79  2315.84  2364.15
                             2380.31  2399.51  4227.44  4300.21  4424.89
                             4454.50  4461.95  4516.03  4542.43  4550.60
                             4563.70  4594.17  4598.22  4646.30  4657.69
                             4667.63  4675.86  5179.80

 Zero-point correction=                           0.276816 (Hartree/Particle)
 Thermal correction to Energy=                    0.292161
 Thermal correction to Enthalpy=                  0.293105
 Thermal correction to Gibbs Free Energy=         0.232977
 Sum of electronic and zero-point Energies=           -723.723035
 Sum of electronic and thermal Energies=              -723.707691
 Sum of electronic and thermal Enthalpies=            -723.706747
 Sum of electronic and thermal Free Energies=         -723.766875

                     E (Thermal)             CV                S
                      KCal/Mol        Cal/Mol-Kelvin    Cal/Mol-Kelvin
 Total                  183.334             59.086            126.550
 Electronic               0.000              0.000              0.000
 Translational            0.889              2.981             42.177
 Rotational               0.889              2.981             33.254
 Vibrational            181.556             53.124             51.119
 Vibration     1          0.593              1.985              6.309
 Vibration     2          0.594              1.981              5.273
 Vibration     3          0.601              1.959              3.759
 Vibration     4          0.602              1.956              3.649
 Vibration     5          0.604              1.948              3.423
 Vibration     6          0.606              1.941              3.270
 Vibration     7          0.622              1.890              2.533
 Vibration     8          0.626              1.878              2.427
 Vibration     9          0.639              1.837              2.113
 Vibration    10          0.655              1.786              1.835
 Vibration    11          0.665              1.755              1.698
 Vibration    12          0.673              1.733              1.613
 Vibration    13          0.688              1.688              1.459
 Vibration    14          0.734              1.555              1.123
 Vibration    15          0.754              1.503              1.021
 Vibration    16          0.789              1.410              0.867
 Vibration    17          0.803              1.375              0.815
 Vibration    18          0.835              1.298              0.714
 Vibration    19          0.843              1.278              0.691
 Vibration    20          0.857              1.245              0.653
 Vibration    21          0.881              1.192              0.595
 Vibration    22          0.962              1.024              0.443
 Vibration    23          0.970              1.008              0.431

                           ! Non-Optimized Parameters !
 Normal termination of Gaussian 16 at Mon Dec 14 16:47:30 2020.

 ----------------------------------------------------------------------
 # B3LYP/6-311++G(d,p) empiricaldispersion=gd3bj scf=xqc pop=npa geom=c
 heck
 ----------------------------------------------------------------------

 ---------------------------------------
 CID_144122778_JID_7086_Energie_neutraal
 ---------------------------------------
 Structure from the checkpoint file:  "JID_7086.chk"
 Charge =  0 Multiplicity = 1

 SCF Done:  E(RB3LYP) =  -724.191050493     A.U. after   15 cycles
 Normal termination of Gaussian 16 at Mon Dec 14 16:53:10 2020.

 ----------------------------------------------------------------------
 # B3LYP/6-311++G(d,p) empiricaldispersion=gd3bj scf=xqc pop=npa geom=c
 heck
 ----------------------------------------------------------------------

 -------------------------------------
 CID_144122778_JID_7086_Energie_kation
 -------------------------------------
 Structure from the checkpoint file:  "JID_7086.chk"
 Charge =  1 Multiplicity = 2

 SCF Done:  E(UB3LYP) =  -723.931232178     A.U. after   24 cycles
 Normal termination of Gaussian 16 at Mon Dec 14 17:05:37 2020.
 Gaussian 16:  ES64L-G16RevA.03 25-Dec-2016

 ----------------------------------------------------------------------
 # B3LYP/6-311++G(d,p) empiricaldispersion=gd3bj scf=xqc pop=npa geom=c
 heck
 ----------------------------------------------------------------------

 ------------------------------------
 CID_144122778_JID_7086_Energie_anion
 ------------------------------------
 Structure from the checkpoint file:  "JID_7086.chk"
 Charge = -1 Multiplicity = 2

                         Standard orientation:
 ---------------------------------------------------------------------
 Center     Atomic      Atomic             Coordinates (Angstroms)
 Number     Number       Type             X           Y           Z
 ---------------------------------------------------------------------
      1          6           0       -3.170395    2.866749   -0.445510
      2          7           0       -3.857751    1.606315   -0.249397
      3          6           0       -3.151845    0.435296    0.014892
      4          6           0       -3.830521   -0.687181    0.520534
      5          6           0       -3.147325   -1.878881    0.745293
      6          6           0       -1.786123   -1.988071    0.479697
      7          6           0       -1.088274   -0.875385   -0.014976
      8          6           0       -1.775207    0.327787   -0.241235
      9          6           0        0.356067   -0.982554   -0.305909
     10          7           0        0.914108   -2.145295   -0.250549
     11          7           0        2.278657   -2.298088   -0.518432
     12          6           0        3.002086   -1.226026   -0.447016
     13          7           0        2.523228    0.039216   -0.258035
     14          6           0        1.143826    0.266862   -0.663921
     15          6           0        3.401950    1.167971   -0.214285
     16          6           0        3.282938    2.109428    0.958043
     17          6           0        4.480101    1.200150    0.835000
     18          1           0       -2.604668    2.853690   -1.384441
     19          1           0       -2.470077    3.115129    0.369494
     20          1           0       -3.914107    3.663768   -0.521497
     21          1           0       -4.724568    1.679893    0.265314
     22          1           0       -4.896277   -0.617930    0.727233
     23          1           0       -3.689488   -2.735532    1.136518
     24          1           0       -1.246707   -2.912188    0.645567
     25          1           0       -1.248611    1.186497   -0.638221
     26          1           0        4.083167   -1.329970   -0.505679
     27          1           0        0.769335    1.138170   -0.119830
     28          1           0        1.068437    0.495267   -1.744128
     29          1           0        3.629843    1.615254   -1.184531
     30          1           0        3.410936    3.171816    0.774557
     31          1           0        2.545263    1.859251    1.714556
     32          1           0        4.537126    0.355391    1.514173
     33          1           0        5.439038    1.629596    0.562167
 ---------------------------------------------------------------------

 SCF Done:  E(UB3LYP) =  -724.196348541     A.U. after   33 cycles
 SCF Done:  E(UB3LYP) =  -724.196348541     a.u. after    1 cycles

 The electronic state is 2-A.
 Alpha  occ. eigenvalues --  -14.21764 -14.21717 -14.17106 -14.16260 -10.11196
 Alpha  occ. eigenvalues --  -10.10593 -10.08697 -10.08640 -10.08487 -10.08250
 Alpha  occ. eigenvalues --  -10.07937 -10.05281 -10.04354 -10.03924 -10.03465
 Alpha  occ. eigenvalues --  -10.03438 -10.02223  -0.87269  -0.82747  -0.81189
 Alpha  occ. eigenvalues --   -0.74437  -0.72219  -0.68902  -0.62505  -0.61788
 Alpha  occ. eigenvalues --   -0.58270  -0.57096  -0.53589  -0.50866  -0.50146
 Alpha  occ. eigenvalues --   -0.46696  -0.46557  -0.42855  -0.40373  -0.39978
 Alpha  occ. eigenvalues --   -0.39110  -0.37816  -0.36138  -0.34472  -0.34146
 Alpha  occ. eigenvalues --   -0.33715  -0.32371  -0.30684  -0.30152  -0.28876
 Alpha  occ. eigenvalues --   -0.28591  -0.28160  -0.27786  -0.25347  -0.24244
 Alpha  occ. eigenvalues --   -0.22947  -0.22435  -0.21710  -0.20755  -0.19504
 Alpha  occ. eigenvalues --   -0.17148  -0.14843  -0.12819  -0.09621  -0.08874
 Alpha  occ. eigenvalues --   -0.07333   0.04052
 Alpha virt. eigenvalues --    0.06203   0.06635   0.07999   0.08619   0.08782
 Alpha virt. eigenvalues --    0.09641   0.10323   0.11083   0.11346   0.11791
 Alpha virt. eigenvalues --    0.12321   0.12592   0.13036   0.13511   0.13843

  Beta  occ. eigenvalues --  -14.21727 -14.21699 -14.17187 -14.15937 -10.11188
  Beta  occ. eigenvalues --  -10.10584 -10.08729 -10.08491 -10.08380 -10.08242
  Beta  occ. eigenvalues --  -10.07919 -10.05065 -10.04386 -10.03836 -10.03359
  Beta  occ. eigenvalues --  -10.03246 -10.02133  -0.87017  -0.82745  -0.80939
  Beta  occ. eigenvalues --   -0.74325  -0.71979  -0.68604  -0.62364  -0.61532
  Beta  occ. eigenvalues --   -0.58155  -0.56904  -0.53315  -0.50782  -0.49860
  Beta  occ. eigenvalues --   -0.46619  -0.46390  -0.42771  -0.40235  -0.39842
  Beta  occ. eigenvalues --   -0.38976  -0.37724  -0.35904  -0.34436  -0.33890
  Beta  occ. eigenvalues --   -0.33578  -0.32271  -0.30539  -0.30038  -0.28800
  Beta  occ. eigenvalues --   -0.28464  -0.28013  -0.27750  -0.24902  -0.23679
  Beta  occ. eigenvalues --   -0.22765  -0.22166  -0.21546  -0.20707  -0.18941
  Beta  occ. eigenvalues --   -0.16597  -0.14580  -0.12081  -0.09144  -0.08446
  Beta  occ. eigenvalues --   -0.06500
  Beta virt. eigenvalues --    0.06172   0.06866   0.08016   0.08688   0.08784
  Beta virt. eigenvalues --    0.09130   0.09623   0.10308   0.10970   0.11352
  Beta virt. eigenvalues --    0.11817   0.12416   0.12760   0.13053   0.13505

 Mulliken charges and spin densities:
               1          2
     1  C   -0.324306  -0.100378
     2  N   -0.116231   0.003527
     3  C   -0.483928  -0.033378
     4  C   -0.296915   0.151980
     5  C   -0.444898  -0.014711
     6  C   -0.371445   0.107023
     7  C    1.498645   0.043718
     8  C   -0.499278   0.102318
     9  C   -0.078169   0.080101
    10  N    0.093851   0.168963
    11  N   -0.224469  -0.050946
    12  C   -0.134385   0.212501
    13  N    0.216914   0.023771
    14  C   -0.794741  -0.211807
    15  C   -0.588188   0.471867
    16  C    0.227861  -0.508487
    17  C    0.094163  -0.467032
    18  H    0.108158   0.037397
    19  H    0.085165   0.061424
    20  H    0.069992   0.051666
    21  H    0.241316  -0.002882
    22  H    0.080843  -0.011879
    23  H    0.122808   0.001877
    24  H    0.191265  -0.005815
    25  H    0.187182  -0.140219
    26  H    0.089862   0.056288
    27  H   -0.034213   0.150326
    28  H    0.140815   0.021436
    29  H   -0.233738   0.417748
    30  H   -0.152877   0.287739
    31  H    0.159856  -0.021397
    32  H    0.146093   0.000088
    33  H    0.022992   0.117173
 Sum of Mulliken charges =  -1.00000   1.00000

 Dipole moment (field-independent basis, Debye):
    X=             -3.0161    Y=              5.4594    Z=              1.5441  Tot=              6.4255
 Quadrupole moment (field-independent basis, Debye-Ang):
   XX=           -144.6533   YY=           -140.2472   ZZ=           -116.9259
   XY=             -4.5689   XZ=              1.9570   YZ=             -2.7013

 Summary of Natural Population Analysis:

                                       Natural Population
                Natural  -----------------------------------------------
    Atom  No    Charge         Core      Valence    Rydberg      Total
 -----------------------------------------------------------------------
      C    1   -0.17780      0.99967     2.17097    0.00716     3.17780
      N    2   -0.31895      0.99968     2.80942    0.00984     3.81895
      C    3    0.07682      0.99950     1.91387    0.00981     2.92318
      C    4   -0.09824      0.99954     2.08976    0.00895     3.09824
      C    5   -0.10726      0.99958     2.09863    0.00905     3.10726
      C    6   -0.08564      0.99953     2.07737    0.00874     3.08564
      C    7   -0.01259      0.99950     2.00413    0.00897     3.01259
      C    8   -0.11378      0.99950     2.10671    0.00758     3.11378
      C    9    0.12874      0.99955     1.85363    0.01808     2.87126
      N   10   -0.10097      0.99961     2.58896    0.01240     3.60097
      N   11   -0.20313      0.99970     2.68964    0.01379     3.70313
      C   12    0.17447      0.99962     1.80652    0.01938     2.82553
      N   13   -0.24525      0.99964     2.73436    0.01125     3.74525
      C   14   -0.10385      0.99960     2.09432    0.00993     3.10385
      C   15   -0.00925      0.99957     1.99686    0.01282     3.00925
      C   16   -0.20277      0.99962     2.19425    0.00890     3.20277
      C   17   -0.20091      0.99962     2.19317    0.00812     3.20091
      H   18    0.09232      0.00000     0.40616    0.00152     0.40768
      H   19    0.08398      0.00000     0.41336    0.00266     0.41602
      H   20    0.09141      0.00000     0.40781    0.00079     0.40859
      H   21    0.17822      0.00000     0.31986    0.00193     0.32178
      H   22    0.08608      0.00000     0.41252    0.00140     0.41392
      H   23    0.09107      0.00000     0.40792    0.00101     0.40893
      H   24    0.11023      0.00000     0.38864    0.00113     0.38977
      H   25    0.09404      0.00000     0.40386    0.00209     0.40596
      H   26    0.07979      0.00000     0.41829    0.00192     0.42021
      H   27    0.09883      0.00000     0.39938    0.00179     0.40117
      H   28    0.08370      0.00000     0.41487    0.00142     0.41630
      H   29    0.09397      0.00000     0.40320    0.00283     0.40603
      H   30    0.10164      0.00000     0.39709    0.00127     0.39836
      H   31    0.10704      0.00000     0.39199    0.00097     0.39296
      H   32    0.10700      0.00000     0.39205    0.00095     0.39300
      H   33    0.10104      0.00000     0.39802    0.00094     0.39896
 =======================================================================
   * Total *   -0.00000     16.99302    43.79761    0.20937    61.00000

 Normal termination of Gaussian 16 at Mon Dec 14 17:23:39 2020.
