 Gaussian 16, Revision A.03,

 -----------------------------------------------------------
 # opt freq B3LYP/6-31G(d) empiricaldispersion=gd3bj scf=xqc
 -----------------------------------------------------------

 -------------------------------
 CID_121478890_JID_6823_neutraal
 -------------------------------
 Symbolic Z-matrix:
 Charge =  0 Multiplicity = 1

 SCF Done:  E(RB3LYP) =  -672.588262628     A.U. after   15 cycles
 SCF Done:  E(RB3LYP) =  -672.593507307     A.U. after   12 cycles
 SCF Done:  E(RB3LYP) =  -672.593992420     A.U. after   12 cycles
 SCF Done:  E(RB3LYP) =  -672.594067006     A.U. after   11 cycles
 SCF Done:  E(RB3LYP) =  -672.594153413     A.U. after   11 cycles
 SCF Done:  E(RB3LYP) =  -672.594244901     A.U. after   10 cycles
 SCF Done:  E(RB3LYP) =  -672.594529365     A.U. after   12 cycles
 SCF Done:  E(RB3LYP) =  -672.594615392     A.U. after   12 cycles
 SCF Done:  E(RB3LYP) =  -672.594663881     A.U. after   11 cycles
 SCF Done:  E(RB3LYP) =  -672.594680626     A.U. after   11 cycles
 SCF Done:  E(RB3LYP) =  -672.594682771     A.U. after    8 cycles
 SCF Done:  E(RB3LYP) =  -672.594683351     A.U. after    9 cycles
 SCF Done:  E(RB3LYP) =  -672.594683576     A.U. after    8 cycles
 SCF Done:  E(RB3LYP) =  -672.594683716     A.U. after    7 cycles
 SCF Done:  E(RB3LYP) =  -672.594683741     A.U. after    6 cycles
 SCF Done:  E(RB3LYP) =  -672.594683754     A.U. after    6 cycles
 Optimization completed.
    -- Stationary point found.
 Normal termination of Gaussian 16 at Fri Dec 11 00:46:04 2020.

 --------------------------------------------------------------------
 #N Geom=AllCheck Guess=TCheck SCRF=Check GenChk RB3LYP/6-31G(d) Freq
 --------------------------------------------------------------------

 Structure from the checkpoint file:  "JID_6823.chk"
 -------------------------------
 CID_121478890_JID_6823_neutraal
 -------------------------------
 Charge =  0 Multiplicity = 1

 SCF Done:  E(RB3LYP) =  -672.594683754     A.U. after    1 cycles

  Exact polarizability: 189.761 -10.242 196.492  10.893   3.776  84.162
 Approx polarizability: 282.167 -17.091 328.192  17.256   8.956 134.639

                      1                      2                      3
                      A                      A                      A
 Frequencies --     21.2977                40.2792                57.0786
 Red. masses --      3.6868                 4.9460                 4.7166
 Frc consts  --      0.0010                 0.0047                 0.0091
 IR Inten    --      0.0626                 1.9944                 0.4303

                      4                      5                      6
                      A                      A                      A
 Frequencies --     90.1180               115.6631               140.1897
 Red. masses --      1.2266                 2.4436                 3.5298
 Frc consts  --      0.0059                 0.0193                 0.0409
 IR Inten    --      0.2945                 0.0669                 3.2785

                      7                      8                      9
                      A                      A                      A
 Frequencies --    159.0084               182.1627               204.8575
 Red. masses --      1.1260                 4.4867                 3.5436
 Frc consts  --      0.0168                 0.0877                 0.0876
 IR Inten    --      0.4303                 2.6316                 0.9226

                     10                     11                     12
                      A                      A                      A
 Frequencies --    231.0919               274.9647               288.5125
 Red. masses --      3.7291                 2.9956                 2.5173
 Frc consts  --      0.1173                 0.1334                 0.1235
 IR Inten    --      1.1179                 1.6224                 3.6362

                     13                     14                     15
                      A                      A                      A
 Frequencies --    309.1042               434.5364               449.0064
 Red. masses --      4.0945                 3.8045                 4.6174
 Frc consts  --      0.2305                 0.4233                 0.5485
 IR Inten    --      0.6732                 1.7214                 4.0298

                     16                     17                     18
                      A                      A                      A
 Frequencies --    467.7549               484.7538               514.5514
 Red. masses --      3.3932                 3.1174                 3.2453
 Frc consts  --      0.4374                 0.4316                 0.5062
 IR Inten    --      6.3013                 4.6842                 2.3389

                     19                     20                     21
                      A                      A                      A
 Frequencies --    525.2813               526.6750               543.9824
 Red. masses --      4.2074                 1.5755                 3.5702
 Frc consts  --      0.6840                 0.2575                 0.6225
 IR Inten    --      4.2758                43.5945                 3.0630

                     22                     23                     24
                      A                      A                      A
 Frequencies --    601.0991               624.6773               631.3011
 Red. masses --      3.7661                 3.2597                 2.1230
 Frc consts  --      0.8017                 0.7494                 0.4985
 IR Inten    --     13.7843                30.6433                39.7006

                     25                     26                     27
                      A                      A                      A
 Frequencies --    651.4866               687.0183               760.2014
 Red. masses --      4.0545                 4.4063                 3.6616
 Frc consts  --      1.0139                 1.2254                 1.2468
 IR Inten    --      3.1685                 1.3781                 4.2434

                     28                     29                     30
                      A                      A                      A
 Frequencies --    763.4861               793.6167               845.7509
 Red. masses --      1.4646                 2.9134                 3.1967
 Frc consts  --      0.5030                 1.0811                 1.3472
 IR Inten    --     24.4848                 8.0189                 1.0293

                     31                     32                     33
                      A                      A                      A
 Frequencies --    868.5621               887.8419               897.6060
 Red. masses --      1.4027                 3.1096                 1.8297
 Frc consts  --      0.6235                 1.4442                 0.8685
 IR Inten    --      7.7071                 3.7729                14.7470

                     34                     35                     36
                      A                      A                      A
 Frequencies --    916.3896               954.2603               972.3687
 Red. masses --      1.4257                 1.3497                 2.3930
 Frc consts  --      0.7054                 0.7241                 1.3331
 IR Inten    --      0.3381                 2.2144                 7.5736

                     37                     38                     39
                      A                      A                      A
 Frequencies --    988.7605               997.4231              1034.4712
 Red. masses --      1.2791                 2.5785                 1.5192
 Frc consts  --      0.7368                 1.5114                 0.9579
 IR Inten    --      0.2322                18.0956                 8.6167

                     40                     41                     42
                      A                      A                      A
 Frequencies --   1052.4619              1063.4093              1064.4713
 Red. masses --      1.8052                 1.7974                 2.1566
 Frc consts  --      1.1781                 1.1975                 1.4398
 IR Inten    --      4.6285                 7.4508                 1.6416

                     43                     44                     45
                      A                      A                      A
 Frequencies --   1077.9334              1089.2288              1143.1360
 Red. masses --      1.5148                 2.9792                 3.7597
 Frc consts  --      1.0370                 2.0825                 2.8946
 IR Inten    --      3.9541                 3.8973                14.6454

                     46                     47                     48
                      A                      A                      A
 Frequencies --   1168.4575              1198.4279              1215.1209
 Red. masses --      1.7044                 1.1706                 1.3720
 Frc consts  --      1.3710                 0.9906                 1.1936
 IR Inten    --      1.0262                 0.5069                 0.1436

                     49                     50                     51
                      A                      A                      A
 Frequencies --   1250.3818              1271.6040              1279.3725
 Red. masses --      1.4724                 1.8253                 1.4549
 Frc consts  --      1.3563                 1.7389                 1.4031
 IR Inten    --     12.2005                 3.5575                 5.3560

                     52                     53                     54
                      A                      A                      A
 Frequencies --   1319.1086              1353.0379              1389.6206
 Red. masses --      2.0649                 1.7201                 1.9849
 Frc consts  --      2.1170                 1.8553                 2.2584
 IR Inten    --      4.6662               173.6053                31.7034

                     55                     56                     57
                      A                      A                      A
 Frequencies --   1405.2958              1417.0075              1426.5609
 Red. masses --      2.2094                 3.5233                 1.5690
 Frc consts  --      2.5708                 4.1681                 1.8813
 IR Inten    --      0.4484                 5.9466               100.9299

                     58                     59                     60
                      A                      A                      A
 Frequencies --   1441.9498              1450.5456              1476.4770
 Red. masses --      1.3690                 2.6511                 2.4154
 Frc consts  --      1.6771                 3.2865                 3.1024
 IR Inten    --      2.2847                 3.5004                 6.1162

                     61                     62                     63
                      A                      A                      A
 Frequencies --   1483.9354              1501.5434              1509.1721
 Red. masses --      1.7796                 1.0703                 2.3375
 Frc consts  --      2.3089                 1.4218                 3.1367
 IR Inten    --    122.2701                 8.1588                 0.6394

                     64                     65                     66
                      A                      A                      A
 Frequencies --   1513.0092              1514.1203              1526.1131
 Red. masses --      1.0442                 1.0500                 1.2072
 Frc consts  --      1.4084                 1.4182                 1.6566
 IR Inten    --      6.0456                 9.9207                 3.0970

                     67                     68                     69
                      A                      A                      A
 Frequencies --   1545.7727              1566.7293              1636.7242
 Red. masses --      1.0897                 3.1062                 6.8141
 Frc consts  --      1.5341                 4.4922                10.7549
 IR Inten    --      4.4940                 9.2992                 0.0838

                     70                     71                     72
                      A                      A                      A
 Frequencies --   1670.6454              1692.1979              1797.8506
 Red. masses --      5.2139                 6.1048                 8.0819
 Frc consts  --      8.5740                10.2997                15.3912
 IR Inten    --      8.4893                10.9698               427.9134

                     73                     74                     75
                      A                      A                      A
 Frequencies --   3019.0451              3042.3991              3054.0623
 Red. masses --      1.0701                 1.0378                 1.0404
 Frc consts  --      5.7464                 5.6597                 5.7173
 IR Inten    --     42.1670                37.5525                 5.9974

                     76                     77                     78
                      A                      A                      A
 Frequencies --   3085.6507              3093.0527              3112.8367
 Red. masses --      1.0917                 1.1008                 1.1003
 Frc consts  --      6.1244                 6.2047                 6.2814
 IR Inten    --     16.1564                19.8170                12.7110

                     79                     80                     81
                      A                      A                      A
 Frequencies --   3129.8904              3169.3984              3176.1359
 Red. masses --      1.1006                 1.0897                 1.0900
 Frc consts  --      6.3522                 6.4492                 6.4783
 IR Inten    --     15.3703                19.5251                 9.2828

                     82                     83                     84
                      A                      A                      A
 Frequencies --   3179.4875              3182.0027              3193.7978
 Red. masses --      1.0998                 1.0867                 1.0894
 Frc consts  --      6.5506                 6.4826                 6.5474
 IR Inten    --     10.6848                 8.2799                14.5876

                     85                     86                     87
                      A                      A                      A
 Frequencies --   3208.3273              3227.7769              3596.5581
 Red. masses --      1.0949                 1.0929                 1.0763
 Frc consts  --      6.6399                 6.7085                 8.2024
 IR Inten    --     31.3478                14.8603                18.8297

 - Thermochemistry -
 -------------------
 Temperature   298.150 Kelvin.  Pressure   1.00000 Atm.
 Atom     1 has atomic number  6 and mass  12.00000

 Molecular mass:   213.11536 amu.
 Principal axes and moments of inertia in atomic units:
                           1         2         3
     Eigenvalues --  2455.756595028.269526952.60495
           X            0.99961  -0.02055   0.01886
           Y            0.02052   0.99979   0.00197
           Z           -0.01890  -0.00158   0.99982
 This molecule is an asymmetric top.
 Rotational symmetry number  1.
 Warning -- assumption of classical behavior for rotation
           may cause significant error
 Rotational temperatures (Kelvin)      0.03527     0.01723     0.01246
 Rotational constants (GHZ):           0.73490     0.35892     0.25958
 Zero-point vibrational energy     681387.1 (Joules/Mol)
                                  162.85544 (Kcal/Mol)
 Warning -- explicit consideration of  22 degrees of freedom as
           vibrations may cause significant error
 Vibrational temperatures:     30.64    57.95    82.12   129.66   166.41
          (Kelvin)            201.70   228.78   262.09   294.74   332.49
                              395.61   415.11   444.73   625.20   646.02
                              673.00   697.45   740.32   755.76   757.77
                              782.67   864.85   898.77   908.30   937.34
                              988.47  1093.76  1098.49  1141.84  1216.85
                             1249.67  1277.41  1291.45  1318.48  1372.97
                             1399.02  1422.61  1435.07  1488.37  1514.26
                             1530.01  1531.54  1550.91  1567.16  1644.72
                             1681.15  1724.27  1748.29  1799.02  1829.55
                             1840.73  1897.90  1946.72  1999.35  2021.91
                             2038.76  2052.50  2074.64  2087.01  2124.32
                             2135.05  2160.39  2171.36  2176.88  2178.48
                             2195.74  2224.02  2254.17  2354.88  2403.69
                             2434.70  2586.71  4343.73  4377.33  4394.11
                             4439.56  4450.21  4478.68  4503.21  4560.06
                             4569.75  4574.57  4578.19  4595.16  4616.07
                             4644.05  5174.64

 Zero-point correction=                           0.259527 (Hartree/Particle)
 Thermal correction to Energy=                    0.274282
 Thermal correction to Enthalpy=                  0.275226
 Thermal correction to Gibbs Free Energy=         0.216212
 Sum of electronic and zero-point Energies=           -672.335157
 Sum of electronic and thermal Energies=              -672.320402
 Sum of electronic and thermal Enthalpies=            -672.319458
 Sum of electronic and thermal Free Energies=         -672.378472

                     E (Thermal)             CV                S
                      KCal/Mol        Cal/Mol-Kelvin    Cal/Mol-Kelvin
 Total                  172.114             56.251            124.205
 Electronic               0.000              0.000              0.000
 Translational            0.889              2.981             41.973
 Rotational               0.889              2.981             32.818
 Vibrational            170.337             50.289             49.413
 Vibration     1          0.593              1.985              6.509
 Vibration     2          0.594              1.981              5.245
 Vibration     3          0.596              1.975              4.556
 Vibration     4          0.602              1.956              3.658
 Vibration     5          0.608              1.936              3.172
 Vibration     6          0.615              1.913              2.801
 Vibration     7          0.621              1.893              2.562
 Vibration     8          0.630              1.864              2.306
 Vibration     9          0.640              1.833              2.089
 Vibration    10          0.653              1.793              1.870
 Vibration    11          0.677              1.720              1.565
 Vibration    12          0.685              1.695              1.483
 Vibration    13          0.698              1.656              1.367
 Vibration    14          0.795              1.395              0.844
 Vibration    15          0.808              1.363              0.799
 Vibration    16          0.825              1.322              0.744
 Vibration    17          0.841              1.284              0.697
 Vibration    18          0.870              1.218              0.623
 Vibration    19          0.880              1.194              0.598
 Vibration    20          0.882              1.191              0.595
 Vibration    21          0.899              1.153              0.557
 Vibration    22          0.959              1.029              0.448

                           ! Non-Optimized Parameters !
 Normal termination of Gaussian 16 at Fri Dec 11 00:55:43 2020.

 ----------------------------------------------------------------------
 # B3LYP/6-311++G(d,p) empiricaldispersion=gd3bj scf=xqc pop=npa geom=c
 heck
 ----------------------------------------------------------------------

 ---------------------------------------
 CID_121478890_JID_6823_Energie_neutraal
 ---------------------------------------
 Structure from the checkpoint file:  "JID_6823.chk"
 Charge =  0 Multiplicity = 1

 SCF Done:  E(RB3LYP) =  -672.776000883     A.U. after   15 cycles
 Normal termination of Gaussian 16 at Fri Dec 11 00:59:34 2020.

 ----------------------------------------------------------------------
 # B3LYP/6-311++G(d,p) empiricaldispersion=gd3bj scf=xqc pop=npa geom=c
 heck
 ----------------------------------------------------------------------

 -------------------------------------
 CID_121478890_JID_6823_Energie_kation
 -------------------------------------
 Structure from the checkpoint file:  "JID_6823.chk"
 Charge =  1 Multiplicity = 2

 SCF Done:  E(UB3LYP) =  -672.487067076     A.U. after   27 cycles
 Normal termination of Gaussian 16 at Fri Dec 11 01:08:50 2020.
 Gaussian 16:  ES64L-G16RevA.03 25-Dec-2016

 ----------------------------------------------------------------------
 # B3LYP/6-311++G(d,p) empiricaldispersion=gd3bj scf=xqc pop=npa geom=c
 heck
 ----------------------------------------------------------------------

 ------------------------------------
 CID_121478890_JID_6823_Energie_anion
 ------------------------------------
 Structure from the checkpoint file:  "JID_6823.chk"
 Charge = -1 Multiplicity = 2

                         Standard orientation:
 ---------------------------------------------------------------------
 Center     Atomic      Atomic             Coordinates (Angstroms)
 Number     Number       Type             X           Y           Z
 ---------------------------------------------------------------------
      1          6           0        3.206933   -2.958330    0.179739
      2          6           0        2.348658   -1.726078    0.048123
      3          6           0        2.863544   -0.459457    0.200592
      4          6           0        2.048018    0.696955    0.076909
      5          6           0        2.587363    2.000506    0.229200
      6          6           0        1.789717    3.115084    0.105421
      7          6           0        0.411564    2.970898   -0.174281
      8          6           0       -0.143042    1.719145   -0.326318
      9          6           0        0.653215    0.549386   -0.209927
     10          6           0        0.128684   -0.772788   -0.374837
     11          6           0        0.963890   -1.859209   -0.243302
     12          6           0       -1.332985   -0.991864   -0.690230
     13          7           0       -2.178085   -0.618195    0.439242
     14          6           0       -3.517552   -0.323744    0.419856
     15          8           0       -4.146441   -0.157528    1.456449
     16          6           0       -4.159278   -0.193557   -0.953096
     17          1           0        3.197000   -3.550475   -0.743893
     18          1           0        4.246166   -2.698484    0.401612
     19          1           0        2.843982   -3.611847    0.982866
     20          1           0        3.920300   -0.325852    0.421332
     21          1           0        3.647710    2.101918    0.446377
     22          1           0        2.215093    4.107333    0.225143
     23          1           0       -0.214554    3.853890   -0.264083
     24          1           0       -1.205941    1.622476   -0.515133
     25          1           0        0.552758   -2.858939   -0.369741
     26          1           0       -1.623112   -0.389101   -1.557195
     27          1           0       -1.484834   -2.044516   -0.969004
     28          1           0       -1.795003   -0.747814    1.367818
     29          1           0       -3.703073    0.618915   -1.531477
     30          1           0       -4.052564   -1.114288   -1.537909
     31          1           0       -5.218173    0.022697   -0.810102
 ---------------------------------------------------------------------

 SCF Done:  E(UB3LYP) =  -672.778419146     A.U. after   32 cycles

 The electronic state is 2-A.
 Alpha  occ. eigenvalues --  -18.97833 -14.22038 -10.16504 -10.09304 -10.07249
 Alpha  occ. eigenvalues --  -10.05807 -10.04448 -10.04417 -10.04403 -10.03395
 Alpha  occ. eigenvalues --  -10.03371 -10.03225 -10.03002 -10.02571 -10.02399
 Alpha  occ. eigenvalues --  -10.02376  -0.92897  -0.80992  -0.73710  -0.69213
 Alpha  occ. eigenvalues --   -0.65887  -0.63521  -0.62495  -0.60109  -0.57270
 Alpha  occ. eigenvalues --   -0.55236  -0.48502  -0.47125  -0.46611  -0.44995
 Alpha  occ. eigenvalues --   -0.39124  -0.37865  -0.37338  -0.36209  -0.35616
 Alpha  occ. eigenvalues --   -0.34464  -0.32232  -0.30915  -0.30485  -0.30041
 Alpha  occ. eigenvalues --   -0.29711  -0.29148  -0.28733  -0.27710  -0.26295
 Alpha  occ. eigenvalues --   -0.26247  -0.25660  -0.24906  -0.23235  -0.20260
 Alpha  occ. eigenvalues --   -0.19678  -0.19128  -0.15667  -0.15115  -0.13761
 Alpha  occ. eigenvalues --   -0.11087  -0.08908   0.04677
 Alpha virt. eigenvalues --    0.07078   0.07845   0.08776   0.09421   0.09907
 Alpha virt. eigenvalues --    0.10164   0.10747   0.11230   0.11658   0.11975
 Alpha virt. eigenvalues --    0.12372   0.12980   0.13419   0.13534   0.13847

  Beta  occ. eigenvalues --  -18.97833 -14.22013 -10.16497 -10.09311 -10.07218
  Beta  occ. eigenvalues --  -10.05807 -10.04515 -10.04466 -10.04390 -10.03322
  Beta  occ. eigenvalues --  -10.03161 -10.03112 -10.02872 -10.02323 -10.02173
  Beta  occ. eigenvalues --  -10.02116  -0.92889  -0.80934  -0.73444  -0.68885
  Beta  occ. eigenvalues --   -0.65575  -0.63448  -0.62273  -0.59811  -0.57098
  Beta  occ. eigenvalues --   -0.54937  -0.48092  -0.47060  -0.46425  -0.44699
  Beta  occ. eigenvalues --   -0.38997  -0.37788  -0.37048  -0.36098  -0.35531
  Beta  occ. eigenvalues --   -0.34365  -0.32168  -0.30784  -0.30388  -0.29992
  Beta  occ. eigenvalues --   -0.29658  -0.29018  -0.28611  -0.27558  -0.26201
  Beta  occ. eigenvalues --   -0.26140  -0.25551  -0.24368  -0.23076  -0.20108
  Beta  occ. eigenvalues --   -0.19566  -0.18095  -0.15205  -0.14830  -0.13228
  Beta  occ. eigenvalues --   -0.10420  -0.07355
  Beta virt. eigenvalues --    0.07226   0.07804   0.08758   0.09498   0.09751
  Beta virt. eigenvalues --    0.09938   0.10170   0.10887   0.11284   0.11684
  Beta virt. eigenvalues --    0.11989   0.12403   0.12925   0.13404   0.13853

 Mulliken charges and spin densities:
               1          2
     1  C   -0.353118  -0.102562
     2  C    0.521866  -0.054997
     3  C   -0.478283   0.215658
     4  C    0.240284  -0.066281
     5  C   -0.351566   0.202859
     6  C   -0.358586   0.071681
     7  C   -0.404242   0.035983
     8  C   -0.881643   0.186756
     9  C    0.544585   0.003107
    10  C    0.606183   0.122474
    11  C   -0.233898   0.024405
    12  C   -0.323098  -0.176086
    13  N   -0.134952   0.001606
    14  C   -0.101738   0.152549
    15  O   -0.371479  -0.000648
    16  C    0.170234  -0.574996
    17  H    0.125671   0.009106
    18  H    0.129816   0.001227
    19  H    0.132749   0.004939
    20  H    0.027359  -0.014103
    21  H    0.081162  -0.010223
    22  H    0.101858  -0.002440
    23  H    0.101375   0.024940
    24  H    0.039942  -0.072578
    25  H    0.027351   0.046826
    26  H   -0.041380   0.182367
    27  H    0.054400   0.142546
    28  H    0.281363   0.000794
    29  H   -0.085337   0.246259
    30  H   -0.107802   0.258650
    31  H    0.040922   0.140182
 Sum of Mulliken charges =  -1.00000   1.00000

 Dipole moment (field-independent basis, Debye):
    X=              2.2771    Y=             -1.8192    Z=             -0.7236  Tot=              3.0031
 Quadrupole moment (field-independent basis, Debye-Ang):
   XX=           -148.3195   YY=           -118.6587   ZZ=           -117.0800
   XY=             -2.4137   XZ=              8.0738   YZ=             -1.4413

 Summary of Natural Population Analysis:

                                       Natural Population
                Natural  -----------------------------------------------
    Atom  No    Charge         Core      Valence    Rydberg      Total
 -----------------------------------------------------------------------
      C    1   -0.28725      0.99964     2.28312    0.00449     3.28725
      C    2   -0.02243      0.99951     2.01427    0.00864     3.02243
      C    3   -0.04858      0.99948     2.04146    0.00765     3.04858
      C    4   -0.05635      0.99955     2.04215    0.01465     3.05635
      C    5   -0.05658      0.99954     2.04806    0.00899     3.05658
      C    6   -0.10366      0.99957     2.09417    0.00992     3.10366
      C    7   -0.09704      0.99957     2.08795    0.00951     3.09704
      C    8   -0.07983      0.99959     2.06451    0.01573     3.07983
      C    9    0.02749      0.99947     1.96229    0.01075     2.97251
      C   10    0.00490      0.99952     1.98052    0.01506     2.99510
      C   11   -0.07986      0.99948     2.07129    0.00909     3.07986
      C   12   -0.09800      0.99958     2.08640    0.01201     3.09800
      N   13   -0.31309      0.99967     2.80433    0.00909     3.81309
      C   14    0.33872      0.99970     1.63844    0.02313     2.66128
      O   15   -0.33128      0.99988     3.32538    0.00603     4.33128
      C   16   -0.33553      0.99963     2.33120    0.00471     3.33553
      H   17    0.09633      0.00000     0.40252    0.00115     0.40367
      H   18    0.09600      0.00000     0.40319    0.00081     0.40400
      H   19    0.09617      0.00000     0.40267    0.00115     0.40383
      H   20    0.08530      0.00000     0.41327    0.00143     0.41470
      H   21    0.08996      0.00000     0.40947    0.00057     0.41004
      H   22    0.08935      0.00000     0.40963    0.00101     0.41065
      H   23    0.09095      0.00000     0.40813    0.00092     0.40905
      H   24    0.09316      0.00000     0.40501    0.00183     0.40684
      H   25    0.08745      0.00000     0.41147    0.00108     0.41255
      H   26    0.10294      0.00000     0.39555    0.00151     0.39706
      H   27    0.09082      0.00000     0.40812    0.00105     0.40918
      H   28    0.19563      0.00000     0.30252    0.00185     0.30437
      H   29    0.11042      0.00000     0.38838    0.00120     0.38958
      H   30    0.10742      0.00000     0.39148    0.00110     0.39258
      H   31    0.10947      0.00000     0.38961    0.00092     0.39053
 =======================================================================
   * Total *    0.00301     15.99339    40.81658    0.18701    56.99699

 Normal termination of Gaussian 16 at Fri Dec 11 01:19:52 2020.
