 Gaussian 16, Revision A.03,

 -----------------------------------------------------------
 # opt freq B3LYP/6-31G(d) empiricaldispersion=gd3bj scf=xqc
 -----------------------------------------------------------

 -------------------------------
 CID_138926570_JID_7769_neutraal
 -------------------------------
 Symbolic Z-matrix:
 Charge =  0 Multiplicity = 1

 SCF Done:  E(RB3LYP) =  -835.475058927     A.U. after   15 cycles
 SCF Done:  E(RB3LYP) =  -835.482640116     A.U. after   13 cycles
 SCF Done:  E(RB3LYP) =  -835.483428781     A.U. after   12 cycles
 SCF Done:  E(RB3LYP) =  -835.483377666     A.U. after   13 cycles
 SCF Done:  E(RB3LYP) =  -835.481297818     A.U. after   13 cycles
 SCF Done:  E(RB3LYP) =  -835.481778527     A.U. after   13 cycles
 SCF Done:  E(RB3LYP) =  -835.483610813     A.U. after    9 cycles
 SCF Done:  E(RB3LYP) =  -835.483967554     A.U. after   12 cycles
 SCF Done:  E(RB3LYP) =  -835.483940031     A.U. after   11 cycles
 SCF Done:  E(RB3LYP) =  -835.484023780     A.U. after   11 cycles
 SCF Done:  E(RB3LYP) =  -835.484034963     A.U. after   10 cycles
 SCF Done:  E(RB3LYP) =  -835.484037180     A.U. after    9 cycles
 SCF Done:  E(RB3LYP) =  -835.484037877     A.U. after    8 cycles
 SCF Done:  E(RB3LYP) =  -835.484038009     A.U. after    8 cycles
 Optimization completed.
    -- Stationary point found.
 Normal termination of Gaussian 16 at Fri Dec 11 13:13:03 2020.

 --------------------------------------------------------------------
 #N Geom=AllCheck Guess=TCheck SCRF=Check GenChk RB3LYP/6-31G(d) Freq
 --------------------------------------------------------------------

 Structure from the checkpoint file:  "JID_7769.chk"
 -------------------------------
 CID_138926570_JID_7769_neutraal
 -------------------------------
 Charge =  0 Multiplicity = 1

 SCF Done:  E(RB3LYP) =  -835.484038009     A.U. after    1 cycles

  Exact polarizability: 169.950  -4.272 104.895 -10.301   4.106 132.435
 Approx polarizability: 239.804  -6.038 145.440 -35.786   9.203 235.123

                      1                      2                      3
                      A                      A                      A
 Frequencies --     30.8002                51.2010                69.6205
 Red. masses --      5.2665                 3.9494                 5.8745
 Frc consts  --      0.0029                 0.0061                 0.0168
 IR Inten    --      0.5828                 2.2003                 0.5848

                      4                      5                      6
                      A                      A                      A
 Frequencies --     75.1666                86.5105               130.6934
 Red. masses --      4.7542                 4.9565                 4.7957
 Frc consts  --      0.0158                 0.0219                 0.0483
 IR Inten    --      2.9084                 1.1281                 1.3812

                      7                      8                      9
                      A                      A                      A
 Frequencies --    153.5134               164.3559               216.1771
 Red. masses --      9.2585                 6.7453                 3.7291
 Frc consts  --      0.1286                 0.1074                 0.1027
 IR Inten    --      1.2184                 0.5089                 9.2370

                     10                     11                     12
                      A                      A                      A
 Frequencies --    235.3445               270.5488               272.2551
 Red. masses --      1.2145                 2.0393                 2.0701
 Frc consts  --      0.0396                 0.0879                 0.0904
 IR Inten    --      1.0551                 0.7890                 1.3542

                     13                     14                     15
                      A                      A                      A
 Frequencies --    293.7448               314.2017               321.8035
 Red. masses --      1.2740                 1.4308                 2.3026
 Frc consts  --      0.0648                 0.0832                 0.1405
 IR Inten    --      0.1838                 1.1953                 2.2554

                     16                     17                     18
                      A                      A                      A
 Frequencies --    358.3413               375.4914               393.1926
 Red. masses --      3.2919                 2.9189                 4.1121
 Frc consts  --      0.2490                 0.2425                 0.3746
 IR Inten    --      6.4822                 4.5640                15.4715

                     19                     20                     21
                      A                      A                      A
 Frequencies --    397.2902               417.4323               427.4067
 Red. masses --      2.8842                 1.7016                 2.0411
 Frc consts  --      0.2682                 0.1747                 0.2197
 IR Inten    --     19.3892                99.7435                88.3170

                     22                     23                     24
                      A                      A                      A
 Frequencies --    437.1655               492.6927               507.0218
 Red. masses --      2.6707                 2.9164                 2.9916
 Frc consts  --      0.3007                 0.4171                 0.4531
 IR Inten    --     17.0262                26.9516                 9.8384

                     25                     26                     27
                      A                      A                      A
 Frequencies --    537.8133               545.2420               553.9544
 Red. masses --      3.4945                 2.9026                 3.2268
 Frc consts  --      0.5955                 0.5084                 0.5834
 IR Inten    --      5.3137                18.6403                 6.2270

                     28                     29                     30
                      A                      A                      A
 Frequencies --    570.5517               591.0695               644.0016
 Red. masses --      1.1906                 4.0727                 5.0945
 Frc consts  --      0.2284                 0.8383                 1.2449
 IR Inten    --     58.7958                27.2736                15.0185

                     31                     32                     33
                      A                      A                      A
 Frequencies --    680.4449               692.5122               730.8549
 Red. masses --      1.4731                 1.2368                 3.8862
 Frc consts  --      0.4019                 0.3495                 1.2230
 IR Inten    --     12.6327                50.8800                17.1211

                     34                     35                     36
                      A                      A                      A
 Frequencies --    747.9158               760.1277               794.9909
 Red. masses --      7.5304                 6.6712                 7.8115
 Frc consts  --      2.4818                 2.2710                 2.9088
 IR Inten    --     65.1214                 1.3400                18.7667

                     37                     38                     39
                      A                      A                      A
 Frequencies --    821.0482               876.4167               899.1632
 Red. masses --      3.7343                 3.7254                 2.5614
 Frc consts  --      1.4832                 1.6860                 1.2201
 IR Inten    --      5.8074                 8.8849                 7.2877

                     40                     41                     42
                      A                      A                      A
 Frequencies --    926.0104               930.7074               944.1072
 Red. masses --      1.4858                 1.7239                 1.6404
 Frc consts  --      0.7506                 0.8798                 0.8615
 IR Inten    --     13.7524                 0.1432                 0.8020

                     43                     44                     45
                      A                      A                      A
 Frequencies --    974.5556               977.6126              1022.0800
 Red. masses --      1.2055                 2.9625                 2.5010
 Frc consts  --      0.6746                 1.6682                 1.5393
 IR Inten    --      0.1327                17.8603                 5.3173

                     46                     47                     48
                      A                      A                      A
 Frequencies --   1058.4778              1065.4454              1111.3007
 Red. masses --      1.6455                 1.4277                 1.8499
 Frc consts  --      1.0862                 0.9549                 1.3461
 IR Inten    --      5.1895                 2.7377                 7.8577

                     49                     50                     51
                      A                      A                      A
 Frequencies --   1118.6897              1163.7578              1200.7841
 Red. masses --      3.4459                 3.0560                 1.9361
 Frc consts  --      2.5408                 2.4385                 1.6448
 IR Inten    --     21.8060                12.1710                98.6279

                     52                     53                     54
                      A                      A                      A
 Frequencies --   1237.3654              1253.8634              1265.1608
 Red. masses --      2.0975                 3.0020                 2.5491
 Frc consts  --      1.8921                 2.7807                 2.4039
 IR Inten    --    103.1133                68.8658                16.6735

                     55                     56                     57
                      A                      A                      A
 Frequencies --   1285.5508              1338.1466              1359.4754
 Red. masses --      2.1129                 2.1131                 1.8168
 Frc consts  --      2.0574                 2.2293                 1.9783
 IR Inten    --     31.5330                71.3691                 9.9951

                     58                     59                     60
                      A                      A                      A
 Frequencies --   1368.6415              1383.5016              1411.0277
 Red. masses --      2.3553                 1.5716                 1.6764
 Frc consts  --      2.5995                 1.7724                 1.9665
 IR Inten    --     48.2595                26.3173                11.0578

                     61                     62                     63
                      A                      A                      A
 Frequencies --   1426.9986              1429.5813              1436.1397
 Red. masses --      2.7662                 1.4664                 1.2789
 Frc consts  --      3.3188                 1.7658                 1.5541
 IR Inten    --     44.3935                28.6556                26.3752

                     64                     65                     66
                      A                      A                      A
 Frequencies --   1461.2802              1491.2664              1505.8734
 Red. masses --      1.2166                 1.0917                 1.1119
 Frc consts  --      1.5306                 1.4304                 1.4856
 IR Inten    --     14.7256                 4.2159                20.8888

                     67                     68                     69
                      A                      A                      A
 Frequencies --   1507.3231              1511.2007              1521.7689
 Red. masses --      2.1321                 1.0839                 1.0470
 Frc consts  --      2.8541                 1.4584                 1.4285
 IR Inten    --     63.7476                 3.5627                 0.4719

                     70                     71                     72
                      A                      A                      A
 Frequencies --   1534.5335              1540.8559              1550.6672
 Red. masses --      1.0573                 1.0583                 1.0542
 Frc consts  --      1.4669                 1.4803                 1.4936
 IR Inten    --      3.5060                 7.0853                11.7514

                     73                     74                     75
                      A                      A                      A
 Frequencies --   1606.8502              1698.7060              1786.1733
 Red. masses --      1.3073                 6.2067                 9.3591
 Frc consts  --      1.9888                10.5523                17.5927
 IR Inten    --    140.2124                34.0800               432.2114

                     76                     77                     78
                      A                      A                      A
 Frequencies --   1816.9212              1849.7918              3052.8391
 Red. masses --      9.4431                 8.4114                 1.0371
 Frc consts  --     18.3669                16.9577                 5.6947
 IR Inten    --    303.7801               716.2751                18.3462

                     79                     80                     81
                      A                      A                      A
 Frequencies --   3062.2102              3069.7659              3095.4778
 Red. masses --      1.0385                 1.0374                 1.0602
 Frc consts  --      5.7376                 5.7598                 5.9856
 IR Inten    --     16.7700                16.7444                 7.1290

                     82                     83                     84
                      A                      A                      A
 Frequencies --   3121.5332              3129.5187              3133.6896
 Red. masses --      1.1003                 1.0985                 1.1020
 Frc consts  --      6.3171                 6.3387                 6.3762
 IR Inten    --     13.3518                 5.1660                27.5306

                     85                     86                     87
                      A                      A                      A
 Frequencies --   3136.9741              3138.7526              3146.1513
 Red. masses --      1.1041                 1.1011                 1.1020
 Frc consts  --      6.4012                 6.3912                 6.4270
 IR Inten    --     10.9899                58.9300                17.2518

                     88                     89                     90
                      A                      A                      A
 Frequencies --   3153.5034              3242.4442              3572.7494
 Red. masses --      1.1020                 1.0935                 1.0441
 Frc consts  --      6.4570                 6.7736                 7.8521
 IR Inten    --     26.7806                 6.4502                19.0243

                     91                     92                     93
                      A                      A                      A
 Frequencies --   3600.8780              3641.1840              3703.3248
 Red. masses --      1.0774                 1.0786                 1.1039
 Frc consts  --      8.2307                 8.4258                 8.9200
 IR Inten    --     62.5736                97.6837                71.5870

 - Thermochemistry -
 -------------------
 Temperature   298.150 Kelvin.  Pressure   1.00000 Atm.
 Atom     1 has atomic number  6 and mass  12.00000

 Molecular mass:   240.12224 amu.
 Principal axes and moments of inertia in atomic units:
                           1         2         3
     Eigenvalues --  2422.121305896.441216354.92142
           X            0.99982  -0.01814   0.00480
           Y            0.01809   0.99979   0.01002
           Z           -0.00498  -0.00993   0.99994
 This molecule is an asymmetric top.
 Rotational symmetry number  1.
 Warning -- assumption of classical behavior for rotation
           may cause significant error
 Rotational temperatures (Kelvin)      0.03576     0.01469     0.01363
 Rotational constants (GHZ):           0.74511     0.30607     0.28399
 Zero-point vibrational energy     717826.8 (Joules/Mol)
                                  171.56472 (Kcal/Mol)
 Warning -- explicit consideration of  29 degrees of freedom as
           vibrations may cause significant error
 Vibrational temperatures:     44.31    73.67   100.17   108.15   124.47
          (Kelvin)            188.04   220.87   236.47   311.03   338.61
                              389.26   391.71   422.63   452.07   463.00
                              515.57   540.25   565.72   571.61   600.59
                              614.94   628.98   708.87   729.49   773.79
                              784.48   797.02   820.90   850.42   926.57
                              979.01   996.37  1051.54  1076.08  1093.65
                             1143.81  1181.31  1260.97  1293.70  1332.32
                             1339.08  1358.36  1402.17  1406.57  1470.55
                             1522.91  1532.94  1598.91  1609.54  1674.39
                             1727.66  1780.29  1804.03  1820.28  1849.62
                             1925.29  1955.98  1969.17  1990.55  2030.15
                             2053.13  2056.85  2066.28  2102.46  2145.60
                             2166.62  2168.70  2174.28  2189.49  2207.85
                             2216.95  2231.06  2311.90  2444.06  2569.91
                             2614.14  2661.44  4392.35  4405.84  4416.71
                             4453.70  4491.19  4502.68  4508.68  4513.41
                             4515.96  4526.61  4537.19  4665.15  5140.39
                             5180.86  5238.85  5328.26

 Zero-point correction=                           0.273406 (Hartree/Particle)
 Thermal correction to Energy=                    0.290423
 Thermal correction to Enthalpy=                  0.291367
 Thermal correction to Gibbs Free Energy=         0.228925
 Sum of electronic and zero-point Energies=           -835.210632
 Sum of electronic and thermal Energies=              -835.193615
 Sum of electronic and thermal Enthalpies=            -835.192671
 Sum of electronic and thermal Free Energies=         -835.255113

                     E (Thermal)             CV                S
                      KCal/Mol        Cal/Mol-Kelvin    Cal/Mol-Kelvin
 Total                  182.243             65.576            131.420
 Electronic               0.000              0.000              0.000
 Translational            0.889              2.981             42.329
 Rotational               0.889              2.981             32.873
 Vibrational            180.466             59.615             56.218
 Vibration     1          0.594              1.984              5.777
 Vibration     2          0.595              1.977              4.770
 Vibration     3          0.598              1.969              4.164
 Vibration     4          0.599              1.966              4.013
 Vibration     5          0.601              1.959              3.737
 Vibration     6          0.612              1.923              2.936
 Vibration     7          0.619              1.899              2.628
 Vibration     8          0.623              1.886              2.499
 Vibration     9          0.645              1.816              1.991
 Vibration    10          0.655              1.787              1.838
 Vibration    11          0.674              1.727              1.593
 Vibration    12          0.675              1.724              1.582
 Vibration    13          0.689              1.685              1.452
 Vibration    14          0.702              1.647              1.340
 Vibration    15          0.707              1.632              1.301
 Vibration    16          0.733              1.558              1.129
 Vibration    17          0.746              1.522              1.057
 Vibration    18          0.760              1.485              0.988
 Vibration    19          0.764              1.476              0.973
 Vibration    20          0.780              1.432              0.901
 Vibration    21          0.789              1.411              0.867
 Vibration    22          0.797              1.389              0.836
 Vibration    23          0.848              1.266              0.677
 Vibration    24          0.862              1.234              0.641
 Vibration    25          0.893              1.166              0.570
 Vibration    26          0.900              1.150              0.554
 Vibration    27          0.909              1.131              0.536
 Vibration    28          0.927              1.095              0.503
 Vibration    29          0.948              1.051              0.465

                           ! Non-Optimized Parameters !
 Normal termination of Gaussian 16 at Fri Dec 11 13:27:19 2020.

 ----------------------------------------------------------------------
 # B3LYP/6-311++G(d,p) empiricaldispersion=gd3bj scf=xqc pop=npa geom=c
 heck
 ----------------------------------------------------------------------

 ---------------------------------------
 CID_138926570_JID_7769_Energie_neutraal
 ---------------------------------------
 Structure from the checkpoint file:  "JID_7769.chk"
 Charge =  0 Multiplicity = 1

 SCF Done:  E(RB3LYP) =  -835.738883403     A.U. after   15 cycles
 Normal termination of Gaussian 16 at Fri Dec 11 13:33:52 2020.

 ----------------------------------------------------------------------
 # B3LYP/6-311++G(d,p) empiricaldispersion=gd3bj scf=xqc pop=npa geom=c
 heck
 ----------------------------------------------------------------------

 -------------------------------------
 CID_138926570_JID_7769_Energie_kation
 -------------------------------------
 Structure from the checkpoint file:  "JID_7769.chk"
 Charge =  1 Multiplicity = 2

 SCF Done:  E(UB3LYP) =  -835.440617395     A.U. after   25 cycles
 Normal termination of Gaussian 16 at Fri Dec 11 13:49:14 2020.
 Gaussian 16:  ES64L-G16RevA.03 25-Dec-2016

 ----------------------------------------------------------------------
 # B3LYP/6-311++G(d,p) empiricaldispersion=gd3bj scf=xqc pop=npa geom=c
 heck
 ----------------------------------------------------------------------

 ------------------------------------
 CID_138926570_JID_7769_Energie_anion
 ------------------------------------
 Structure from the checkpoint file:  "JID_7769.chk"
 Charge = -1 Multiplicity = 2

                         Standard orientation:
 ---------------------------------------------------------------------
 Center     Atomic      Atomic             Coordinates (Angstroms)
 Number     Number       Type             X           Y           Z
 ---------------------------------------------------------------------
      1          6           0       -2.812777    1.478456   -0.415133
      2          6           0       -1.292158    1.513257   -0.187360
      3          6           0       -0.649325    2.239776   -1.377101
      4          6           0       -0.981951    2.285978    1.107717
      5          7           0       -0.782670    0.096484   -0.148875
      6          6           0       -1.501967   -0.812932    0.756397
      7          6           0       -2.611190   -1.627748    0.081263
      8          8           0       -3.513944   -2.131273    0.732346
      9          7           0       -2.444549   -1.803641   -1.262072
     10          6           0        0.627070   -0.077862   -0.136330
     11          6           0        1.301483   -0.303326   -1.290551
     12          7           0        2.666615   -0.455044   -1.342535
     13          6           0        3.491504   -0.442436   -0.222251
     14          8           0        4.697533   -0.587386   -0.281628
     15          7           0        2.781259   -0.250953    0.951675
     16          6           0        1.397647   -0.058747    1.120669
     17          8           0        0.933909    0.089636    2.240774
     18          1           0       -3.187858    2.503512   -0.494740
     19          1           0       -3.348944    0.997132    0.407168
     20          1           0       -3.062191    0.950731   -1.340444
     21          1           0       -1.076580    3.243381   -1.467563
     22          1           0        0.431853    2.349556   -1.255158
     23          1           0       -0.841088    1.702988   -2.313378
     24          1           0       -1.381654    1.776247    1.987910
     25          1           0        0.094694    2.400934    1.255148
     26          1           0       -1.427895    3.285817    1.060355
     27          1           0       -0.796898   -1.537257    1.172263
     28          1           0       -1.943931   -0.305315    1.617162
     29          1           0       -1.812737   -1.170186   -1.732426
     30          1           0       -3.200051   -2.230421   -1.779130
     31          1           0        0.784207   -0.354618   -2.240851
     32          1           0        3.140237   -0.612267   -2.221113
     33          1           0        3.334252   -0.242484    1.801591
 ---------------------------------------------------------------------

 SCF Done:  E(UB3LYP) =  -835.747127259     A.U. after   33 cycles
 SCF Done:  E(UB3LYP) =  -835.747127259     a.u. after    1 cycles

 The electronic state is 2-A.
 Alpha  occ. eigenvalues --  -18.98785 -18.98485 -18.96464 -14.24804 -14.23903
 Alpha  occ. eigenvalues --  -14.22197 -14.20794 -10.20113 -10.16497 -10.14638
 Alpha  occ. eigenvalues --  -10.11458 -10.09197 -10.08610 -10.07322 -10.06450
 Alpha  occ. eigenvalues --  -10.06071 -10.05364  -0.95926  -0.93374  -0.91970
 Alpha  occ. eigenvalues --   -0.85255  -0.82653  -0.80044  -0.79467  -0.69957
 Alpha  occ. eigenvalues --   -0.65606  -0.59860  -0.58854  -0.58416  -0.55353
 Alpha  occ. eigenvalues --   -0.53690  -0.48261  -0.47784  -0.44039  -0.42788
 Alpha  occ. eigenvalues --   -0.42502  -0.39391  -0.38644  -0.37171  -0.35609
 Alpha  occ. eigenvalues --   -0.34913  -0.34571  -0.34351  -0.32950  -0.31978
 Alpha  occ. eigenvalues --   -0.31369  -0.30719  -0.29800  -0.28884  -0.28731
 Alpha  occ. eigenvalues --   -0.27930  -0.27725  -0.26861  -0.24702  -0.24403
 Alpha  occ. eigenvalues --   -0.23897  -0.23111  -0.18299  -0.17365  -0.17132
 Alpha  occ. eigenvalues --   -0.16110  -0.15079  -0.13166  -0.10475   0.03902
 Alpha virt. eigenvalues --    0.06478   0.07568   0.07889   0.09431   0.09915
 Alpha virt. eigenvalues --    0.10362   0.10489   0.10931   0.11500   0.12258
 Alpha virt. eigenvalues --    0.12575   0.13068   0.13196   0.14121   0.14312

  Beta  occ. eigenvalues --  -18.98776 -18.98479 -18.96290 -14.24734 -14.23813
  Beta  occ. eigenvalues --  -14.22158 -14.20802 -10.20105 -10.16495 -10.14460
  Beta  occ. eigenvalues --  -10.11453 -10.09196 -10.08162 -10.07301 -10.06444
  Beta  occ. eigenvalues --  -10.06067 -10.05360  -0.95839  -0.93363  -0.91670
  Beta  occ. eigenvalues --   -0.85016  -0.82623  -0.79817  -0.79398  -0.69901
  Beta  occ. eigenvalues --   -0.65304  -0.59729  -0.58838  -0.58344  -0.55003
  Beta  occ. eigenvalues --   -0.53373  -0.48190  -0.47702  -0.43909  -0.42733
  Beta  occ. eigenvalues --   -0.42339  -0.39287  -0.38452  -0.37083  -0.35244
  Beta  occ. eigenvalues --   -0.34816  -0.34468  -0.34250  -0.32905  -0.31865
  Beta  occ. eigenvalues --   -0.31304  -0.30661  -0.29620  -0.28850  -0.28588
  Beta  occ. eigenvalues --   -0.27844  -0.27201  -0.26707  -0.24669  -0.24292
  Beta  occ. eigenvalues --   -0.23384  -0.22717  -0.18238  -0.17314  -0.16538
  Beta  occ. eigenvalues --   -0.16068  -0.14941  -0.12655  -0.09919
  Beta virt. eigenvalues --    0.06761   0.07935   0.08272   0.09338   0.09738
  Beta virt. eigenvalues --    0.10026   0.10443   0.10536   0.11351   0.11478
  Beta virt. eigenvalues --    0.12438   0.12745   0.13118   0.13481   0.14271

 Mulliken charges and spin densities:
               1          2
     1  C   -0.356453  -0.012209
     2  C   -0.083475   0.105820
     3  C   -0.226883  -0.241340
     4  C   -0.442204  -0.119549
     5  N    0.484354  -0.048338
     6  C    0.098451  -0.228046
     7  C   -0.159542   0.048177
     8  O   -0.334041   0.005951
     9  N   -0.282735  -0.062896
    10  C   -0.699744  -0.283332
    11  C    0.829833  -0.430364
    12  N   -0.400543   0.053702
    13  C    0.484847  -0.187253
    14  O   -0.410629   0.019855
    15  N   -0.421404   0.029348
    16  C    0.072206   0.281878
    17  O   -0.341241   0.061044
    18  H    0.138077   0.013432
    19  H    0.152899   0.012519
    20  H    0.051064   0.086763
    21  H    0.119418   0.007207
    22  H    0.132521   0.056945
    23  H    0.065432   0.080975
    24  H    0.140741   0.008242
    25  H    0.189122   0.001055
    26  H    0.126226  -0.005041
    27  H    0.191783   0.027316
    28  H    0.217489   0.003329
    29  H    0.269358   0.016376
    30  H    0.064695   0.230659
    31  H   -1.082371   1.208742
    32  H    0.070571   0.264816
    33  H    0.342179  -0.005782
 Sum of Mulliken charges =  -1.00000   1.00000

 Dipole moment (field-independent basis, Debye):
    X=             -2.0640    Y=              4.5764    Z=              0.7283  Tot=              5.0729
 Quadrupole moment (field-independent basis, Debye-Ang):
   XX=           -165.4528   YY=           -123.9194   ZZ=           -137.6759
   XY=             -7.1511   XZ=              8.3204   YZ=             -2.1102

 Summary of Natural Population Analysis:

                                       Natural Population
                Natural  -----------------------------------------------
    Atom  No    Charge         Core      Valence    Rydberg      Total
 -----------------------------------------------------------------------
      C    1   -0.29255      0.99961     2.28583    0.00710     3.29255
      C    2    0.07545      0.99957     1.91449    0.01049     2.92455
      C    3   -0.28974      0.99961     2.28286    0.00727     3.28974
      C    4   -0.29520      0.99961     2.28941    0.00618     3.29520
      N    5   -0.29837      0.99966     2.78027    0.01843     3.79837
      C    6   -0.12950      0.99955     2.11763    0.01232     3.12950
      C    7    0.33496      0.99970     1.64172    0.02363     2.66504
      O    8   -0.32982      0.99987     3.32400    0.00595     4.32982
      N    9   -0.40417      0.99970     2.89636    0.00811     3.90417
      C   10   -0.00925      0.99940     1.99579    0.01406     3.00925
      C   11    0.11723      0.99948     1.87057    0.01273     2.88277
      N   12   -0.29515      0.99967     2.78689    0.00860     3.79515
      C   13    0.40541      0.99971     1.57154    0.02335     2.59459
      O   14   -0.33515      0.99987     3.32989    0.00538     4.33515
      N   15   -0.31360      0.99965     2.80646    0.00749     3.81360
      C   16    0.33992      0.99961     1.63675    0.02373     2.66008
      O   17   -0.31441      0.99988     3.30867    0.00586     4.31441
      H   18    0.09752      0.00000     0.40179    0.00069     0.40248
      H   19    0.10348      0.00000     0.39573    0.00079     0.39652
      H   20    0.10306      0.00000     0.39593    0.00101     0.39694
      H   21    0.09534      0.00000     0.40397    0.00069     0.40466
      H   22    0.10668      0.00000     0.39254    0.00077     0.39332
      H   23    0.10248      0.00000     0.39631    0.00121     0.39752
      H   24    0.10492      0.00000     0.39442    0.00066     0.39508
      H   25    0.10782      0.00000     0.39140    0.00077     0.39218
      H   26    0.09148      0.00000     0.40767    0.00085     0.40852
      H   27    0.11994      0.00000     0.37912    0.00094     0.38006
      H   28    0.10325      0.00000     0.39569    0.00106     0.39675
      H   29    0.20479      0.00000     0.29187    0.00334     0.29521
      H   30    0.19076      0.00000     0.30747    0.00176     0.30924
      H   31    0.09892      0.00000     0.39702    0.00406     0.40108
      H   32    0.20360      0.00000     0.29360    0.00279     0.29640
      H   33    0.19988      0.00000     0.29820    0.00193     0.30012
 =======================================================================
   * Total *    0.00000     16.99415    46.78185    0.22400    64.00000

 Normal termination of Gaussian 16 at Fri Dec 11 14:09:34 2020.
