 Gaussian 16, Revision A.03,

 -----------------------------------------------------------
 # opt freq B3LYP/6-31G(d) empiricaldispersion=gd3bj scf=xqc
 -----------------------------------------------------------

 -------------------------------
 CID_113481757_JID_7095_neutraal
 -------------------------------
 Symbolic Z-matrix:
 Charge =  0 Multiplicity = 1

 SCF Done:  E(RB3LYP) =  -766.150592414     A.U. after   15 cycles
 SCF Done:  E(RB3LYP) =  -766.176650832     A.U. after   13 cycles
 SCF Done:  E(RB3LYP) =  -766.178418046     A.U. after   12 cycles
 SCF Done:  E(RB3LYP) =  -766.178319264     A.U. after   12 cycles
 SCF Done:  E(RB3LYP) =  -766.178682123     A.U. after   12 cycles
 SCF Done:  E(RB3LYP) =  -766.178760838     A.U. after   11 cycles
 SCF Done:  E(RB3LYP) =  -766.178772748     A.U. after   10 cycles
 SCF Done:  E(RB3LYP) =  -766.178781554     A.U. after   10 cycles
 SCF Done:  E(RB3LYP) =  -766.178783081     A.U. after    8 cycles
 SCF Done:  E(RB3LYP) =  -766.178783915     A.U. after    8 cycles
 SCF Done:  E(RB3LYP) =  -766.178784220     A.U. after    8 cycles
 SCF Done:  E(RB3LYP) =  -766.178784287     A.U. after    7 cycles
 Optimization completed.
    -- Stationary point found.
 Normal termination of Gaussian 16 at Fri Dec 11 11:47:43 2020.

 --------------------------------------------------------------------
 #N Geom=AllCheck Guess=TCheck SCRF=Check GenChk RB3LYP/6-31G(d) Freq
 --------------------------------------------------------------------

 Structure from the checkpoint file:  "JID_7095.chk"
 -------------------------------
 CID_113481757_JID_7095_neutraal
 -------------------------------
 Charge =  0 Multiplicity = 1

 SCF Done:  E(RB3LYP) =  -766.178784287     A.U. after    1 cycles

  Exact polarizability: 204.830 -14.893 126.342  14.584  14.007 124.397
 Approx polarizability: 271.231 -29.448 194.487  32.252  34.961 206.842

                      1                      2                      3
                      A                      A                      A
 Frequencies --     28.9907                34.7541                67.0460
 Red. masses --      4.4164                 4.4868                 3.0846
 Frc consts  --      0.0022                 0.0032                 0.0082
 IR Inten    --      0.6764                 0.8632                 0.4010

                      4                      5                      6
                      A                      A                      A
 Frequencies --     91.8424                99.4514               109.4578
 Red. masses --      3.4485                 3.8944                 2.5419
 Frc consts  --      0.0171                 0.0227                 0.0179
 IR Inten    --      4.3303                 0.7252                 5.4656

                      7                      8                      9
                      A                      A                      A
 Frequencies --    146.1457               166.4347               214.2654
 Red. masses --      5.9155                 3.0511                 2.0370
 Frc consts  --      0.0744                 0.0498                 0.0551
 IR Inten    --      2.6664                 2.2638                 4.3716

                     10                     11                     12
                      A                      A                      A
 Frequencies --    215.1975               224.9943               236.5482
 Red. masses --      1.9971                 1.8922                 1.9341
 Frc consts  --      0.0545                 0.0564                 0.0638
 IR Inten    --      1.7726                 0.4331                 0.3720

                     13                     14                     15
                      A                      A                      A
 Frequencies --    251.1416               273.2031               288.5081
 Red. masses --      1.8552                 1.6235                 2.1488
 Frc consts  --      0.0689                 0.0714                 0.1054
 IR Inten    --      1.3497                 1.2398                 2.4400

                     16                     17                     18
                      A                      A                      A
 Frequencies --    294.2943               306.3617               334.8051
 Red. masses --      2.1160                 3.2573                 2.7423
 Frc consts  --      0.1080                 0.1801                 0.1811
 IR Inten    --      1.7846                 3.7502                 1.2784

                     19                     20                     21
                      A                      A                      A
 Frequencies --    354.1971               373.2158               415.3455
 Red. masses --      1.5774                 3.5862                 5.2958
 Frc consts  --      0.1166                 0.2943                 0.5383
 IR Inten    --      0.7138                 5.7161                 9.9273

                     22                     23                     24
                      A                      A                      A
 Frequencies --    420.1963               468.8293               477.5105
 Red. masses --      3.3423                 3.1543                 4.9209
 Frc consts  --      0.3477                 0.4085                 0.6611
 IR Inten    --      6.6629                 7.7428                 2.0256

                     25                     26                     27
                      A                      A                      A
 Frequencies --    523.2732               546.4242               584.5568
 Red. masses --      3.9576                 4.1448                 4.4590
 Frc consts  --      0.6385                 0.7291                 0.8977
 IR Inten    --      3.0839                 6.9798                 7.8003

                     28                     29                     30
                      A                      A                      A
 Frequencies --    593.6773               644.6409               665.4859
 Red. masses --      4.6859                 6.3714                 3.8178
 Frc consts  --      0.9731                 1.5600                 0.9962
 IR Inten    --      2.5743                 0.7688                 2.8263

                     31                     32                     33
                      A                      A                      A
 Frequencies --    700.9870               717.0019               760.9651
 Red. masses --      2.8405                 2.2958                 4.0458
 Frc consts  --      0.8224                 0.6954                 1.3803
 IR Inten    --     12.8367                 4.2335                22.2141

                     34                     35                     36
                      A                      A                      A
 Frequencies --    785.5923               816.1624               858.8412
 Red. masses --      1.3967                 2.0313                 1.9728
 Frc consts  --      0.5079                 0.7972                 0.8574
 IR Inten    --     38.9399                52.9822                22.4138

                     37                     38                     39
                      A                      A                      A
 Frequencies --    870.0647               876.9134               918.2802
 Red. masses --      1.6829                 1.5880                 2.7307
 Frc consts  --      0.7506                 0.7195                 1.3567
 IR Inten    --     26.6801                 5.8835                 2.5962

                     40                     41                     42
                      A                      A                      A
 Frequencies --    925.6581               966.6886               982.9682
 Red. masses --      2.0357                 1.2573                 2.6417
 Frc consts  --      1.0277                 0.6923                 1.5039
 IR Inten    --      7.6510                 1.0714                 5.9210

                     43                     44                     45
                      A                      A                      A
 Frequencies --   1013.7724              1018.1449              1064.2861
 Red. masses --      2.5602                 4.3098                 2.0962
 Frc consts  --      1.5502                 2.6322                 1.3989
 IR Inten    --      5.2152                 3.9787                12.9885

                     46                     47                     48
                      A                      A                      A
 Frequencies --   1094.2576              1108.8370              1128.9869
 Red. masses --      3.0325                 2.4231                 1.6109
 Frc consts  --      2.1394                 1.7553                 1.2098
 IR Inten    --     70.6795                21.9005                 8.3069

                     49                     50                     51
                      A                      A                      A
 Frequencies --   1149.1910              1180.6262              1186.4848
 Red. masses --      2.2379                 3.0747                 1.2709
 Frc consts  --      1.7413                 2.5251                 1.0542
 IR Inten    --    107.2428                68.9841                 0.6081

                     52                     53                     54
                      A                      A                      A
 Frequencies --   1186.9189              1200.6990              1206.2884
 Red. masses --      1.3940                 1.3594                 2.2736
 Frc consts  --      1.1571                 1.1547                 1.9493
 IR Inten    --      2.5522               146.8658                29.3859

                     55                     56                     57
                      A                      A                      A
 Frequencies --   1213.0614              1221.1806              1236.9352
 Red. masses --      1.4605                 2.5423                 1.7940
 Frc consts  --      1.2662                 2.2338                 1.6172
 IR Inten    --     13.6999                19.5504                90.9628

                     58                     59                     60
                      A                      A                      A
 Frequencies --   1240.3873              1326.0605              1334.9288
 Red. masses --      1.6495                 2.0691                 3.2821
 Frc consts  --      1.4952                 2.1437                 3.4460
 IR Inten    --     57.6119                32.6546               106.7142

                     61                     62                     63
                      A                      A                      A
 Frequencies --   1370.4237              1375.4427              1418.3329
 Red. masses --      2.1213                 1.8199                 1.1755
 Frc consts  --      2.3473                 2.0285                 1.3932
 IR Inten    --     40.7092                 2.8641                 4.0515

                     64                     65                     66
                      A                      A                      A
 Frequencies --   1432.0052              1440.0407              1465.0447
 Red. masses --      1.2511                 1.2373                 2.1043
 Frc consts  --      1.5116                 1.5117                 2.6611
 IR Inten    --     12.6782                10.8006                15.5472

                     67                     68                     69
                      A                      A                      A
 Frequencies --   1500.2669              1501.0226              1518.7736
 Red. masses --      1.1487                 1.1878                 1.0879
 Frc consts  --      1.5233                 1.5767                 1.4785
 IR Inten    --      7.7281                 9.7198                 4.5318

                     70                     71                     72
                      A                      A                      A
 Frequencies --   1521.2060              1521.2383              1522.0033
 Red. masses --      1.0693                 1.0581                 1.0667
 Frc consts  --      1.4579                 1.4427                 1.4559
 IR Inten    --      6.6855                 3.5284                 7.0415

                     73                     74                     75
                      A                      A                      A
 Frequencies --   1532.1758              1534.7698              1536.6038
 Red. masses --      1.4839                 1.0760                 1.1969
 Frc consts  --      2.0525                 1.4934                 1.6650
 IR Inten    --     28.4383                 4.2754                75.6108

                     76                     77                     78
                      A                      A                      A
 Frequencies --   1542.9845              1549.1655              1567.5326
 Red. masses --      1.0637                 1.0792                 1.7272
 Frc consts  --      1.4921                 1.5259                 2.5005
 IR Inten    --      2.8573                 0.9045                52.4999

                     79                     80                     81
                      A                      A                      A
 Frequencies --   1649.1548              1667.4807              2369.7489
 Red. masses --      4.8581                 5.8815                12.6994
 Frc consts  --      7.7846                 9.6353                42.0181
 IR Inten    --     51.7919               197.0081                 3.1798

                     82                     83                     84
                      A                      A                      A
 Frequencies --   3028.0988              3028.6314              3070.6905
 Red. masses --      1.0343                 1.0347                 1.0842
 Frc consts  --      5.5877                 5.5917                 6.0233
 IR Inten    --     48.5158                49.7652                16.0569

                     85                     86                     87
                      A                      A                      A
 Frequencies --   3073.3924              3086.2340              3088.3026
 Red. masses --      1.0435                 1.0942                 1.1067
 Frc consts  --      5.8072                 6.1403                 6.2191
 IR Inten    --      9.7401                48.4975                43.2675

                     88                     89                     90
                      A                      A                      A
 Frequencies --   3090.1488              3140.0322              3142.9385
 Red. masses --      1.0405                 1.1003                 1.1012
 Frc consts  --      5.8538                 6.3919                 6.4091
 IR Inten    --     10.1288                19.9196                34.0969

                     91                     92                     93
                      A                      A                      A
 Frequencies --   3161.0150              3162.1853              3165.7943
 Red. masses --      1.1011                 1.1000                 1.1030
 Frc consts  --      6.4820                 6.4806                 6.5130
 IR Inten    --      6.7529                25.0788                14.6574

                     94                     95                     96
                      A                      A                      A
 Frequencies --   3179.0948              3193.7539              3199.7558
 Red. masses --      1.1021                 1.0888                 1.0907
 Frc consts  --      6.5627                 6.5432                 6.5792
 IR Inten    --     12.3633                14.7458                 2.9740

                     97                     98                     99
                      A                      A                      A
 Frequencies --   3235.7958              3241.1665              3517.4364
 Red. masses --      1.0906                 1.0930                 1.0743
 Frc consts  --      6.7279                 6.7650                 7.8314
 IR Inten    --     11.7352                 4.4624                 3.8823

 - Thermochemistry -
 -------------------
 Temperature   298.150 Kelvin.  Pressure   1.00000 Atm.
 Atom     1 has atomic number  6 and mass  12.00000

 Molecular mass:   234.13683 amu.
 Principal axes and moments of inertia in atomic units:
                           1         2         3
     Eigenvalues --  1964.748897294.013717723.68860
           X            0.99992   0.00024  -0.01240
           Y            0.00015   0.99950   0.03165
           Z            0.01240  -0.03165   0.99942
 This molecule is an asymmetric top.
 Rotational symmetry number  1.
 Warning -- assumption of classical behavior for rotation
           may cause significant error
 Rotational temperatures (Kelvin)      0.04408     0.01187     0.01121
 Rotational constants (GHZ):           0.91856     0.24743     0.23366
 Zero-point vibrational energy     778062.2 (Joules/Mol)
                                  185.96134 (Kcal/Mol)
 Warning -- explicit consideration of  28 degrees of freedom as
           vibrations may cause significant error
 Vibrational temperatures:     41.71    50.00    96.46   132.14   143.09
          (Kelvin)            157.49   210.27   239.46   308.28   309.62
                              323.72   340.34   361.34   393.08   415.10
                              423.42   440.79   481.71   509.61   536.97
                              597.59   604.57   674.54   687.03   752.87
                              786.18   841.05   854.17   927.49   957.49
                             1008.56  1031.61  1094.86  1130.29  1174.28
                             1235.68  1251.83  1261.68  1321.20  1331.82
                             1390.85  1414.27  1458.59  1464.88  1531.27
                             1574.39  1595.37  1624.36  1653.43  1698.66
                             1707.09  1707.71  1727.54  1735.58  1745.32
                             1757.01  1779.67  1784.64  1907.91  1920.66
                             1971.73  1978.96  2040.66  2060.34  2071.90
                             2107.87  2158.55  2159.64  2185.18  2188.68
                             2188.72  2189.82  2204.46  2208.19  2210.83
                             2220.01  2228.90  2255.33  2372.77  2399.13
                             3409.54  4356.76  4357.53  4418.04  4421.93
                             4440.40  4443.38  4446.03  4517.81  4521.99
                             4548.00  4549.68  4554.87  4574.01  4595.10
                             4603.73  4655.59  4663.32  5060.81

 Zero-point correction=                           0.296348 (Hartree/Particle)
 Thermal correction to Energy=                    0.313940
 Thermal correction to Enthalpy=                  0.314884
 Thermal correction to Gibbs Free Energy=         0.250854
 Sum of electronic and zero-point Energies=           -765.882436
 Sum of electronic and thermal Energies=              -765.864845
 Sum of electronic and thermal Enthalpies=            -765.863900
 Sum of electronic and thermal Free Energies=         -765.927931

                     E (Thermal)             CV                S
                      KCal/Mol        Cal/Mol-Kelvin    Cal/Mol-Kelvin
 Total                  197.000             66.446            134.763
 Electronic               0.000              0.000              0.000
 Translational            0.889              2.981             42.254
 Rotational               0.889              2.981             33.070
 Vibrational            195.223             60.484             59.439
 Vibration     1          0.593              1.984              5.897
 Vibration     2          0.594              1.983              5.538
 Vibration     3          0.598              1.970              4.238
 Vibration     4          0.602              1.955              3.620
 Vibration     5          0.604              1.949              3.465
 Vibration     6          0.606              1.942              3.279
 Vibration     7          0.617              1.907              2.722
 Vibration     8          0.624              1.884              2.475
 Vibration     9          0.644              1.819              2.007
 Vibration    10          0.645              1.818              1.999
 Vibration    11          0.650              1.803              1.919
 Vibration    12          0.655              1.785              1.829
 Vibration    13          0.663              1.761              1.723
 Vibration    14          0.676              1.723              1.576
 Vibration    15          0.685              1.695              1.483
 Vibration    16          0.689              1.684              1.449
 Vibration    17          0.697              1.662              1.382
 Vibration    18          0.716              1.606              1.237
 Vibration    19          0.730              1.567              1.147
 Vibration    20          0.745              1.527              1.067
 Vibration    21          0.779              1.437              0.908
 Vibration    22          0.783              1.426              0.891
 Vibration    23          0.826              1.319              0.741
 Vibration    24          0.834              1.300              0.717
 Vibration    25          0.878              1.198              0.602
 Vibration    26          0.902              1.148              0.552
 Vibration    27          0.942              1.065              0.477
 Vibration    28          0.951              1.045              0.461

                           ! Non-Optimized Parameters !
 Normal termination of Gaussian 16 at Fri Dec 11 12:00:26 2020.

 ----------------------------------------------------------------------
 # B3LYP/6-311++G(d,p) empiricaldispersion=gd3bj scf=xqc pop=npa geom=c
 heck
 ----------------------------------------------------------------------

 ---------------------------------------
 CID_113481757_JID_7095_Energie_neutraal
 ---------------------------------------
 Structure from the checkpoint file:  "JID_7095.chk"
 Charge =  0 Multiplicity = 1

 SCF Done:  E(RB3LYP) =  -766.394607207     A.U. after   16 cycles
 Normal termination of Gaussian 16 at Fri Dec 11 12:07:50 2020.

 ----------------------------------------------------------------------
 # B3LYP/6-311++G(d,p) empiricaldispersion=gd3bj scf=xqc pop=npa geom=c
 heck
 ----------------------------------------------------------------------

 -------------------------------------
 CID_113481757_JID_7095_Energie_kation
 -------------------------------------
 Structure from the checkpoint file:  "JID_7095.chk"
 Charge =  1 Multiplicity = 2

 SCF Done:  E(UB3LYP) =  -766.103855841     A.U. after   24 cycles
 Normal termination of Gaussian 16 at Fri Dec 11 12:20:19 2020.
 Gaussian 16:  ES64L-G16RevA.03 25-Dec-2016

 ----------------------------------------------------------------------
 # B3LYP/6-311++G(d,p) empiricaldispersion=gd3bj scf=xqc pop=npa geom=c
 heck
 ----------------------------------------------------------------------

 ------------------------------------
 CID_113481757_JID_7095_Energie_anion
 ------------------------------------
 Structure from the checkpoint file:  "JID_7095.chk"
 Charge = -1 Multiplicity = 2

                         Standard orientation:
 ---------------------------------------------------------------------
 Center     Atomic      Atomic             Coordinates (Angstroms)
 Number     Number       Type             X           Y           Z
 ---------------------------------------------------------------------
      1          6           0        0.972046    1.394295   -1.343142
      2          6           0        1.702969    1.025808   -0.052001
      3          6           0        1.773939   -0.531714    0.225910
      4          6           0        2.028040   -1.376922   -1.034706
      5          6           0        2.889478   -0.777731    1.166200
      6          7           0        3.759430   -0.999137    1.900549
      7          7           0        0.564223   -1.016945    0.947507
      8          6           0       -0.720567   -0.879069    0.353593
      9          6           0       -1.621630    0.063370    0.853901
     10          6           0       -2.910427    0.180251    0.318003
     11          6           0       -3.301596   -0.635523   -0.748648
     12          6           0       -2.396690   -1.582302   -1.237111
     13          6           0       -1.126412   -1.726772   -0.692061
     14          8           0       -3.697756    1.131730    0.895227
     15          6           0       -5.007827    1.310514    0.381356
     16          8           0        2.954021    1.687423    0.076371
     17          6           0        3.963110    1.420774   -0.883040
     18          1           0        1.481502    1.023311   -2.236479
     19          1           0        0.915249    2.484986   -1.410881
     20          1           0       -0.043762    0.992995   -1.342702
     21          1           0        1.132543    1.435487    0.788476
     22          1           0        2.972616   -1.095076   -1.503706
     23          1           0        2.071657   -2.434010   -0.761862
     24          1           0        1.227460   -1.231167   -1.760132
     25          1           0        0.557443   -0.585760    1.868258
     26          1           0       -1.338584    0.731678    1.661874
     27          1           0       -4.289172   -0.556554   -1.185675
     28          1           0       -2.706356   -2.237288   -2.046683
     29          1           0       -0.464031   -2.509448   -1.039181
     30          1           0       -4.987805    1.609720   -0.674705
     31          1           0       -5.608306    0.397618    0.485745
     32          1           0       -5.455931    2.108553    0.975315
     33          1           0        4.403454    0.423892   -0.752834
     34          1           0        3.604626    1.527132   -1.915194
     35          1           0        4.745113    2.163411   -0.708328
 ---------------------------------------------------------------------

 SCF Done:  E(UB3LYP) =  -766.385905180     A.U. after   33 cycles
 SCF Done:  E(UB3LYP) =  -766.385905180     a.u. after    1 cycles

 The electronic state is 2-A.
 Alpha  occ. eigenvalues --  -19.06838 -19.04945 -14.24693 -14.23450 -10.17946
 Alpha  occ. eigenvalues --  -10.15683 -10.15207 -10.13198 -10.13195 -10.13130
 Alpha  occ. eigenvalues --  -10.13072 -10.09398 -10.09234 -10.08692 -10.08368
 Alpha  occ. eigenvalues --  -10.08203 -10.07992  -0.98474  -0.96222  -0.86805
 Alpha  occ. eigenvalues --   -0.82643  -0.76741  -0.71965  -0.67671  -0.67298
 Alpha  occ. eigenvalues --   -0.64877  -0.61816  -0.61027  -0.58484  -0.53147
 Alpha  occ. eigenvalues --   -0.51852  -0.49851  -0.46039  -0.45231  -0.42716
 Alpha  occ. eigenvalues --   -0.42204  -0.40503  -0.39743  -0.38539  -0.38248
 Alpha  occ. eigenvalues --   -0.37647  -0.35460  -0.34803  -0.33973  -0.33434
 Alpha  occ. eigenvalues --   -0.32650  -0.31645  -0.31271  -0.30881  -0.29654
 Alpha  occ. eigenvalues --   -0.29232  -0.28734  -0.28360  -0.27949  -0.26021
 Alpha  occ. eigenvalues --   -0.25575  -0.24769  -0.24283  -0.22968  -0.20870
 Alpha  occ. eigenvalues --   -0.18733  -0.15041  -0.13576   0.03717
 Alpha virt. eigenvalues --    0.05314   0.06455   0.06481   0.07378   0.07684
 Alpha virt. eigenvalues --    0.07903   0.08169   0.08733   0.09297   0.09593
 Alpha virt. eigenvalues --    0.09778   0.10416   0.10638   0.10997   0.11185

  Beta  occ. eigenvalues --  -19.06828 -19.04943 -14.24692 -14.23439 -10.17942
  Beta  occ. eigenvalues --  -10.15681 -10.15208 -10.13196 -10.13168 -10.13077
  Beta  occ. eigenvalues --  -10.13072 -10.09369 -10.09218 -10.08686 -10.08347
  Beta  occ. eigenvalues --  -10.08194 -10.07968  -0.98452  -0.96213  -0.86796
  Beta  occ. eigenvalues --   -0.82628  -0.76723  -0.71945  -0.67642  -0.67272
  Beta  occ. eigenvalues --   -0.64847  -0.61774  -0.60964  -0.58444  -0.53117
  Beta  occ. eigenvalues --   -0.51815  -0.49809  -0.46017  -0.45193  -0.42696
  Beta  occ. eigenvalues --   -0.42181  -0.40466  -0.39719  -0.38510  -0.38216
  Beta  occ. eigenvalues --   -0.37624  -0.35430  -0.34773  -0.33948  -0.33390
  Beta  occ. eigenvalues --   -0.32619  -0.31618  -0.31243  -0.30855  -0.29630
  Beta  occ. eigenvalues --   -0.29202  -0.28705  -0.28334  -0.27926  -0.25999
  Beta  occ. eigenvalues --   -0.25553  -0.24725  -0.24260  -0.22949  -0.20854
  Beta  occ. eigenvalues --   -0.18719  -0.15026  -0.13560
  Beta virt. eigenvalues --    0.05846   0.06480   0.06536   0.07129   0.07501
  Beta virt. eigenvalues --    0.08094   0.08274   0.08386   0.09195   0.09780
  Beta virt. eigenvalues --    0.09870   0.10192   0.10532   0.10903   0.11158

 Mulliken charges and spin densities:
               1          2
     1  C    0.433123  -0.919924
     2  C   -1.630322   1.034792
     3  C    1.027283  -0.180980
     4  C    0.131690  -0.845731
     5  C   -0.347075  -0.121802
     6  N   -0.226240   0.005818
     7  N    0.100496  -0.005023
     8  C   -0.136041   0.033424
     9  C   -0.554937   0.452389
    10  C   -1.089274   0.278968
    11  C    0.913581  -0.656048
    12  C    0.140873  -0.549735
    13  C    0.700411  -0.443165
    14  O   -0.190351   0.049984
    15  C    1.202603  -1.513301
    16  O   -0.046526   0.008411
    17  C    0.351023  -0.606255
    18  H   -0.061971   0.240610
    19  H   -0.096924   0.269123
    20  H    0.429925  -0.266505
    21  H    0.119051   0.096929
    22  H   -0.146463   0.293318
    23  H    0.064900   0.144714
    24  H   -0.286979   0.439977
    25  H    0.256618   0.013720
    26  H    0.088097   0.077104
    27  H   -0.294921   0.493246
    28  H   -0.748335   0.944620
    29  H    0.122544   0.052026
    30  H   -0.403160   0.565988
    31  H   -0.308245   0.470542
    32  H   -0.394441   0.564872
    33  H    0.042985   0.112624
    34  H   -0.237893   0.381726
    35  H    0.074896   0.083542
 Sum of Mulliken charges =  -1.00000   1.00000

 Dipole moment (field-independent basis, Debye):
    X=              4.6428    Y=              0.1287    Z=              2.7533  Tot=              5.3994
 Quadrupole moment (field-independent basis, Debye-Ang):
   XX=           -217.8048   YY=           -144.7313   ZZ=           -148.6206
   XY=              6.7417   XZ=            -10.5487   YZ=             -0.1489

 Summary of Natural Population Analysis:

                                       Natural Population
                Natural  -----------------------------------------------
    Atom  No    Charge         Core      Valence    Rydberg      Total
 -----------------------------------------------------------------------
      C    1   -0.30770      0.99963     2.30182    0.00625     3.30770
      C    2    0.07292      0.99952     1.91168    0.01588     2.92708
      C    3    0.00942      0.99946     1.97850    0.01262     2.99058
      C    4   -0.28992      0.99963     2.28214    0.00816     3.28992
      C    5    0.16338      0.99961     1.81424    0.02277     2.83662
      N    6   -0.17395      0.99979     2.66332    0.01084     3.67395
      N    7   -0.32463      0.99969     2.81334    0.01160     3.82463
      C    8    0.08014      0.99947     1.90798    0.01241     2.91986
      C    9   -0.13939      0.99947     2.13038    0.00954     3.13939
      C   10    0.16815      0.99939     1.81862    0.01384     2.83185
      C   11   -0.14966      0.99951     2.14060    0.00954     3.14966
      C   12   -0.08094      0.99957     2.07080    0.01057     3.08094
      C   13   -0.12948      0.99950     2.11992    0.01007     3.12948
      O   14   -0.27203      0.99986     3.26240    0.00977     4.27203
      C   15   -0.10080      0.99960     2.09219    0.00900     3.10080
      O   16   -0.29995      0.99988     3.29017    0.00990     4.29995
      C   17   -0.10273      0.99959     2.09379    0.00934     3.10273
      H   18    0.10217      0.00000     0.39646    0.00137     0.39783
      H   19    0.10767      0.00000     0.39142    0.00091     0.39233
      H   20    0.11386      0.00000     0.38462    0.00152     0.38614
      H   21    0.09279      0.00000     0.40529    0.00192     0.40721
      H   22    0.10722      0.00000     0.39106    0.00171     0.39278
      H   23    0.10925      0.00000     0.38940    0.00134     0.39075
      H   24    0.11305      0.00000     0.38546    0.00150     0.38695
      H   25    0.18091      0.00000     0.31692    0.00217     0.31909
      H   26    0.10408      0.00000     0.39422    0.00170     0.39592
      H   27    0.11106      0.00000     0.38679    0.00214     0.38894
      H   28    0.10421      0.00000     0.39434    0.00146     0.39579
      H   29    0.10597      0.00000     0.39242    0.00161     0.39403
      H   30    0.08810      0.00000     0.40973    0.00216     0.41190
      H   31    0.08653      0.00000     0.41155    0.00192     0.41347
      H   32    0.09456      0.00000     0.40409    0.00135     0.40544
      H   33    0.08078      0.00000     0.41781    0.00141     0.41922
      H   34    0.08342      0.00000     0.41516    0.00142     0.41658
      H   35    0.09154      0.00000     0.40757    0.00089     0.40846
 =======================================================================
   * Total *    0.00000     16.99317    45.78623    0.22060    63.00000

 Normal termination of Gaussian 16 at Fri Dec 11 12:37:38 2020.
