 Gaussian 16, Revision A.03,

 -----------------------------------------------------------
 # opt freq B3LYP/6-31G(d) empiricaldispersion=gd3bj scf=xqc
 -----------------------------------------------------------

 -------------------------------
 CID_69448947_JID_10164_neutraal
 -------------------------------
 Symbolic Z-matrix:
 Charge =  0 Multiplicity = 1

 SCF Done:  E(RB3LYP) =  -1277.75530061     A.U. after   15 cycles
 SCF Done:  E(RB3LYP) =  -1277.76623850     A.U. after   13 cycles
 SCF Done:  E(RB3LYP) =  -1277.76723131     A.U. after   13 cycles
 SCF Done:  E(RB3LYP) =  -1277.76803803     A.U. after   13 cycles
 SCF Done:  E(RB3LYP) =  -1277.76891678     A.U. after   13 cycles
 SCF Done:  E(RB3LYP) =  -1277.76944686     A.U. after   14 cycles
 SCF Done:  E(RB3LYP) =  -1277.77056739     A.U. after   12 cycles
 SCF Done:  E(RB3LYP) =  -1277.77150784     A.U. after   12 cycles
 SCF Done:  E(RB3LYP) =  -1277.77280490     A.U. after   15 cycles
 SCF Done:  E(RB3LYP) =  -1277.77405579     A.U. after   12 cycles
 SCF Done:  E(RB3LYP) =  -1277.77637320     A.U. after   10 cycles
 SCF Done:  E(RB3LYP) =  -1277.77639777     A.U. after   10 cycles
 SCF Done:  E(RB3LYP) =  -1277.77639881     A.U. after    8 cycles
 SCF Done:  E(RB3LYP) =  -1277.77639878     A.U. after    8 cycles
 SCF Done:  E(RB3LYP) =  -1277.77639896     A.U. after    7 cycles
 Optimization completed.
    -- Stationary point found.
 Normal termination of Gaussian 16 at Mon Dec 14 17:46:06 2020.

 --------------------------------------------------------------------
 #N Geom=AllCheck Guess=TCheck SCRF=Check GenChk RB3LYP/6-31G(d) Freq
 --------------------------------------------------------------------

 Structure from the checkpoint file:  "JID_10164.chk"
 -------------------------------
 CID_69448947_JID_10164_neutraal
 -------------------------------
 Charge =  0 Multiplicity = 1

 SCF Done:  E(RB3LYP) =  -1277.77639896     A.U. after    1 cycles

  Exact polarizability: 271.588  -8.317 193.257  -5.656   1.979 115.473
 Approx polarizability: 352.200 -17.203 327.763  -9.288  10.444 178.504

                      1                      2                      3
                      A                      A                      A
 Frequencies --     27.5737                36.5782                68.1038
 Red. masses --      4.6759                 3.6477                 4.5473
 Frc consts  --      0.0021                 0.0029                 0.0124
 IR Inten    --      0.7759                 0.1506                 1.1587

                      4                      5                      6
                      A                      A                      A
 Frequencies --     69.9233                77.9444               113.3485
 Red. masses --      4.9666                 5.2590                 4.2029
 Frc consts  --      0.0143                 0.0188                 0.0318
 IR Inten    --      1.6663                 4.3827                 2.5738

                      7                      8                      9
                      A                      A                      A
 Frequencies --    144.4999               148.5666               177.1783
 Red. masses --      4.3403                 4.2921                 4.5627
 Frc consts  --      0.0534                 0.0558                 0.0844
 IR Inten    --      0.7506                 5.6210                 2.5352

                     10                     11                     12
                      A                      A                      A
 Frequencies --    183.4684               203.9884               220.0651
 Red. masses --      4.7070                 3.1496                 1.1675
 Frc consts  --      0.0934                 0.0772                 0.0333
 IR Inten    --      6.7654                 4.1416                 0.7568

                     13                     14                     15
                      A                      A                      A
 Frequencies --    233.4393               250.1857               270.6243
 Red. masses --      2.9958                 1.6481                 2.3975
 Frc consts  --      0.0962                 0.0608                 0.1035
 IR Inten    --      2.6542                 6.2286                 3.9163

                     16                     17                     18
                      A                      A                      A
 Frequencies --    299.3374               329.2096               332.5639
 Red. masses --      4.6209                 4.1422                 4.1436
 Frc consts  --      0.2439                 0.2645                 0.2700
 IR Inten    --      2.5265                10.9193                 5.0768

                     19                     20                     21
                      A                      A                      A
 Frequencies --    343.9166               353.3210               369.4418
 Red. masses --      2.4396                 4.5878                 2.2761
 Frc consts  --      0.1700                 0.3374                 0.1830
 IR Inten    --      1.4422                 3.2475                 0.3361

                     22                     23                     24
                      A                      A                      A
 Frequencies --    387.5191               394.1456               417.6888
 Red. masses --      6.2805                 2.6549                 1.7048
 Frc consts  --      0.5557                 0.2430                 0.1752
 IR Inten    --     10.8321                 3.9736               148.0891

                     25                     26                     27
                      A                      A                      A
 Frequencies --    420.2112               437.6666               488.8473
 Red. masses --      2.3570                 2.6373                 5.5895
 Frc consts  --      0.2452                 0.2976                 0.7870
 IR Inten    --     68.1706                 2.4154                 1.4559

                     28                     29                     30
                      A                      A                      A
 Frequencies --    540.1688               547.3807               566.8857
 Red. masses --      1.5170                 4.2545                 4.6028
 Frc consts  --      0.2608                 0.7511                 0.8715
 IR Inten    --     45.9899                 0.8599                18.5403

                     31                     32                     33
                      A                      A                      A
 Frequencies --    600.3047               625.1685               657.6883
 Red. masses --      3.2346                 4.5172                 4.1843
 Frc consts  --      0.6868                 1.0402                 1.0664
 IR Inten    --     10.8451                13.5671                19.3509

                     34                     35                     36
                      A                      A                      A
 Frequencies --    664.5907               673.0634               718.6733
 Red. masses --      4.4304                 4.1574                 2.8862
 Frc consts  --      1.1529                 1.1096                 0.8783
 IR Inten    --      2.7949                16.5293                10.5807

                     37                     38                     39
                      A                      A                      A
 Frequencies --    765.3771               780.5227               800.3074
 Red. masses --      2.8689                 6.7823                 1.5680
 Frc consts  --      0.9902                 2.4344                 0.5917
 IR Inten    --      8.3258                25.2007                50.4078

                     40                     41                     42
                      A                      A                      A
 Frequencies --    818.8854               848.4172               865.6303
 Red. masses --      3.0501                 3.6059                 2.5039
 Frc consts  --      1.2051                 1.5293                 1.1054
 IR Inten    --     11.0574                18.1320                 6.5403

                     43                     44                     45
                      A                      A                      A
 Frequencies --    903.5422               925.1327               938.2839
 Red. masses --      3.4262                 2.0735                 1.4520
 Frc consts  --      1.6480                 1.0456                 0.7532
 IR Inten    --     15.2238                15.9732                 1.1393

                     46                     47                     48
                      A                      A                      A
 Frequencies --    980.6805               986.3412               992.6420
 Red. masses --      2.3113                 1.8682                 1.6165
 Frc consts  --      1.3097                 1.0708                 0.9385
 IR Inten    --      3.1182                 3.5586                16.1394

                     49                     50                     51
                      A                      A                      A
 Frequencies --   1006.4228              1020.3996              1023.0465
 Red. masses --      3.0905                 2.4513                 2.2075
 Frc consts  --      1.8443                 1.5038                 1.3613
 IR Inten    --     29.2170                 9.5010                51.4825

                     52                     53                     54
                      A                      A                      A
 Frequencies --   1053.2188              1076.4626              1085.4243
 Red. masses --      2.3986                 1.3390                 1.3283
 Frc consts  --      1.5676                 0.9142                 0.9220
 IR Inten    --      2.3774                 7.3105                19.6234

                     55                     56                     57
                      A                      A                      A
 Frequencies --   1111.3643              1115.7907              1120.3722
 Red. masses --      1.7830                 2.0954                 2.0591
 Frc consts  --      1.2975                 1.5370                 1.5228
 IR Inten    --     15.3648                 1.1011                 7.8840

                     58                     59                     60
                      A                      A                      A
 Frequencies --   1133.7346              1138.6533              1163.1800
 Red. masses --      1.4380                 5.0073                 1.7873
 Frc consts  --      1.0890                 3.8250                 1.4248
 IR Inten    --      6.4183                86.2105                99.1774

                     61                     62                     63
                      A                      A                      A
 Frequencies --   1187.8561              1211.0109              1244.9823
 Red. masses --      3.2380                 2.5563                 1.1200
 Frc consts  --      2.6919                 2.2088                 1.0228
 IR Inten    --     12.6803               144.8967                 1.4257

                     64                     65                     66
                      A                      A                      A
 Frequencies --   1266.2484              1303.5898              1314.1477
 Red. masses --      1.2675                 2.9336                 1.6136
 Frc consts  --      1.1974                 2.9372                 1.6418
 IR Inten    --     13.0764                49.1256                14.8001

                     67                     68                     69
                      A                      A                      A
 Frequencies --   1323.8636              1344.3530              1359.0237
 Red. masses --      3.2454                 1.5694                 2.2913
 Frc consts  --      3.3512                 1.6711                 2.4934
 IR Inten    --    231.5781                39.6988                25.3806

                     70                     71                     72
                      A                      A                      A
 Frequencies --   1386.7665              1399.3660              1432.4859
 Red. masses --      1.8514                 1.4447                 1.8008
 Frc consts  --      2.0978                 1.6669                 2.1772
 IR Inten    --     26.3741                53.2597                59.1646

                     73                     74                     75
                      A                      A                      A
 Frequencies --   1438.0113              1440.5364              1449.0637
 Red. masses --      1.3569                 1.4546                 3.5419
 Frc consts  --      1.6532                 1.7785                 4.3819
 IR Inten    --     43.0692                 9.3226               108.8702

                     76                     77                     78
                      A                      A                      A
 Frequencies --   1452.9763              1483.7936              1507.3124
 Red. masses --      1.4213                 3.1149                 1.3552
 Frc consts  --      1.7679                 4.0405                 1.8142
 IR Inten    --     30.9931               153.8709                38.4636

                     79                     80                     81
                      A                      A                      A
 Frequencies --   1512.6522              1516.0063              1520.6221
 Red. masses --      1.1186                 1.0469                 1.0845
 Frc consts  --      1.5080                 1.4176                 1.4775
 IR Inten    --     14.9942                 1.8751                 0.5741

                     82                     83                     84
                      A                      A                      A
 Frequencies --   1521.3141              1531.1470              1540.1422
 Red. masses --      1.0615                 1.1056                 1.0582
 Frc consts  --      1.4474                 1.5272                 1.4790
 IR Inten    --      8.4244                 3.3856                23.0033

                     85                     86                     87
                      A                      A                      A
 Frequencies --   1541.4278              1596.8559              1620.3679
 Red. masses --      1.1466                 3.1937                 5.1637
 Frc consts  --      1.6051                 4.7982                 7.9880
 IR Inten    --     14.0373               778.3944               162.5518

                     88                     89                     90
                      A                      A                      A
 Frequencies --   1645.8874              1726.6264              1747.0076
 Red. masses --      1.3974                 4.7865                 7.7463
 Frc consts  --      2.2303                 8.4074                13.9295
 IR Inten    --    153.3195               207.2587                63.8008

                     91                     92                     93
                      A                      A                      A
 Frequencies --   2965.4955              2997.4270              3008.0937
 Red. masses --      1.0729                 1.0724                 1.0670
 Frc consts  --      5.5593                 5.6768                 5.6886
 IR Inten    --     64.7575                35.0648                64.6465

                     94                     95                     96
                      A                      A                      A
 Frequencies --   3039.2114              3045.8900              3079.7539
 Red. masses --      1.0357                 1.0393                 1.0926
 Frc consts  --      5.6365                 5.6809                 6.1057
 IR Inten    --     24.8378                55.9935                20.4000

                     97                     98                     99
                      A                      A                      A
 Frequencies --   3085.7978              3097.2355              3102.9497
 Red. masses --      1.0892                 1.1021                 1.1018
 Frc consts  --      6.1110                 6.2289                 6.2501
 IR Inten    --     23.9566                12.4539                48.0387

                    100                    101                    102
                      A                      A                      A
 Frequencies --   3114.0617              3118.9280              3149.5092
 Red. masses --      1.1024                 1.0951                 1.0545
 Frc consts  --      6.2984                 6.2762                 6.1631
 IR Inten    --     27.4985                51.3958                14.8187

                    103                    104                    105
                      A                      A                      A
 Frequencies --   3162.9566              3168.2646              3237.9781
 Red. masses --      1.0974                 1.0891                 1.1178
 Frc consts  --      6.4684                 6.4413                 6.9048
 IR Inten    --      3.9144                 8.0130                 4.6594

                    106                    107                    108
                      A                      A                      A
 Frequencies --   3381.3507              3587.5032              3711.6452
 Red. masses --      1.0801                 1.0468                 1.1018
 Frc consts  --      7.2764                 7.9374                 8.9430
 IR Inten    --    219.2712                42.4508                41.7880

 - Thermochemistry -
 -------------------
 Temperature   298.150 Kelvin.  Pressure   1.00000 Atm.
 Atom     1 has atomic number  6 and mass  12.00000

 Molecular mass:   294.10381 amu.
 Principal axes and moments of inertia in atomic units:
                           1         2         3
     Eigenvalues --  2860.24258********************
           X            0.99999  -0.00328   0.00248
           Y            0.00331   0.99994  -0.01000
           Z           -0.00244   0.01001   0.99995
 This molecule is an asymmetric top.
 Rotational symmetry number  1.
 Warning -- assumption of classical behavior for rotation
           may cause significant error
 Rotational temperatures (Kelvin)      0.03028     0.00783     0.00655
 Rotational constants (GHZ):           0.63097     0.16325     0.13654
 Zero-point vibrational energy     817447.9 (Joules/Mol)
                                  195.37473 (Kcal/Mol)
 Warning -- explicit consideration of  31 degrees of freedom as
           vibrations may cause significant error
 Vibrational temperatures:     39.67    52.63    97.99   100.60   112.14
          (Kelvin)            163.08   207.90   213.75   254.92   263.97
                              293.49   316.62   335.87   359.96   389.37
                              430.68   473.66   478.49   494.82   508.35
                              531.54   557.55   567.09   600.96   604.59
                              629.70   703.34   777.18   787.56   815.62
                              863.70   899.48   946.27   956.20   968.39
                             1034.01  1101.21  1123.00  1151.46  1178.19
                             1220.68  1245.45  1300.00  1331.06  1349.98
                             1410.98  1419.12  1428.19  1448.02  1468.13
                             1471.94  1515.35  1548.79  1561.68  1599.01
                             1605.37  1611.97  1631.19  1638.27  1673.56
                             1709.06  1742.37  1791.25  1821.85  1875.57
                             1890.77  1904.74  1934.22  1955.33  1995.25
                             2013.38  2061.03  2068.98  2072.61  2084.88
                             2090.51  2134.85  2168.69  2176.37  2181.19
                             2187.84  2188.83  2202.98  2215.92  2217.77
                             2297.52  2331.35  2368.06  2484.23  2513.55
                             4266.69  4312.63  4327.98  4372.75  4382.36
                             4431.08  4439.77  4456.23  4464.45  4480.44
                             4487.44  4531.44  4550.79  4558.43  4658.73
                             4865.01  5161.62  5340.23

 Zero-point correction=                           0.311349 (Hartree/Particle)
 Thermal correction to Energy=                    0.330617
 Thermal correction to Enthalpy=                  0.331561
 Thermal correction to Gibbs Free Energy=         0.263496
 Sum of electronic and zero-point Energies=          -1277.465050
 Sum of electronic and thermal Energies=             -1277.445782
 Sum of electronic and thermal Enthalpies=           -1277.444838
 Sum of electronic and thermal Free Energies=        -1277.512903

                     E (Thermal)             CV                S
                      KCal/Mol        Cal/Mol-Kelvin    Cal/Mol-Kelvin
 Total                  207.465             74.083            143.256
 Electronic               0.000              0.000              0.000
 Translational            0.889              2.981             42.934
 Rotational               0.889              2.981             34.390
 Vibrational            205.688             68.121             65.932
 Vibration     1          0.593              1.984              5.997
 Vibration     2          0.594              1.982              5.436
 Vibration     3          0.598              1.969              4.207
 Vibration     4          0.598              1.968              4.156
 Vibration     5          0.599              1.964              3.942
 Vibration     6          0.607              1.938              3.211
 Vibration     7          0.616              1.909              2.743
 Vibration     8          0.618              1.904              2.691
 Vibration     9          0.628              1.870              2.358
 Vibration    10          0.631              1.862              2.293
 Vibration    11          0.640              1.834              2.097
 Vibration    12          0.647              1.811              1.959
 Vibration    13          0.654              1.790              1.852
 Vibration    14          0.663              1.762              1.729
 Vibration    15          0.674              1.727              1.592
 Vibration    16          0.692              1.675              1.421
 Vibration    17          0.712              1.617              1.264
 Vibration    18          0.715              1.610              1.248
 Vibration    19          0.723              1.588              1.194
 Vibration    20          0.730              1.568              1.151
 Vibration    21          0.742              1.535              1.082
 Vibration    22          0.756              1.497              1.010
 Vibration    23          0.761              1.483              0.984
 Vibration    24          0.781              1.432              0.900
 Vibration    25          0.783              1.426              0.891
 Vibration    26          0.798              1.388              0.834
 Vibration    27          0.845              1.275              0.687
 Vibration    28          0.895              1.161              0.565
 Vibration    29          0.903              1.145              0.550
 Vibration    30          0.923              1.103              0.510
 Vibration    31          0.958              1.031              0.449

 Optimization completed.
    -- Stationary point found.
 Normal termination of Gaussian 16 at Mon Dec 14 18:04:11 2020.

 ----------------------------------------------------------------------
 # B3LYP/6-311++G(d,p) empiricaldispersion=gd3bj scf=xqc pop=npa geom=c
 heck
 ----------------------------------------------------------------------

 ---------------------------------------
 CID_69448947_JID_10164_Energie_neutraal
 ---------------------------------------
 Structure from the checkpoint file:  "JID_10164.chk"
 Charge =  0 Multiplicity = 1

 SCF Done:  E(RB3LYP) =  -1278.05332409     A.U. after   15 cycles
 Normal termination of Gaussian 16 at Mon Dec 14 18:12:57 2020.

 ----------------------------------------------------------------------
 # B3LYP/6-311++G(d,p) empiricaldispersion=gd3bj scf=xqc pop=npa geom=c
 heck
 ----------------------------------------------------------------------

 -------------------------------------
 CID_69448947_JID_10164_Energie_kation
 -------------------------------------
 Structure from the checkpoint file:  "JID_10164.chk"
 Charge =  1 Multiplicity = 2

 SCF Done:  E(UB3LYP) =  -1277.77876707     A.U. after   25 cycles
 Normal termination of Gaussian 16 at Mon Dec 14 18:34:40 2020.
 Gaussian 16:  ES64L-G16RevA.03 25-Dec-2016

 ----------------------------------------------------------------------
 # B3LYP/6-311++G(d,p) empiricaldispersion=gd3bj scf=xqc pop=npa geom=c
 heck
 ----------------------------------------------------------------------

 ------------------------------------
 CID_69448947_JID_10164_Energie_anion
 ------------------------------------
 Structure from the checkpoint file:  "JID_10164.chk"
 Charge = -1 Multiplicity = 2

                         Standard orientation:
 ---------------------------------------------------------------------
 Center     Atomic      Atomic             Coordinates (Angstroms)
 Number     Number       Type             X           Y           Z
 ---------------------------------------------------------------------
      1          6           0        4.398222   -1.344753    1.324169
      2          6           0        4.612531   -0.198033    0.355763
      3          6           0        4.631321   -0.473157   -1.114877
      4          6           0        3.450711    0.281484   -0.532970
      5          6           0        2.130626   -0.397712   -0.489425
      6          8           0        1.968226   -1.614035   -0.577939
      7          7           0        1.063015    0.455461   -0.322525
      8          6           0       -0.251610    0.067511   -0.226083
      9          6           0       -1.324101    0.943826   -0.078523
     10          6           0       -2.577686    0.226925    0.034075
     11          6           0       -2.416667   -1.122997   -0.065497
     12         16           0       -0.745588   -1.605650   -0.273925
     13          6           0       -3.539881   -2.118325    0.029423
     14          8           0       -4.801670   -1.474875   -0.062793
     15          6           0       -4.878392   -0.337744    0.784432
     16          6           0       -3.957104    0.784514    0.292734
     17          6           0       -1.087847    2.397922   -0.079207
     18          8           0        0.049946    2.894186   -0.028049
     19          7           0       -2.180526    3.227428   -0.120080
     20          6           0        5.515893    0.901401    0.883411
     21          1           0        3.984335   -0.979264    2.272189
     22          1           0        3.716019   -2.093553    0.918406
     23          1           0        5.358257   -1.827843    1.543778
     24          1           0        5.314650    0.085114   -1.748968
     25          1           0        4.412397   -1.485010   -1.442940
     26          1           0        3.409077    1.354780   -0.700461
     27          1           0        1.175121    1.469437   -0.218778
     28          1           0       -3.473758   -2.688361    0.973336
     29          1           0       -3.507148   -2.840385   -0.793682
     30          1           0       -5.924404   -0.020266    0.774550
     31          1           0       -4.607954   -0.612546    1.816892
     32          1           0       -4.385640    1.216344   -0.625129
     33          1           0       -3.925117    1.580164    1.046669
     34          1           0       -3.060095    2.896573   -0.485758
     35          1           0       -1.961749    4.202622   -0.276069
     36          1           0        6.508822    0.498884    1.119382
     37          1           0        5.645466    1.706662    0.152022
     38          1           0        5.105590    1.339440    1.801288
 ---------------------------------------------------------------------

 SCF Done:  E(UB3LYP) =  -1278.05375174     A.U. after   33 cycles
 SCF Done:  E(UB3LYP) =  -1278.05375174     a.u. after    1 cycles

 The electronic state is 2-A.
 Alpha  occ. eigenvalues --  -88.73510 -19.03397 -18.95394 -18.94997 -14.21446
 Alpha  occ. eigenvalues --  -14.20831 -10.13411 -10.12931 -10.12744 -10.12509
 Alpha  occ. eigenvalues --  -10.08773 -10.08434 -10.08164 -10.06910 -10.06649
 Alpha  occ. eigenvalues --  -10.06281 -10.06251 -10.06182 -10.05161 -10.03809
 Alpha  occ. eigenvalues --   -7.82063  -5.78391  -5.78007  -5.77623  -0.94908
 Alpha  occ. eigenvalues --   -0.90949  -0.90365  -0.80804  -0.78212  -0.76505
 Alpha  occ. eigenvalues --   -0.74133  -0.68412  -0.64199  -0.62641  -0.61237
 Alpha  occ. eigenvalues --   -0.58929  -0.56569  -0.53020  -0.52421  -0.49016
 Alpha  occ. eigenvalues --   -0.46024  -0.45342  -0.43764  -0.41641  -0.41172
 Alpha  occ. eigenvalues --   -0.39879  -0.38751  -0.38190  -0.36144  -0.35263
 Alpha  occ. eigenvalues --   -0.34847  -0.33253  -0.32864  -0.31700  -0.31569
 Alpha  occ. eigenvalues --   -0.30788  -0.30473  -0.29459  -0.28821  -0.28716
 Alpha  occ. eigenvalues --   -0.28131  -0.27639  -0.27056  -0.26137  -0.25771
 Alpha  occ. eigenvalues --   -0.24268  -0.23426  -0.22262  -0.21273  -0.18648
 Alpha  occ. eigenvalues --   -0.17578  -0.16906  -0.16737  -0.15840  -0.14068
 Alpha  occ. eigenvalues --   -0.12456  -0.12204  -0.07958   0.04677
 Alpha virt. eigenvalues --    0.06654   0.06789   0.07930   0.08909   0.09087
 Alpha virt. eigenvalues --    0.09467   0.09631   0.10333   0.10979   0.11139
 Alpha virt. eigenvalues --    0.11813   0.11970   0.12442   0.12504   0.12974

  Beta  occ. eigenvalues --  -88.73469 -19.03396 -18.95226 -18.94712 -14.21570
  Beta  occ. eigenvalues --  -14.20773 -10.13174 -10.12931 -10.12511 -10.12485
  Beta  occ. eigenvalues --  -10.08373 -10.08252 -10.08163 -10.06945 -10.06639
  Beta  occ. eigenvalues --  -10.06259 -10.06249 -10.06163 -10.05157 -10.03801
  Beta  occ. eigenvalues --   -7.82026  -5.78377  -5.77995  -5.77473  -0.94906
  Beta  occ. eigenvalues --   -0.90534  -0.89954  -0.80531  -0.78015  -0.76408
  Beta  occ. eigenvalues --   -0.74040  -0.68382  -0.63924  -0.62581  -0.61025
  Beta  occ. eigenvalues --   -0.58910  -0.56246  -0.52852  -0.52319  -0.48664
  Beta  occ. eigenvalues --   -0.45857  -0.45182  -0.43620  -0.41543  -0.41105
  Beta  occ. eigenvalues --   -0.39818  -0.38668  -0.38158  -0.35993  -0.35199
  Beta  occ. eigenvalues --   -0.34769  -0.33146  -0.32733  -0.31477  -0.31216
  Beta  occ. eigenvalues --   -0.30474  -0.30254  -0.29267  -0.28641  -0.28424
  Beta  occ. eigenvalues --   -0.27715  -0.27339  -0.26762  -0.25960  -0.25598
  Beta  occ. eigenvalues --   -0.24231  -0.22775  -0.21840  -0.21097  -0.18551
  Beta  occ. eigenvalues --   -0.17255  -0.16842  -0.16087  -0.15154  -0.13836
  Beta  occ. eigenvalues --   -0.12242  -0.11580  -0.07009
  Beta virt. eigenvalues --    0.06686   0.06904   0.07903   0.08976   0.09020
  Beta virt. eigenvalues --    0.09333   0.09567   0.10100   0.10576   0.11007
  Beta virt. eigenvalues --    0.11403   0.11699   0.11942   0.12342   0.12918

 Mulliken charges and spin densities:
               1          2
     1  C   -0.568564  -0.002492
     2  C    0.214070   0.290054
     3  C   -0.553350  -0.172843
     4  C    0.072703   0.020107
     5  C   -0.186149   0.046524
     6  O   -0.352396   0.094917
     7  N    0.099526  -0.056836
     8  C    0.291449   0.258867
     9  C    0.217219   0.038426
    10  C    0.454522  -0.059480
    11  C   -0.058319   0.046369
    12  S   -0.413169   0.070998
    13  C   -0.079109  -0.034183
    14  O   -0.106709   0.003830
    15  C   -0.471526  -0.024260
    16  C   -0.933408   0.025247
    17  C   -0.224761   0.155922
    18  O   -0.440836   0.060732
    19  N   -0.396747   0.021480
    20  C   -0.088167  -0.438847
    21  H    0.132901  -0.018558
    22  H    0.156360   0.016548
    23  H    0.010794   0.119467
    24  H   -0.036543   0.178827
    25  H    0.182576  -0.019407
    26  H    0.231301  -0.020865
    27  H    0.417486   0.002383
    28  H    0.118798   0.036390
    29  H    0.161975   0.001389
    30  H    0.171401  -0.000532
    31  H    0.096967   0.017443
    32  H    0.138203   0.002318
    33  H    0.181282  -0.007740
    34  H    0.231908   0.003478
    35  H    0.277979   0.002115
    36  H   -0.116261   0.249215
    37  H    0.044224   0.080554
    38  H    0.122372   0.012441
 Sum of Mulliken charges =  -1.00000   1.00000

 Dipole moment (field-independent basis, Debye):
    X=             -5.0233    Y=              1.6026    Z=              0.6609  Tot=              5.3140
 Quadrupole moment (field-independent basis, Debye-Ang):
   XX=           -191.0627   YY=           -152.8474   ZZ=           -138.7847
   XY=             -4.3933   XZ=             -3.4339   YZ=             -4.4152

 Summary of Natural Population Analysis:

                                       Natural Population
                Natural  -----------------------------------------------
    Atom  No    Charge         Core      Valence    Rydberg      Total
 -----------------------------------------------------------------------
      C    1   -0.28944      0.99962     2.28340    0.00641     3.28944
      C    2   -0.02720      0.99957     2.01857    0.00906     3.02720
      C    3   -0.18647      0.99958     2.17739    0.00950     3.18647
      C    4   -0.15286      0.99953     2.14187    0.01146     3.15286
      C    5    0.36538      0.99966     1.61266    0.02230     2.63462
      O    6   -0.30540      0.99988     3.29979    0.00573     4.30540
      N    7   -0.30219      0.99960     2.79577    0.00682     3.80219
      C    8    0.12732      0.99948     1.85709    0.01611     2.87268
      C    9   -0.12753      0.99934     2.11910    0.00908     3.12753
      C   10   -0.03683      0.99933     2.02800    0.00950     3.03683
      C   11   -0.13581      0.99940     2.12612    0.01029     3.13581
      S   12    0.23336      4.99941     2.74520    0.02203     7.76664
      C   13   -0.01274      0.99952     2.00133    0.01188     3.01274
      O   14   -0.30140      0.99989     3.29078    0.01073     4.30140
      C   15   -0.00375      0.99960     1.99276    0.01139     3.00375
      C   16   -0.21325      0.99961     2.20650    0.00714     3.21325
      C   17    0.36466      0.99965     1.61558    0.02011     2.63534
      O   18   -0.34567      0.99987     3.33906    0.00674     4.34567
      N   19   -0.40529      0.99971     2.89763    0.00795     3.90529
      C   20   -0.28004      0.99963     2.27455    0.00586     3.28004
      H   21    0.09602      0.00000     0.40317    0.00081     0.40398
      H   22    0.11975      0.00000     0.37914    0.00111     0.38025
      H   23    0.09415      0.00000     0.40497    0.00088     0.40585
      H   24    0.09817      0.00000     0.40093    0.00090     0.40183
      H   25    0.11218      0.00000     0.38665    0.00117     0.38782
      H   26    0.10520      0.00000     0.39367    0.00113     0.39480
      H   27    0.22157      0.00000     0.27643    0.00200     0.27843
      H   28    0.07745      0.00000     0.42049    0.00205     0.42255
      H   29    0.09169      0.00000     0.40682    0.00149     0.40831
      H   30    0.08499      0.00000     0.41383    0.00118     0.41501
      H   31    0.07553      0.00000     0.42215    0.00232     0.42447
      H   32    0.09340      0.00000     0.40503    0.00157     0.40660
      H   33    0.10608      0.00000     0.39239    0.00153     0.39392
      H   34    0.18618      0.00000     0.31233    0.00149     0.31382
      H   35    0.18493      0.00000     0.31157    0.00350     0.31507
      H   36    0.09788      0.00000     0.40089    0.00123     0.40212
      H   37    0.09735      0.00000     0.40188    0.00077     0.40265
      H   38    0.09806      0.00000     0.40114    0.00080     0.40194
 =======================================================================
   * Total *    0.00547     23.99187    53.75663    0.24603    77.99453

 Normal termination of Gaussian 16 at Mon Dec 14 19:02:50 2020.
