 Gaussian 16, Revision A.03,

 -----------------------------------------------------------
 # opt freq B3LYP/6-31G(d) empiricaldispersion=gd3bj scf=xqc
 -----------------------------------------------------------

 -------------------------------
 CID_116905456_JID_7340_neutraal
 -------------------------------
 Symbolic Z-matrix:
 Charge =  0 Multiplicity = 1

 SCF Done:  E(RB3LYP) =  -696.795803626     A.U. after   14 cycles
 SCF Done:  E(RB3LYP) =  -696.795445736     A.U. after   12 cycles
 SCF Done:  E(RB3LYP) =  -696.804008373     A.U. after   12 cycles
 SCF Done:  E(RB3LYP) =  -696.788843018     A.U. after   13 cycles
 SCF Done:  E(RB3LYP) =  -696.802514812     A.U. after   12 cycles
 SCF Done:  E(RB3LYP) =  -696.804478090     A.U. after    9 cycles
 SCF Done:  E(RB3LYP) =  -696.804583812     A.U. after   11 cycles
 SCF Done:  E(RB3LYP) =  -696.804835943     A.U. after   11 cycles
 SCF Done:  E(RB3LYP) =  -696.804976332     A.U. after   11 cycles
 SCF Done:  E(RB3LYP) =  -696.805049323     A.U. after   10 cycles
 SCF Done:  E(RB3LYP) =  -696.805165286     A.U. after   10 cycles
 SCF Done:  E(RB3LYP) =  -696.805166409     A.U. after    8 cycles
 SCF Done:  E(RB3LYP) =  -696.805166959     A.U. after    8 cycles
 SCF Done:  E(RB3LYP) =  -696.805166986     A.U. after    6 cycles
 SCF Done:  E(RB3LYP) =  -696.805166999     A.U. after    5 cycles
 Optimization completed.
    -- Stationary point found.
 Normal termination of Gaussian 16 at Fri Dec 11 12:31:05 2020.

 --------------------------------------------------------------------
 #N Geom=AllCheck Guess=TCheck SCRF=Check GenChk RB3LYP/6-31G(d) Freq
 --------------------------------------------------------------------

 Structure from the checkpoint file:  "JID_7340.chk"
 -------------------------------
 CID_116905456_JID_7340_neutraal
 -------------------------------
 Charge =  0 Multiplicity = 1

 SCF Done:  E(RB3LYP) =  -696.805166999     A.U. after    1 cycles

  Exact polarizability: 206.679 -15.411 147.043  -5.084  -6.735 159.936
 Approx polarizability: 273.908 -25.595 200.189  -7.770 -18.188 262.368

                      1                      2                      3
                      A                      A                      A
 Frequencies --     26.6076                32.3274                54.4298
 Red. masses --      3.5863                 1.0515                 3.2499
 Frc consts  --      0.0015                 0.0006                 0.0057
 IR Inten    --      0.0899                 0.1894                 1.3013

                      4                      5                      6
                      A                      A                      A
 Frequencies --     80.7463                90.3517               100.9279
 Red. masses --      3.2864                 3.1752                 3.1270
 Frc consts  --      0.0126                 0.0153                 0.0188
 IR Inten    --      1.2807                 3.8000                 0.6147

                      7                      8                      9
                      A                      A                      A
 Frequencies --    121.7440               142.9811               155.4843
 Red. masses --      2.3567                 2.7294                 2.4091
 Frc consts  --      0.0206                 0.0329                 0.0343
 IR Inten    --      6.6894                 1.2024                 1.0627

                     10                     11                     12
                      A                      A                      A
 Frequencies --    173.1068               188.7373               213.1571
 Red. masses --      1.9756                 2.7948                 2.0415
 Frc consts  --      0.0349                 0.0587                 0.0547
 IR Inten    --      3.2367                 7.1325                 1.2077

                     13                     14                     15
                      A                      A                      A
 Frequencies --    219.5532               231.7952               243.4726
 Red. masses --      1.7030                 1.8225                 1.3110
 Frc consts  --      0.0484                 0.0577                 0.0458
 IR Inten    --      3.6273                 2.7833                 2.0456

                     16                     17                     18
                      A                      A                      A
 Frequencies --    253.6847               266.1143               286.1277
 Red. masses --      1.2844                 2.2864                 2.1174
 Frc consts  --      0.0487                 0.0954                 0.1021
 IR Inten    --     38.4674                17.0760                 0.9270

                     19                     20                     21
                      A                      A                      A
 Frequencies --    302.5559               312.0076               329.7313
 Red. masses --      1.4041                 1.3468                 2.6587
 Frc consts  --      0.0757                 0.0773                 0.1703
 IR Inten    --      1.4886                 1.5616                 0.9709

                     22                     23                     24
                      A                      A                      A
 Frequencies --    352.8920               372.5926               400.4683
 Red. masses --      2.2695                 3.1979                 2.0133
 Frc consts  --      0.1665                 0.2616                 0.1902
 IR Inten    --      1.5891                 0.0021                 0.1969

                     25                     26                     27
                      A                      A                      A
 Frequencies --    446.2298               457.5286               486.4894
 Red. masses --      2.7012                 2.5164                 2.8538
 Frc consts  --      0.3169                 0.3104                 0.3979
 IR Inten    --      0.3763                 0.6831                 6.4694

                     28                     29                     30
                      A                      A                      A
 Frequencies --    496.9695               536.1205               561.8986
 Red. masses --      2.9576                 3.6436                 4.7471
 Frc consts  --      0.4304                 0.6170                 0.8831
 IR Inten    --      0.9655                 2.3804                 0.2405

                     31                     32                     33
                      A                      A                      A
 Frequencies --    585.6740               666.6193               728.1479
 Red. masses --      3.2886                 3.5530                 3.5772
 Frc consts  --      0.6646                 0.9303                 1.1175
 IR Inten    --      1.8497                 4.1036                 0.1777

                     34                     35                     36
                      A                      A                      A
 Frequencies --    739.1863               751.5477               798.1971
 Red. masses --      5.4104                 3.3848                 2.5474
 Frc consts  --      1.7418                 1.1264                 0.9563
 IR Inten    --      0.4149                 0.7343                 3.7490

                     37                     38                     39
                      A                      A                      A
 Frequencies --    833.1820               858.2857               867.1338
 Red. masses --      1.4662                 1.9064                 1.3875
 Frc consts  --      0.5997                 0.8274                 0.6147
 IR Inten    --     21.6584                 4.2924                69.7881

                     40                     41                     42
                      A                      A                      A
 Frequencies --    899.9513               918.5241               920.1894
 Red. masses --      1.2906                 2.1249                 1.9846
 Frc consts  --      0.6159                 1.0562                 0.9901
 IR Inten    --      2.1162                30.1490                 3.1756

                     43                     44                     45
                      A                      A                      A
 Frequencies --    949.9360               954.9972               965.5838
 Red. masses --      1.3419                 1.3585                 2.9071
 Frc consts  --      0.7134                 0.7300                 1.5969
 IR Inten    --     32.2788                 0.9614                 3.7127

                     46                     47                     48
                      A                      A                      A
 Frequencies --   1003.9767              1008.7519              1049.8241
 Red. masses --      2.8249                 1.4918                 1.5830
 Frc consts  --      1.6777                 0.8944                 1.0279
 IR Inten    --     10.9846                 2.2357                 4.6982

                     49                     50                     51
                      A                      A                      A
 Frequencies --   1072.1698              1075.3856              1079.9964
 Red. masses --      1.5781                 1.5222                 1.9503
 Frc consts  --      1.0688                 1.0372                 1.3403
 IR Inten    --      6.5796                11.8905                51.8430

                     52                     53                     54
                      A                      A                      A
 Frequencies --   1084.8784              1104.7378              1108.5371
 Red. masses --      3.0014                 1.4024                 1.9816
 Frc consts  --      2.0813                 1.0084                 1.4347
 IR Inten    --     14.4540                 5.8621                 7.9186

                     55                     56                     57
                      A                      A                      A
 Frequencies --   1130.8287              1142.1461              1162.3800
 Red. masses --      2.2519                 1.2410                 1.8012
 Frc consts  --      1.6967                 0.9538                 1.4339
 IR Inten    --     11.9051                 7.3836                10.9723

                     58                     59                     60
                      A                      A                      A
 Frequencies --   1171.1438              1185.2567              1206.8502
 Red. masses --      2.0648                 1.3516                 1.5775
 Frc consts  --      1.6686                 1.1187                 1.3537
 IR Inten    --      5.6899                 2.6571                 0.0517

                     61                     62                     63
                      A                      A                      A
 Frequencies --   1211.7920              1229.7221              1258.9075
 Red. masses --      1.5560                 1.7893                 2.3237
 Frc consts  --      1.3462                 1.5942                 2.1698
 IR Inten    --      7.2692                 1.9587                12.2866

                     64                     65                     66
                      A                      A                      A
 Frequencies --   1283.4424              1309.9843              1313.4158
 Red. masses --      3.3673                 1.5267                 1.3369
 Frc consts  --      3.2680                 1.5436                 1.3588
 IR Inten    --     19.7587                 2.5347                 6.5514

                     67                     68                     69
                      A                      A                      A
 Frequencies --   1327.7282              1343.6014              1354.6716
 Red. masses --      1.5543                 2.0233                 3.6521
 Frc consts  --      1.6144                 2.1521                 3.9488
 IR Inten    --     18.2771                35.9432                16.7224

                     70                     71                     72
                      A                      A                      A
 Frequencies --   1374.1741              1389.2922              1401.9555
 Red. masses --      1.2530                 1.3740                 1.3108
 Frc consts  --      1.3940                 1.5625                 1.5180
 IR Inten    --      1.4794                 7.8137                 1.2598

                     73                     74                     75
                      A                      A                      A
 Frequencies --   1436.2130              1439.1961              1441.1880
 Red. masses --      1.5828                 1.3924                 1.2523
 Frc consts  --      1.9236                 1.6992                 1.5325
 IR Inten    --      2.3660                 8.9917                 2.0523

                     76                     77                     78
                      A                      A                      A
 Frequencies --   1443.2596              1447.0604              1459.8519
 Red. masses --      1.2801                 1.4392                 1.2788
 Frc consts  --      1.5710                 1.7756                 1.6057
 IR Inten    --      3.7343                15.9588                 4.9836

                     79                     80                     81
                      A                      A                      A
 Frequencies --   1465.6529              1473.4728              1497.3835
 Red. masses --      1.6880                 1.1548                 1.1174
 Frc consts  --      2.1364                 1.4772                 1.4762
 IR Inten    --      6.5027                 4.5484                 8.6776

                     82                     83                     84
                      A                      A                      A
 Frequencies --   1502.4105              1511.4286              1516.0776
 Red. masses --      1.0888                 1.0724                 1.0472
 Frc consts  --      1.4480                 1.4433                 1.4182
 IR Inten    --      3.0965                 9.9649                 5.2116

                     85                     86                     87
                      A                      A                      A
 Frequencies --   1520.3086              1523.0645              1524.6192
 Red. masses --      1.1087                 1.0678                 1.1041
 Frc consts  --      1.5098                 1.4595                 1.5122
 IR Inten    --      2.7243                 7.5944                11.0148

                     88                     89                     90
                      A                      A                      A
 Frequencies --   1527.7052              1532.7329              1536.5971
 Red. masses --      1.1182                 1.0743                 1.0655
 Frc consts  --      1.5377                 1.4869                 1.4823
 IR Inten    --      3.5605                 2.9174                 2.3346

                     91                     92                     93
                      A                      A                      A
 Frequencies --   1540.1355              1548.6565              1558.2770
 Red. masses --      1.0694                 1.0676                 2.2083
 Frc consts  --      1.4946                 1.5086                 3.1593
 IR Inten    --     12.7762                 4.9602                14.5360

                     94                     95                     96
                      A                      A                      A
 Frequencies --   1563.1085              1628.4897              1677.2652
 Red. masses --      1.0590                 5.4006                 5.7447
 Frc consts  --      1.5245                 8.4384                 9.5218
 IR Inten    --      3.2048                 1.1317                13.8800

                     97                     98                     99
                      A                      A                      A
 Frequencies --   1701.4956              2928.8700              2934.7869
 Red. masses --      1.0875                 1.0636                 1.0729
 Frc consts  --      1.8551                 5.3755                 5.4446
 IR Inten    --     38.1070                96.5079                74.7555

                    100                    101                    102
                      A                      A                      A
 Frequencies --   2963.1979              2975.6677              3015.6192
 Red. masses --      1.0613                 1.0802                 1.0665
 Frc consts  --      5.4903                 5.6356                 5.7143
 IR Inten    --    117.9583                14.8569                48.0272

                    103                    104                    105
                      A                      A                      A
 Frequencies --   3042.2180              3043.5419              3045.7175
 Red. masses --      1.0385                 1.0498                 1.0675
 Frc consts  --      5.6629                 5.7296                 5.8344
 IR Inten    --     43.7676                29.6927                52.0912

                    106                    107                    108
                      A                      A                      A
 Frequencies --   3047.6011              3051.0404              3064.2945
 Red. masses --      1.0739                 1.0465                 1.0924
 Frc consts  --      5.8769                 5.7399                 6.0438
 IR Inten    --     69.7822                20.0309                26.8975

                    109                    110                    111
                      A                      A                      A
 Frequencies --   3065.2586              3089.8579              3093.9866
 Red. masses --      1.0898                 1.1027                 1.1004
 Frc consts  --      6.0328                 6.2030                 6.2064
 IR Inten    --     52.2616                34.4441                22.4794

                    112                    113                    114
                      A                      A                      A
 Frequencies --   3095.6501              3096.2421              3124.6723
 Red. masses --      1.0990                 1.0986                 1.1015
 Frc consts  --      6.2051                 6.2053                 6.3364
 IR Inten    --     23.2347                23.6470                15.8630

                    115                    116                    117
                      A                      A                      A
 Frequencies --   3127.3836              3148.4453              3153.2829
 Red. masses --      1.0854                 1.0927                 1.0943
 Frc consts  --      6.2545                 6.3820                 6.4110
 IR Inten    --     36.5650                20.4720                27.2906

                    118                    119                    120
                      A                      A                      A
 Frequencies --   3160.4207              3171.9698              3190.6218
 Red. masses --      1.0894                 1.0865                 1.0943
 Frc consts  --      6.4107                 6.4408                 6.5636
 IR Inten    --     25.6024                13.2192                25.3979

                    121                    122                    123
                      A                      A                      A
 Frequencies --   3236.9492              3475.1823              3555.9173
 Red. masses --      1.0893                 1.0501                 1.0918
 Frc consts  --      6.7248                 7.4721                 8.1341
 IR Inten    --      7.4350                 2.4022                 0.9411

 - Thermochemistry -
 -------------------
 Temperature   298.150 Kelvin.  Pressure   1.00000 Atm.
 Atom     1 has atomic number  6 and mass  12.00000

 Molecular mass:   234.20960 amu.
 Principal axes and moments of inertia in atomic units:
                           1         2         3
     Eigenvalues --  2985.391395924.057627122.77634
           X            0.99996  -0.00924   0.00157
           Y            0.00922   0.99994   0.00638
           Z           -0.00163  -0.00636   0.99998
 This molecule is an asymmetric top.
 Rotational symmetry number  1.
 Warning -- assumption of classical behavior for rotation
           may cause significant error
 Rotational temperatures (Kelvin)      0.02901     0.01462     0.01216
 Rotational constants (GHZ):           0.60452     0.30465     0.25338
 Zero-point vibrational energy    1026836.1 (Joules/Mol)
                                  245.41971 (Kcal/Mol)
 Warning -- explicit consideration of  31 degrees of freedom as
           vibrations may cause significant error
 Vibrational temperatures:     38.28    46.51    78.31   116.18   130.00
          (Kelvin)            145.21   175.16   205.72   223.71   249.06
                              271.55   306.69   315.89   333.50   350.30
                              365.00   382.88   411.67   435.31   448.91
                              474.41   507.73   536.08   576.18   642.03
                              658.28   699.95   715.03   771.36   808.45
                              842.65   959.12  1047.64  1063.52  1081.31
                             1148.43  1198.76  1234.88  1247.61  1294.83
                             1321.55  1323.95  1366.75  1374.03  1389.26
                             1444.50  1451.37  1510.46  1542.61  1547.24
                             1553.87  1560.90  1589.47  1594.94  1627.01
                             1643.29  1672.41  1685.01  1705.32  1736.39
                             1743.50  1769.30  1811.29  1846.59  1884.78
                             1889.71  1910.30  1933.14  1949.07  1977.13
                             1998.88  2017.10  2066.39  2070.68  2073.55
                             2076.53  2082.00  2100.40  2108.75  2120.00
                             2154.40  2161.63  2174.61  2181.30  2187.39
                             2191.35  2193.59  2198.03  2205.26  2210.82
                             2215.91  2228.17  2242.01  2248.96  2343.03
                             2413.21  2448.07  4213.99  4222.50  4263.38
                             4281.32  4338.80  4377.07  4378.98  4382.11
                             4384.82  4389.77  4408.84  4410.22  4445.62
                             4451.56  4453.95  4454.80  4495.71  4499.61
                             4529.91  4536.87  4547.14  4563.76  4590.59
                             4657.25  5000.01  5116.17

 Zero-point correction=                           0.391101 (Hartree/Particle)
 Thermal correction to Energy=                    0.410747
 Thermal correction to Enthalpy=                  0.411691
 Thermal correction to Gibbs Free Energy=         0.343195
 Sum of electronic and zero-point Energies=           -696.414066
 Sum of electronic and thermal Energies=              -696.394420
 Sum of electronic and thermal Enthalpies=            -696.393476
 Sum of electronic and thermal Free Energies=         -696.461972

                     E (Thermal)             CV                S
                      KCal/Mol        Cal/Mol-Kelvin    Cal/Mol-Kelvin
 Total                  257.748             73.659            144.164
 Electronic               0.000              0.000              0.000
 Translational            0.889              2.981             42.255
 Rotational               0.889              2.981             33.199
 Vibrational            255.970             67.698             68.710
 Vibration     1          0.593              1.984              6.068
 Vibration     2          0.594              1.983              5.681
 Vibration     3          0.596              1.976              4.650
 Vibration     4          0.600              1.962              3.873
 Vibration     5          0.602              1.956              3.652
 Vibration     6          0.604              1.948              3.436
 Vibration     7          0.609              1.931              3.072
 Vibration     8          0.616              1.910              2.764
 Vibration     9          0.620              1.897              2.604
 Vibration    10          0.627              1.876              2.401
 Vibration    11          0.633              1.855              2.240
 Vibration    12          0.644              1.821              2.016
 Vibration    13          0.647              1.811              1.963
 Vibration    14          0.653              1.792              1.865
 Vibration    15          0.659              1.774              1.777
 Vibration    16          0.665              1.757              1.705
 Vibration    17          0.672              1.735              1.621
 Vibration    18          0.684              1.699              1.497
 Vibration    19          0.694              1.669              1.403
 Vibration    20          0.700              1.651              1.352
 Vibration    21          0.713              1.616              1.261
 Vibration    22          0.729              1.569              1.153
 Vibration    23          0.744              1.528              1.069
 Vibration    24          0.766              1.469              0.961
 Vibration    25          0.805              1.369              0.807
 Vibration    26          0.816              1.344              0.773
 Vibration    27          0.842              1.280              0.693
 Vibration    28          0.852              1.257              0.666
 Vibration    29          0.891              1.170              0.574
 Vibration    30          0.918              1.114              0.520
 Vibration    31          0.943              1.062              0.475

 Optimization completed.
    -- Stationary point found.
 Normal termination of Gaussian 16 at Fri Dec 11 12:55:30 2020.

 ----------------------------------------------------------------------
 # B3LYP/6-311++G(d,p) empiricaldispersion=gd3bj scf=xqc pop=npa geom=c
 heck
 ----------------------------------------------------------------------

 ---------------------------------------
 CID_116905456_JID_7340_Energie_neutraal
 ---------------------------------------
 Structure from the checkpoint file:  "JID_7340.chk"
 Charge =  0 Multiplicity = 1

 SCF Done:  E(RB3LYP) =  -697.000622516     A.U. after   14 cycles
 Normal termination of Gaussian 16 at Fri Dec 11 13:06:28 2020.

 ----------------------------------------------------------------------
 # B3LYP/6-311++G(d,p) empiricaldispersion=gd3bj scf=xqc pop=npa geom=c
 heck
 ----------------------------------------------------------------------

 -------------------------------------
 CID_116905456_JID_7340_Energie_kation
 -------------------------------------
 Structure from the checkpoint file:  "JID_7340.chk"
 Charge =  1 Multiplicity = 2

 SCF Done:  E(UB3LYP) =  -696.738283493     A.U. after   26 cycles
 Normal termination of Gaussian 16 at Fri Dec 11 13:35:19 2020.
 Gaussian 16:  ES64L-G16RevA.03 25-Dec-2016

 ----------------------------------------------------------------------
 # B3LYP/6-311++G(d,p) empiricaldispersion=gd3bj scf=xqc pop=npa geom=c
 heck
 ----------------------------------------------------------------------

 ------------------------------------
 CID_116905456_JID_7340_Energie_anion
 ------------------------------------
 Structure from the checkpoint file:  "JID_7340.chk"
 Charge = -1 Multiplicity = 2

                         Standard orientation:
 ---------------------------------------------------------------------
 Center     Atomic      Atomic             Coordinates (Angstroms)
 Number     Number       Type             X           Y           Z
 ---------------------------------------------------------------------
      1          6           0        4.981973   -0.978251    0.177216
      2          6           0        3.568966   -0.495947   -0.039348
      3          6           0        2.628461   -0.517548    0.986786
      4          6           0        1.296449   -0.101828    0.826285
      5          6           0        0.876220    0.366572   -0.436002
      6          6           0        1.838686    0.402658   -1.462660
      7          6           0        3.149596   -0.015731   -1.284376
      8          6           0       -0.526605    0.826574   -0.848733
      9          6           0       -1.607389   -0.309867   -0.892525
     10          6           0       -2.226697   -0.988197    0.338361
     11          6           0       -3.089470   -0.038771    1.176207
     12          6           0       -3.093277   -2.181525   -0.104851
     13          7           0       -2.295717   -3.247469   -0.722371
     14          7           0       -0.898427    2.149119   -0.333830
     15          6           0       -2.110219    2.708095   -0.882500
     16          6           0       -0.525127    2.653488    0.963395
     17          6           0        0.436609   -0.180330    2.069349
     18          1           0        5.199190   -1.115248    1.241152
     19          1           0        5.154139   -1.940444   -0.322253
     20          1           0        5.713052   -0.269794   -0.229311
     21          1           0        2.935603   -0.872665    1.969222
     22          1           0        1.539934    0.778029   -2.437929
     23          1           0        3.851209    0.033797   -2.113844
     24          1           0       -0.419250    1.010143   -1.928212
     25          1           0       -2.438358    0.079226   -1.500257
     26          1           0       -1.127334   -1.086312   -1.501549
     27          1           0       -1.432403   -1.415299    0.954376
     28          1           0       -3.944999    0.321807    0.590737
     29          1           0       -3.485256   -0.547254    2.063438
     30          1           0       -2.537085    0.840804    1.512820
     31          1           0       -3.568062   -2.607993    0.787352
     32          1           0       -3.913323   -1.806339   -0.747181
     33          1           0       -2.865244   -4.086390   -0.815829
     34          1           0       -2.037775   -2.983613   -1.671085
     35          1           0       -3.042812    2.341094   -0.416565
     36          1           0       -2.093296    3.799357   -0.766983
     37          1           0       -2.168026    2.486955   -1.955965
     38          1           0       -1.185713    2.354796    1.800233
     39          1           0        0.493252    2.346955    1.208451
     40          1           0       -0.539707    3.750980    0.926910
     41          1           0        0.308410   -1.221854    2.387053
     42          1           0        0.923446    0.349101    2.897309
     43          1           0       -0.549643    0.252269    1.941693
 ---------------------------------------------------------------------

 SCF Done:  E(UB3LYP) =  -696.986204328     A.U. after   33 cycles
 SCF Done:  E(UB3LYP) =  -696.986204328     a.u. after    1 cycles

 The electronic state is 2-A.
 Alpha  occ. eigenvalues --  -14.20670 -14.19415 -10.11339 -10.09371 -10.09310
 Alpha  occ. eigenvalues --  -10.09259 -10.09083 -10.09035 -10.08748 -10.08055
 Alpha  occ. eigenvalues --  -10.07862 -10.07604 -10.07560 -10.07380 -10.07116
 Alpha  occ. eigenvalues --  -10.06609 -10.06250  -0.82776  -0.78584  -0.76961
 Alpha  occ. eigenvalues --   -0.70628  -0.69012  -0.67784  -0.64271  -0.61720
 Alpha  occ. eigenvalues --   -0.59859  -0.58876  -0.56843  -0.55417  -0.50941
 Alpha  occ. eigenvalues --   -0.49998  -0.47701  -0.44611  -0.40809  -0.39979
 Alpha  occ. eigenvalues --   -0.39817  -0.38016  -0.36740  -0.36466  -0.35731
 Alpha  occ. eigenvalues --   -0.34687  -0.33664  -0.33439  -0.32720  -0.32645
 Alpha  occ. eigenvalues --   -0.31713  -0.30800  -0.30442  -0.30267  -0.29365
 Alpha  occ. eigenvalues --   -0.28708  -0.28254  -0.27756  -0.27496  -0.26978
 Alpha  occ. eigenvalues --   -0.25319  -0.24735  -0.24224  -0.23567  -0.22532
 Alpha  occ. eigenvalues --   -0.21669  -0.15548  -0.14755  -0.14668  -0.10480
 Alpha  occ. eigenvalues --    0.04137
 Alpha virt. eigenvalues --    0.05625   0.06236   0.06677   0.07283   0.07719
 Alpha virt. eigenvalues --    0.07832   0.07973   0.08201   0.09103   0.09633
 Alpha virt. eigenvalues --    0.09755   0.10160   0.10400   0.11049   0.11428

  Beta  occ. eigenvalues --  -14.20669 -14.19382 -10.11333 -10.09355 -10.09305
  Beta  occ. eigenvalues --  -10.09235 -10.09059 -10.09031 -10.08746 -10.08030
  Beta  occ. eigenvalues --  -10.07856 -10.07594 -10.07554 -10.07371 -10.07113
  Beta  occ. eigenvalues --  -10.06591 -10.06233  -0.82767  -0.78531  -0.76947
  Beta  occ. eigenvalues --   -0.70604  -0.68988  -0.67766  -0.64244  -0.61688
  Beta  occ. eigenvalues --   -0.59834  -0.58842  -0.56795  -0.55363  -0.50918
  Beta  occ. eigenvalues --   -0.49960  -0.47661  -0.44573  -0.40787  -0.39953
  Beta  occ. eigenvalues --   -0.39793  -0.37974  -0.36716  -0.36437  -0.35690
  Beta  occ. eigenvalues --   -0.34659  -0.33638  -0.33411  -0.32698  -0.32615
  Beta  occ. eigenvalues --   -0.31685  -0.30776  -0.30413  -0.30240  -0.29342
  Beta  occ. eigenvalues --   -0.28682  -0.28227  -0.27733  -0.27465  -0.26959
  Beta  occ. eigenvalues --   -0.25299  -0.24713  -0.24200  -0.23541  -0.22507
  Beta  occ. eigenvalues --   -0.21643  -0.15532  -0.14728  -0.14630  -0.10467
  Beta virt. eigenvalues --    0.05912   0.06413   0.06827   0.07115   0.07396
  Beta virt. eigenvalues --    0.07792   0.08133   0.08323   0.08601   0.09434
  Beta virt. eigenvalues --    0.09845   0.10088   0.10439   0.10641   0.11376

 Mulliken charges and spin densities:
               1          2
     1  C    1.345211  -1.762758
     2  C   -0.190399   0.808807
     3  C    0.386925  -0.720245
     4  C   -0.074017  -0.261552
     5  C    0.500941   0.143581
     6  C   -0.448985   0.115207
     7  C   -1.343529   0.726290
     8  C    0.385355  -0.311361
     9  C   -0.064377  -0.907394
    10  C   -0.810822   1.675867
    11  C   -0.057070  -0.737216
    12  C    0.110472  -0.845850
    13  N   -0.280089  -0.049210
    14  N   -0.072786   0.101846
    15  C    0.286914  -0.604208
    16  C   -0.169915  -0.224321
    17  C    0.033922  -0.636291
    18  H   -0.301928   0.450233
    19  H    0.091308   0.071709
    20  H   -0.140050   0.287689
    21  H    0.002981   0.140733
    22  H   -0.182542   0.313247
    23  H   -0.220098   0.380572
    24  H    0.114417   0.114588
    25  H    0.176818  -0.018499
    26  H    0.155774  -0.071003
    27  H    0.381131  -0.154515
    28  H    0.075512   0.080851
    29  H   -0.126871   0.264754
    30  H   -0.016328   0.089032
    31  H   -0.178424   0.338624
    32  H   -0.342615   0.472603
    33  H   -0.099899   0.345087
    34  H   -0.029561   0.247790
    35  H    0.003397   0.144241
    36  H   -0.115288   0.233465
    37  H   -0.258360   0.400461
    38  H   -0.025415   0.143639
    39  H    0.192370  -0.063235
    40  H   -0.121633   0.261428
    41  H    0.038930   0.142784
    42  H   -0.089166   0.281130
    43  H    0.477789  -0.408603
 Sum of Mulliken charges =  -1.00000   1.00000

 Dipole moment (field-independent basis, Debye):
    X=              1.3611    Y=              1.9810    Z=              1.8076  Tot=              3.0074
 Quadrupole moment (field-independent basis, Debye-Ang):
   XX=           -193.6733   YY=           -165.8254   ZZ=           -145.9823
   XY=             -6.8081   XZ=             -4.6961   YZ=              0.1234

 Summary of Natural Population Analysis:

                                       Natural Population
                Natural  -----------------------------------------------
    Atom  No    Charge         Core      Valence    Rydberg      Total
 -----------------------------------------------------------------------
      C    1   -0.29068      0.99964     2.28616    0.00488     3.29068
      C    2   -0.01399      0.99951     2.00479    0.00968     3.01399
      C    3   -0.09938      0.99947     2.09102    0.00889     3.09938
      C    4   -0.00791      0.99947     1.99979    0.00865     3.00791
      C    5   -0.02169      0.99944     2.01126    0.01099     3.02169
      C    6   -0.08523      0.99952     2.07607    0.00963     3.08523
      C    7   -0.10383      0.99950     2.09515    0.00918     3.10383
      C    8    0.00145      0.99953     1.98355    0.01548     2.99855
      C    9   -0.19476      0.99958     2.18435    0.01082     3.19476
      C   10   -0.12557      0.99958     2.11563    0.01036     3.12557
      C   11   -0.28746      0.99964     2.28168    0.00615     3.28746
      C   12   -0.08101      0.99961     2.06968    0.01172     3.08101
      N   13   -0.42202      0.99977     2.91187    0.01038     3.92202
      N   14   -0.28431      0.99970     2.77228    0.01233     3.78431
      C   15   -0.17275      0.99964     2.16520    0.00791     3.17275
      C   16   -0.17098      0.99963     2.16326    0.00809     3.17098
      C   17   -0.29982      0.99963     2.29432    0.00588     3.29982
      H   18    0.10183      0.00000     0.39713    0.00104     0.39817
      H   19    0.10364      0.00000     0.39529    0.00106     0.39636
      H   20    0.10373      0.00000     0.39498    0.00129     0.39627
      H   21    0.09555      0.00000     0.40312    0.00133     0.40445
      H   22    0.09864      0.00000     0.39995    0.00142     0.40136
      H   23    0.09908      0.00000     0.39998    0.00094     0.40092
      H   24    0.09318      0.00000     0.40446    0.00236     0.40682
      H   25    0.09687      0.00000     0.40154    0.00159     0.40313
      H   26    0.10139      0.00000     0.39695    0.00166     0.39861
      H   27    0.10024      0.00000     0.39684    0.00292     0.39976
      H   28    0.09811      0.00000     0.40049    0.00140     0.40189
      H   29    0.09804      0.00000     0.40101    0.00096     0.40196
      H   30    0.09871      0.00000     0.39976    0.00153     0.40129
      H   31    0.08983      0.00000     0.40899    0.00118     0.41017
      H   32    0.07773      0.00000     0.42019    0.00209     0.42227
      H   33    0.17555      0.00000     0.32251    0.00194     0.32445
      H   34    0.17317      0.00000     0.32481    0.00202     0.32683
      H   35    0.08300      0.00000     0.41561    0.00139     0.41700
      H   36    0.09226      0.00000     0.40681    0.00093     0.40774
      H   37    0.09492      0.00000     0.40391    0.00117     0.40508
      H   38    0.07445      0.00000     0.42417    0.00139     0.42555
      H   39    0.10094      0.00000     0.39781    0.00125     0.39906
      H   40    0.09192      0.00000     0.40718    0.00090     0.40808
      H   41    0.10676      0.00000     0.39224    0.00100     0.39324
      H   42    0.10314      0.00000     0.39602    0.00084     0.39686
      H   43    0.10727      0.00000     0.39119    0.00154     0.39273
 =======================================================================
   * Total *   -0.00000     16.99284    47.80900    0.19815    65.00000

 Normal termination of Gaussian 16 at Fri Dec 11 14:10:43 2020.
