 Gaussian 16, Revision A.03,

 -----------------------------------------------------------
 # opt freq B3LYP/6-31G(d) empiricaldispersion=gd3bj scf=xqc
 -----------------------------------------------------------

 ------------------------------
 CID_61449515_JID_5975_neutraal
 ------------------------------
 Symbolic Z-matrix:
 Charge =  0 Multiplicity = 1

 SCF Done:  E(RB3LYP) =  -976.991776927     A.U. after   15 cycles
 SCF Done:  E(RB3LYP) =  -976.994286917     A.U. after   13 cycles
 SCF Done:  E(RB3LYP) =  -976.991638307     A.U. after   12 cycles
 SCF Done:  E(RB3LYP) =  -976.996053552     A.U. after   12 cycles
 SCF Done:  E(RB3LYP) =  -976.996638555     A.U. after   12 cycles
 SCF Done:  E(RB3LYP) =  -976.997831523     A.U. after   12 cycles
 SCF Done:  E(RB3LYP) =  -976.998246279     A.U. after   12 cycles
 SCF Done:  E(RB3LYP) =  -976.998881057     A.U. after   12 cycles
 SCF Done:  E(RB3LYP) =  -977.000436202     A.U. after   14 cycles
 SCF Done:  E(RB3LYP) =  -977.001813074     A.U. after   12 cycles
 SCF Done:  E(RB3LYP) =  -977.014334874     A.U. after   10 cycles
 SCF Done:  E(RB3LYP) =  -977.014349420     A.U. after   10 cycles
 SCF Done:  E(RB3LYP) =  -977.014355320     A.U. after   10 cycles
 SCF Done:  E(RB3LYP) =  -977.014357131     A.U. after    9 cycles
 SCF Done:  E(RB3LYP) =  -977.014357629     A.U. after    8 cycles
 Optimization completed.
    -- Stationary point found.
 Normal termination of Gaussian 16 at Thu Dec 10 18:02:52 2020.

 --------------------------------------------------------------------
 #N Geom=AllCheck Guess=TCheck SCRF=Check GenChk RB3LYP/6-31G(d) Freq
 --------------------------------------------------------------------

 Structure from the checkpoint file:  "JID_5975.chk"
 ------------------------------
 CID_61449515_JID_5975_neutraal
 ------------------------------
 Charge =  0 Multiplicity = 1

 SCF Done:  E(RB3LYP) =  -977.014357629     A.U. after    1 cycles

  Exact polarizability: 175.901  -4.721 157.596  -9.997   2.066 114.109
 Approx polarizability: 232.366  -2.471 253.231 -25.824   4.848 184.673

                      1                      2                      3
                      A                      A                      A
 Frequencies --     27.2024                30.4924                51.6614
 Red. masses --      5.1145                 3.9977                 4.1706
 Frc consts  --      0.0022                 0.0022                 0.0066
 IR Inten    --      0.3653                 0.2437                 0.1660

                      4                      5                      6
                      A                      A                      A
 Frequencies --     80.4349                96.0892               112.4884
 Red. masses --      4.1191                 3.2228                 2.7543
 Frc consts  --      0.0157                 0.0175                 0.0205
 IR Inten    --      0.1264                 0.0601                 0.0393

                      7                      8                      9
                      A                      A                      A
 Frequencies --    153.7658               166.3803               195.7246
 Red. masses --      3.0994                 2.2456                 2.9250
 Frc consts  --      0.0432                 0.0366                 0.0660
 IR Inten    --      0.3030                 0.5317                 0.5266

                     10                     11                     12
                      A                      A                      A
 Frequencies --    207.8974               244.3739               270.0556
 Red. masses --      3.5344                 1.5552                 3.0842
 Frc consts  --      0.0900                 0.0547                 0.1325
 IR Inten    --      1.1020                 0.8909                 3.2159

                     13                     14                     15
                      A                      A                      A
 Frequencies --    304.0964               316.7676               342.1633
 Red. masses --      2.2769                 3.0928                 1.7623
 Frc consts  --      0.1241                 0.1828                 0.1216
 IR Inten    --      3.6402                 4.3118                 6.7740

                     16                     17                     18
                      A                      A                      A
 Frequencies --    365.1144               421.5163               457.9478
 Red. masses --      1.2667                 1.8980                 2.9373
 Frc consts  --      0.0995                 0.1987                 0.3629
 IR Inten    --     33.8467                 4.2215                 1.1061

                     19                     20                     21
                      A                      A                      A
 Frequencies --    467.1036               480.3387               526.8992
 Red. masses --      2.8496                 3.6827                 3.6398
 Frc consts  --      0.3663                 0.5006                 0.5954
 IR Inten    --     15.1613                 1.4576                 4.6043

                     22                     23                     24
                      A                      A                      A
 Frequencies --    573.6144               605.6570               652.0512
 Red. masses --      3.3193                 2.6212                 5.1726
 Frc consts  --      0.6435                 0.5665                 1.2958
 IR Inten    --      2.7439                10.9438                 3.6698

                     25                     26                     27
                      A                      A                      A
 Frequencies --    695.0330               713.1653               749.5358
 Red. masses --      2.2899                 1.5493                 3.4789
 Frc consts  --      0.6518                 0.4643                 1.1515
 IR Inten    --     10.7875                54.7234                 0.8465

                     28                     29                     30
                      A                      A                      A
 Frequencies --    758.1268               779.7138               806.0130
 Red. masses --      2.3795                 2.0579                 1.1932
 Frc consts  --      0.8058                 0.7371                 0.4567
 IR Inten    --      8.8201                10.7715                 2.9958

                     31                     32                     33
                      A                      A                      A
 Frequencies --    838.3667               843.0654               850.7792
 Red. masses --      1.3484                 1.5774                 1.3326
 Frc consts  --      0.5584                 0.6606                 0.5683
 IR Inten    --     13.1389                11.4430                 8.9225

                     34                     35                     36
                      A                      A                      A
 Frequencies --    865.7796               892.3929               908.4202
 Red. masses --      4.0181                 2.2823                 1.3712
 Frc consts  --      1.7745                 1.0709                 0.6667
 IR Inten    --      8.4445                 6.0855                18.1906

                     37                     38                     39
                      A                      A                      A
 Frequencies --    913.0314               933.1532               963.7885
 Red. masses --      1.6293                 1.8412                 2.2690
 Frc consts  --      0.8002                 0.9446                 1.2418
 IR Inten    --    211.5523                 4.4848                23.6346

                     40                     41                     42
                      A                      A                      A
 Frequencies --    976.9356              1004.1379              1048.5909
 Red. masses --      3.0377                 2.1212                 1.7480
 Frc consts  --      1.7082                 1.2602                 1.1324
 IR Inten    --     11.4214                12.7837                 5.6253

                     43                     44                     45
                      A                      A                      A
 Frequencies --   1059.5866              1061.7107              1065.7383
 Red. masses --      1.6914                 1.3033                 2.1888
 Frc consts  --      1.1188                 0.8656                 1.4647
 IR Inten    --      9.9353                12.9892                 9.2291

                     46                     47                     48
                      A                      A                      A
 Frequencies --   1072.8316              1084.6540              1094.2477
 Red. masses --      1.7428                 1.4269                 1.6584
 Frc consts  --      1.1818                 0.9890                 1.1699
 IR Inten    --     16.3002                 0.0945                24.0792

                     49                     50                     51
                      A                      A                      A
 Frequencies --   1113.5918              1145.4376              1155.5932
 Red. masses --      1.2697                 2.0087                 1.2685
 Frc consts  --      0.9277                 1.5528                 0.9981
 IR Inten    --      2.1167                14.8183                 3.0422

                     52                     53                     54
                      A                      A                      A
 Frequencies --   1164.6348              1195.3017              1209.3480
 Red. masses --      1.7285                 3.9979                 1.3818
 Frc consts  --      1.3814                 3.3654                 1.1907
 IR Inten    --     11.0155                21.9552                 1.7594

                     55                     56                     57
                      A                      A                      A
 Frequencies --   1215.6425              1249.6631              1254.0425
 Red. masses --      2.0786                 1.7928                 1.6298
 Frc consts  --      1.8098                 1.6495                 1.5101
 IR Inten    --      3.9867                 3.7582                 2.3275

                     58                     59                     60
                      A                      A                      A
 Frequencies --   1270.6537              1296.0362              1319.3914
 Red. masses --      1.5201                 1.2783                 1.2105
 Frc consts  --      1.4460                 1.2650                 1.2416
 IR Inten    --      5.4743                 0.7090                 6.0256

                     61                     62                     63
                      A                      A                      A
 Frequencies --   1366.0662              1376.6079              1380.4556
 Red. masses --      1.3765                 1.4085                 1.2734
 Frc consts  --      1.5135                 1.5726                 1.4298
 IR Inten    --      8.9827                 7.8174                11.2202

                     64                     65                     66
                      A                      A                      A
 Frequencies --   1384.6742              1403.6894              1418.8959
 Red. masses --      1.3289                 1.7812                 1.6534
 Frc consts  --      1.5012                 2.0678                 1.9613
 IR Inten    --     17.4276                17.0117                19.3703

                     67                     68                     69
                      A                      A                      A
 Frequencies --   1437.1862              1441.0325              1447.7764
 Red. masses --      1.3300                 1.3824                 1.3621
 Frc consts  --      1.6185                 1.6913                 1.6821
 IR Inten    --      1.9594                 2.6228                 8.4103

                     70                     71                     72
                      A                      A                      A
 Frequencies --   1481.7123              1498.0986              1500.3000
 Red. masses --      1.0948                 4.5718                 1.1596
 Frc consts  --      1.4162                 6.0453                 1.5379
 IR Inten    --      0.4121                 6.2681                14.5126

                     73                     74                     75
                      A                      A                      A
 Frequencies --   1517.7554              1522.1301              1529.1991
 Red. masses --      1.1295                 1.0994                 1.1486
 Frc consts  --      1.5330                 1.5008                 1.5825
 IR Inten    --      1.2069                 3.1861                 5.3319

                     76                     77                     78
                      A                      A                      A
 Frequencies --   1537.1458              1543.8567              1597.5632
 Red. masses --      1.1757                 1.0597                 5.1855
 Frc consts  --      1.6367                 1.4881                 7.7975
 IR Inten    --     13.4487                 3.0487                 0.7224

                     79                     80                     81
                      A                      A                      A
 Frequencies --   1693.0783              3009.9591              3023.9737
 Red. masses --      1.0913                 1.0746                 1.0772
 Frc consts  --      1.8432                 5.7361                 5.8037
 IR Inten    --     23.2943                 7.3115                52.4496

                     82                     83                     84
                      A                      A                      A
 Frequencies --   3045.3678              3048.3833              3073.3458
 Red. masses --      1.0544                 1.0466                 1.0603
 Frc consts  --      5.7616                 5.7303                 5.9009
 IR Inten    --      8.5827                47.7366                31.4602

                     85                     86                     87
                      A                      A                      A
 Frequencies --   3081.5899              3087.1692              3090.6232
 Red. masses --      1.0857                 1.0982                 1.0935
 Frc consts  --      6.0746                 6.1666                 6.1538
 IR Inten    --     22.9586                14.7661                30.0995

                     88                     89                     90
                      A                      A                      A
 Frequencies --   3109.3265              3118.7916              3123.6136
 Red. masses --      1.1017                 1.1046                 1.1006
 Frc consts  --      6.2755                 6.3305                 6.3268
 IR Inten    --     39.7012                14.6813                61.9895

                     91                     92                     93
                      A                      A                      A
 Frequencies --   3152.9960              3160.2185              3206.2064
 Red. masses --      1.0522                 1.0587                 1.0899
 Frc consts  --      6.1632                 6.2297                 6.6011
 IR Inten    --     13.6655                11.7288                10.5705

                     94                     95                     96
                      A                      A                      A
 Frequencies --   3226.6552              3233.3547              3251.5118
 Red. masses --      1.0937                 1.1189                 1.1152
 Frc consts  --      6.7086                 6.8922                 6.9469
 IR Inten    --      8.8522                 3.0899                13.6011

                     97                     98                     99
                      A                      A                      A
 Frequencies --   3270.1816              3448.2927              3538.5448
 Red. masses --      1.0971                 1.0488                 1.0921
 Frc consts  --      6.9126                 7.3474                 8.0570
 IR Inten    --      1.6244                 6.0584                 1.3399

 - Thermochemistry -
 -------------------
 Temperature   298.150 Kelvin.  Pressure   1.00000 Atm.
 Atom     1 has atomic number  6 and mass  12.00000

 Molecular mass:   224.13472 amu.
 Principal axes and moments of inertia in atomic units:
                           1         2         3
     Eigenvalues --  2097.960765430.310446680.89101
           X            0.99994  -0.00972   0.00543
           Y            0.00972   0.99995   0.00086
           Z           -0.00544  -0.00081   0.99998
 This molecule is an asymmetric top.
 Rotational symmetry number  1.
 Warning -- assumption of classical behavior for rotation
           may cause significant error
 Rotational temperatures (Kelvin)      0.04128     0.01595     0.01296
 Rotational constants (GHZ):           0.86024     0.33235     0.27013
 Zero-point vibrational energy     808049.3 (Joules/Mol)
                                  193.12843 (Kcal/Mol)
 Warning -- explicit consideration of  23 degrees of freedom as
           vibrations may cause significant error
 Vibrational temperatures:     39.14    43.87    74.33   115.73   138.25
          (Kelvin)            161.85   221.23   239.38   281.60   299.12
                              351.60   388.55   437.53   455.76   492.30
                              525.32   606.47   658.88   672.06   691.10
                              758.09   825.30   871.41   938.16  1000.00
                             1026.09  1078.41  1090.78  1121.83  1159.67
                             1206.22  1212.98  1224.08  1245.66  1283.95
                             1307.01  1313.65  1342.60  1386.68  1405.59
                             1444.73  1508.69  1524.51  1527.56  1533.36
                             1543.57  1560.58  1574.38  1602.21  1648.03
                             1662.64  1675.65  1719.77  1739.98  1749.04
                             1797.99  1804.29  1828.19  1864.71  1898.31
                             1965.46  1980.63  1986.17  1992.24  2019.60
                             2041.47  2067.79  2073.32  2083.03  2131.85
                             2155.43  2158.60  2183.71  2190.01  2200.18
                             2211.61  2221.27  2298.54  2435.96  4330.66
                             4350.82  4381.61  4385.94  4421.86  4433.72
                             4441.75  4446.72  4473.63  4487.25  4494.18
                             4536.46  4546.85  4613.02  4642.44  4652.08
                             4678.20  4705.06  4961.32  5091.18

 Zero-point correction=                           0.307770 (Hartree/Particle)
 Thermal correction to Energy=                    0.323631
 Thermal correction to Enthalpy=                  0.324575
 Thermal correction to Gibbs Free Energy=         0.263258
 Sum of electronic and zero-point Energies=           -976.706588
 Sum of electronic and thermal Energies=              -976.690727
 Sum of electronic and thermal Enthalpies=            -976.689782
 Sum of electronic and thermal Free Energies=         -976.751100

                     E (Thermal)             CV                S
                      KCal/Mol        Cal/Mol-Kelvin    Cal/Mol-Kelvin
 Total                  203.081             60.742            129.053
 Electronic               0.000              0.000              0.000
 Translational            0.889              2.981             42.124
 Rotational               0.889              2.981             32.698
 Vibrational            201.304             54.780             54.231
 Vibration     1          0.593              1.984              6.024
 Vibration     2          0.594              1.984              5.797
 Vibration     3          0.596              1.977              4.753
 Vibration     4          0.600              1.962              3.880
 Vibration     5          0.603              1.952              3.532
 Vibration     6          0.607              1.939              3.226
 Vibration     7          0.619              1.898              2.625
 Vibration     8          0.624              1.884              2.476
 Vibration     9          0.636              1.846              2.173
 Vibration    10          0.641              1.829              2.062
 Vibration    11          0.660              1.772              1.771
 Vibration    12          0.674              1.728              1.596
 Vibration    13          0.695              1.666              1.394
 Vibration    14          0.704              1.642              1.327
 Vibration    15          0.721              1.591              1.202
 Vibration    16          0.738              1.544              1.100
 Vibration    17          0.784              1.423              0.887
 Vibration    18          0.816              1.343              0.772
 Vibration    19          0.824              1.323              0.746
 Vibration    20          0.837              1.294              0.709
 Vibration    21          0.882              1.190              0.594
 Vibration    22          0.930              1.088              0.497
 Vibration    23          0.964              1.020              0.440

                           ! Non-Optimized Parameters !
 Normal termination of Gaussian 16 at Thu Dec 10 18:14:42 2020.

 ----------------------------------------------------------------------
 # B3LYP/6-311++G(d,p) empiricaldispersion=gd3bj scf=xqc pop=npa geom=c
 heck
 ----------------------------------------------------------------------

 --------------------------------------
 CID_61449515_JID_5975_Energie_neutraal
 --------------------------------------
 Structure from the checkpoint file:  "JID_5975.chk"
 Charge =  0 Multiplicity = 1

 SCF Done:  E(RB3LYP) =  -977.205556012     A.U. after   15 cycles
 Normal termination of Gaussian 16 at Thu Dec 10 18:20:48 2020.

 ----------------------------------------------------------------------
 # B3LYP/6-311++G(d,p) empiricaldispersion=gd3bj scf=xqc pop=npa geom=c
 heck
 ----------------------------------------------------------------------

 ------------------------------------
 CID_61449515_JID_5975_Energie_kation
 ------------------------------------
 Structure from the checkpoint file:  "JID_5975.chk"
 Charge =  1 Multiplicity = 2

 SCF Done:  E(UB3LYP) =  -976.922353240     A.U. after   27 cycles
 Normal termination of Gaussian 16 at Thu Dec 10 18:36:06 2020.
 Gaussian 16:  ES64L-G16RevA.03 25-Dec-2016

 ----------------------------------------------------------------------
 # B3LYP/6-311++G(d,p) empiricaldispersion=gd3bj scf=xqc pop=npa geom=c
 heck
 ----------------------------------------------------------------------

 -----------------------------------
 CID_61449515_JID_5975_Energie_anion
 -----------------------------------
 Structure from the checkpoint file:  "JID_5975.chk"
 Charge = -1 Multiplicity = 2

                         Standard orientation:
 ---------------------------------------------------------------------
 Center     Atomic      Atomic             Coordinates (Angstroms)
 Number     Number       Type             X           Y           Z
 ---------------------------------------------------------------------
      1          6           0       -4.045515   -0.005580   -1.295781
      2          6           0       -3.549827   -0.643861    0.003541
      3          6           0       -2.293051   -1.508858   -0.150669
      4          6           0       -1.054553   -0.708389   -0.606940
      5          7           0       -0.601160    0.275585    0.389323
      6          6           0        0.547314   -0.166339    1.198485
      7          6           0        1.838193   -0.414513    0.460477
      8          6           0        2.361530   -1.620619    0.068046
      9          6           0        3.591733   -1.509059   -0.649216
     10          6           0        3.997359   -0.212123   -0.796863
     11         16           0        2.877496    0.892095   -0.061360
     12          6           0       -0.432766    1.602255   -0.143676
     13          6           0       -1.620184    2.528603   -0.182971
     14          6           0       -0.510103    2.760953    0.814110
     15          7           0       -2.102160   -2.253783    1.103436
     16          1           0       -3.321408    0.704640   -1.708349
     17          1           0       -4.980960    0.540195   -1.129667
     18          1           0       -4.238328   -0.768013   -2.060601
     19          1           0       -3.342761    0.133875    0.750848
     20          1           0       -4.333445   -1.282607    0.426109
     21          1           0       -2.489785   -2.255215   -0.934995
     22          1           0       -0.242730   -1.410199   -0.849616
     23          1           0       -1.282914   -0.182838   -1.540157
     24          1           0        0.696910    0.580328    1.984646
     25          1           0        0.269431   -1.101576    1.692634
     26          1           0        1.882683   -2.566285    0.301837
     27          1           0        4.148723   -2.357047   -1.032191
     28          1           0        4.883240    0.161688   -1.292028
     29          1           0        0.277747    1.710899   -0.967977
     30          1           0       -1.711875    3.205223   -1.027869
     31          1           0       -2.559563    2.149643    0.203544
     32          1           0       -0.728544    2.527589    1.851966
     33          1           0        0.165344    3.598553    0.667814
     34          1           0       -1.275036   -2.846651    1.036492
     35          1           0       -1.914206   -1.583150    1.848753
 ---------------------------------------------------------------------

 SCF Done:  E(UB3LYP) =  -977.190399013     A.U. after   33 cycles
 SCF Done:  E(UB3LYP) =  -977.190399014     a.u. after    1 cycles

 The electronic state is 2-A.
 Alpha  occ. eigenvalues --  -88.77188 -14.21731 -14.19406 -10.11121 -10.10912
 Alpha  occ. eigenvalues --  -10.10090 -10.09812 -10.09447 -10.09368 -10.08389
 Alpha  occ. eigenvalues --  -10.08304 -10.07410 -10.07206 -10.07182 -10.07005
 Alpha  occ. eigenvalues --   -7.85818  -5.82093  -5.81732  -5.81432  -0.84530
 Alpha  occ. eigenvalues --   -0.79081  -0.77837  -0.74877  -0.68175  -0.65399
 Alpha  occ. eigenvalues --   -0.63263  -0.61060  -0.57070  -0.54804  -0.51663
 Alpha  occ. eigenvalues --   -0.49339  -0.46966  -0.45778  -0.43674  -0.41913
 Alpha  occ. eigenvalues --   -0.40821  -0.39790  -0.39029  -0.36395  -0.36038
 Alpha  occ. eigenvalues --   -0.35478  -0.33655  -0.32335  -0.30959  -0.30618
 Alpha  occ. eigenvalues --   -0.29595  -0.28713  -0.28213  -0.27935  -0.26932
 Alpha  occ. eigenvalues --   -0.26463  -0.25598  -0.24335  -0.24177  -0.23514
 Alpha  occ. eigenvalues --   -0.21874  -0.20413  -0.15527  -0.15211  -0.13717
 Alpha  occ. eigenvalues --   -0.12530   0.04448
 Alpha virt. eigenvalues --    0.06083   0.06562   0.06726   0.07481   0.07868
 Alpha virt. eigenvalues --    0.08345   0.08813   0.09309   0.09782   0.10032
 Alpha virt. eigenvalues --    0.10764   0.11495   0.11888   0.12333   0.12587

  Beta  occ. eigenvalues --  -88.77179 -14.21728 -14.19378 -10.11120 -10.10901
  Beta  occ. eigenvalues --  -10.10082 -10.09770 -10.09392 -10.09360 -10.08377
  Beta  occ. eigenvalues --  -10.08292 -10.07397 -10.07177 -10.07168 -10.06997
  Beta  occ. eigenvalues --   -7.85807  -5.82085  -5.81728  -5.81410  -0.84519
  Beta  occ. eigenvalues --   -0.79040  -0.77776  -0.74861  -0.68144  -0.65335
  Beta  occ. eigenvalues --   -0.63198  -0.61016  -0.57020  -0.54769  -0.51625
  Beta  occ. eigenvalues --   -0.49310  -0.46916  -0.45701  -0.43601  -0.41884
  Beta  occ. eigenvalues --   -0.40762  -0.39745  -0.38992  -0.36360  -0.36016
  Beta  occ. eigenvalues --   -0.35438  -0.33626  -0.32308  -0.30921  -0.30577
  Beta  occ. eigenvalues --   -0.29547  -0.28674  -0.28189  -0.27878  -0.26847
  Beta  occ. eigenvalues --   -0.26425  -0.25560  -0.24317  -0.24126  -0.23491
  Beta  occ. eigenvalues --   -0.21856  -0.20397  -0.15465  -0.15135  -0.13532
  Beta  occ. eigenvalues --   -0.12490
  Beta virt. eigenvalues --    0.06209   0.06895   0.07106   0.07295   0.08031
  Beta virt. eigenvalues --    0.08185   0.08895   0.09204   0.09502   0.09991
  Beta virt. eigenvalues --    0.10299   0.10876   0.11619   0.12101   0.12658

 Mulliken charges and spin densities:
               1          2
     1  C    0.134615  -0.835220
     2  C   -0.630797   0.640836
     3  C    0.789362  -0.998318
     4  C   -0.818413   0.005325
     5  N    0.536934   0.028842
     6  C    0.804424  -1.548964
     7  C    1.282985  -0.786216
     8  C   -2.570522   2.723962
     9  C    2.501521  -3.109151
    10  C   -0.520406   0.542419
    11  S    0.149520  -0.294981
    12  C   -0.943067   0.458306
    13  C   -0.010533  -0.350989
    14  C    0.126291  -0.361281
    15  N   -0.232531  -0.023561
    16  H    0.054652   0.083330
    17  H   -0.061865   0.201999
    18  H   -0.009883   0.136970
    19  H    0.057359   0.085931
    20  H    0.056176   0.134546
    21  H   -0.111267   0.295583
    22  H    0.350682  -0.188304
    23  H   -0.025478   0.143642
    24  H   -0.230055   0.387822
    25  H    0.115697   0.087875
    26  H   -0.888985   1.065638
    27  H   -0.482005   0.638494
    28  H   -0.800430   1.049761
    29  H    0.122811  -0.002078
    30  H   -0.037409   0.199242
    31  H    0.181221  -0.074597
    32  H    0.034940   0.114629
    33  H   -0.013180   0.167037
    34  H    0.003506   0.233037
    35  H    0.084130   0.148433
 Sum of Mulliken charges =  -1.00000   1.00000

 Dipole moment (field-independent basis, Debye):
    X=             -4.3317    Y=              4.3776    Z=              0.0547  Tot=              6.1587
 Quadrupole moment (field-independent basis, Debye-Ang):
   XX=           -188.0486   YY=           -155.5229   ZZ=           -133.9067
   XY=              4.6998   XZ=              7.1852   YZ=              3.7454

 Summary of Natural Population Analysis:

                                       Natural Population
                Natural  -----------------------------------------------
    Atom  No    Charge         Core      Valence    Rydberg      Total
 -----------------------------------------------------------------------
      C    1   -0.28649      0.99966     2.28257    0.00425     3.28649
      C    2   -0.19464      0.99961     2.18736    0.00767     3.19464
      C    3   -0.01533      0.99959     2.00217    0.01357     3.01533
      C    4   -0.09280      0.99957     2.08181    0.01142     3.09280
      N    5   -0.28845      0.99970     2.77310    0.01565     3.78845
      C    6   -0.09828      0.99953     2.08433    0.01441     3.09828
      C    7   -0.10628      0.99949     2.09399    0.01280     3.10628
      C    8   -0.12542      0.99945     2.11356    0.01241     3.12542
      C    9   -0.12672      0.99953     2.11620    0.01099     3.12672
      C   10   -0.18756      0.99954     2.17605    0.01197     3.18756
      S   11    0.20266      4.99940     2.77767    0.02028     7.79734
      C   12   -0.01968      0.99954     2.00665    0.01349     3.01968
      C   13   -0.19971      0.99961     2.19185    0.00826     3.19971
      C   14   -0.20023      0.99961     2.19256    0.00807     3.20023
      N   15   -0.42085      0.99977     2.91151    0.00957     3.92085
      H   16    0.09767      0.00000     0.40118    0.00115     0.40233
      H   17    0.09733      0.00000     0.40169    0.00098     0.40267
      H   18    0.09520      0.00000     0.40371    0.00109     0.40480
      H   19    0.09592      0.00000     0.40245    0.00163     0.40408
      H   20    0.10110      0.00000     0.39764    0.00127     0.39890
      H   21    0.08670      0.00000     0.41155    0.00174     0.41330
      H   22    0.09615      0.00000     0.40193    0.00192     0.40385
      H   23    0.09720      0.00000     0.40148    0.00132     0.40280
      H   24    0.10342      0.00000     0.39525    0.00134     0.39658
      H   25    0.10394      0.00000     0.39427    0.00179     0.39606
      H   26    0.10945      0.00000     0.38781    0.00274     0.39055
      H   27    0.10834      0.00000     0.38988    0.00178     0.39166
      H   28    0.11027      0.00000     0.38782    0.00191     0.38973
      H   29    0.09555      0.00000     0.40268    0.00177     0.40445
      H   30    0.10030      0.00000     0.39867    0.00103     0.39970
      H   31    0.10579      0.00000     0.39268    0.00153     0.39421
      H   32    0.10504      0.00000     0.39375    0.00121     0.39496
      H   33    0.10292      0.00000     0.39611    0.00097     0.39708
      H   34    0.17512      0.00000     0.32265    0.00223     0.32488
      H   35    0.17239      0.00000     0.32523    0.00238     0.32761
 =======================================================================
   * Total *    0.00000     18.99361    41.79980    0.20660    61.00000

 Normal termination of Gaussian 16 at Thu Dec 10 18:55:09 2020.
