 Gaussian 16, Revision A.03,

 -----------------------------------------------------------
 # opt freq B3LYP/6-31G(d) empiricaldispersion=gd3bj scf=xqc
 -----------------------------------------------------------

 ------------------------------
 CID_83675152_JID_3988_neutraal
 ------------------------------
 Symbolic Z-matrix:
 Charge =  0 Multiplicity = 1

 SCF Done:  E(RB3LYP) =  -573.049939960     A.U. after   14 cycles
 SCF Done:  E(RB3LYP) =  -573.053691835     A.U. after   13 cycles
 SCF Done:  E(RB3LYP) =  -573.054245762     A.U. after   11 cycles
 SCF Done:  E(RB3LYP) =  -573.054317024     A.U. after   11 cycles
 SCF Done:  E(RB3LYP) =  -573.054344572     A.U. after   11 cycles
 SCF Done:  E(RB3LYP) =  -573.054360125     A.U. after   10 cycles
 SCF Done:  E(RB3LYP) =  -573.054368289     A.U. after   10 cycles
 SCF Done:  E(RB3LYP) =  -573.054375084     A.U. after   10 cycles
 SCF Done:  E(RB3LYP) =  -573.054379975     A.U. after   10 cycles
 SCF Done:  E(RB3LYP) =  -573.054381262     A.U. after    9 cycles
 SCF Done:  E(RB3LYP) =  -573.054381538     A.U. after    8 cycles
 Optimization completed.
    -- Stationary point found.
 Normal termination of Gaussian 16 at Mon Dec 14 13:12:12 2020.

 --------------------------------------------------------------------
 #N Geom=AllCheck Guess=TCheck SCRF=Check GenChk RB3LYP/6-31G(d) Freq
 --------------------------------------------------------------------

 Structure from the checkpoint file:  "JID_3988.chk"
 ------------------------------
 CID_83675152_JID_3988_neutraal
 ------------------------------
 Charge =  0 Multiplicity = 1

 SCF Done:  E(RB3LYP) =  -573.054381537     A.U. after    1 cycles

  Exact polarizability: 177.611  -6.852 114.819 -12.542  -1.039  67.494
 Approx polarizability: 264.846 -12.741 206.402 -26.941  -2.250  99.886

                      1                      2                      3
                      A                      A                      A
 Frequencies --     32.6419                79.5267               115.2497
 Red. masses --      3.8491                 3.5063                 4.1162
 Frc consts  --      0.0024                 0.0131                 0.0322
 IR Inten    --      0.7061                 2.5362                 2.8536

                      4                      5                      6
                      A                      A                      A
 Frequencies --    162.0007               221.6645               241.2527
 Red. masses --      4.0658                 1.6636                 4.0111
 Frc consts  --      0.0629                 0.0482                 0.1375
 IR Inten    --      1.7578                 4.3273                 1.3806

                      7                      8                      9
                      A                      A                      A
 Frequencies --    245.0698               316.9909               348.0435
 Red. masses --      1.9898                 4.4673                 1.1113
 Frc consts  --      0.0704                 0.2645                 0.0793
 IR Inten    --      1.2280                 2.1587               156.0455

                     10                     11                     12
                      A                      A                      A
 Frequencies --    372.8299               423.0308               439.8100
 Red. masses --      1.9972                 3.0159                 3.0071
 Frc consts  --      0.1636                 0.3180                 0.3427
 IR Inten    --     16.3615                10.2141                 4.1797

                     13                     14                     15
                      A                      A                      A
 Frequencies --    479.2116               488.7641               580.1640
 Red. masses --      3.7908                 4.4118                 3.6540
 Frc consts  --      0.5129                 0.6210                 0.7246
 IR Inten    --      5.0004                 2.5743                 0.0751

                     16                     17                     18
                      A                      A                      A
 Frequencies --    621.3194               631.8268               664.7818
 Red. masses --      4.3413                 6.1355                 4.8111
 Frc consts  --      0.9874                 1.4431                 1.2527
 IR Inten    --      2.1445                 0.5452                 1.5972

                     19                     20                     21
                      A                      A                      A
 Frequencies --    727.4836               749.7749               758.6067
 Red. masses --      1.3234                 1.6945                 3.0325
 Frc consts  --      0.4127                 0.5612                 1.0282
 IR Inten    --     12.0810                43.7157                13.4876

                     22                     23                     24
                      A                      A                      A
 Frequencies --    764.9517               815.8867               843.5690
 Red. masses --      3.1130                 3.5973                 1.4553
 Frc consts  --      1.0732                 1.4109                 0.6102
 IR Inten    --     23.8956                 1.0653                 1.4999

                     25                     26                     27
                      A                      A                      A
 Frequencies --    854.2514               914.7921               921.9863
 Red. masses --      2.6917                 2.4851                 1.2959
 Frc consts  --      1.1573                 1.2253                 0.6491
 IR Inten    --      1.8954                 2.9543                 0.5777

                     28                     29                     30
                      A                      A                      A
 Frequencies --    935.3835               964.5991               973.5142
 Red. masses --      3.7450                 2.1567                 1.2422
 Frc consts  --      1.9306                 1.1823                 0.6936
 IR Inten    --      1.5995                27.3400                 0.1039

                     31                     32                     33
                      A                      A                      A
 Frequencies --   1007.4744              1042.2052              1059.1901
 Red. masses --      3.4672                 2.2992                 1.9094
 Frc consts  --      2.0735                 1.4714                 1.2621
 IR Inten    --      2.0648                 3.6083                19.7659

                     34                     35                     36
                      A                      A                      A
 Frequencies --   1096.2065              1137.1365              1153.7161
 Red. masses --      1.6775                 1.6467                 1.5639
 Frc consts  --      1.1877                 1.2545                 1.2264
 IR Inten    --     29.0303                 6.7053                 5.5345

                     37                     38                     39
                      A                      A                      A
 Frequencies --   1167.7256              1193.9743              1232.3275
 Red. masses --      1.2504                 1.2973                 1.5848
 Frc consts  --      1.0046                 1.0897                 1.4180
 IR Inten    --     15.3986                 2.7644                46.0065

                     40                     41                     42
                      A                      A                      A
 Frequencies --   1271.3311              1295.9199              1302.1255
 Red. masses --      2.6011                 2.0661                 1.2322
 Frc consts  --      2.4770                 2.0444                 1.2310
 IR Inten    --      6.9757                20.1619                46.1012

                     43                     44                     45
                      A                      A                      A
 Frequencies --   1330.0345              1377.1174              1393.6204
 Red. masses --      2.1131                 2.0800                 1.9459
 Frc consts  --      2.2024                 2.3242                 2.2266
 IR Inten    --     27.7615               106.3925                 2.1711

                     46                     47                     48
                      A                      A                      A
 Frequencies --   1398.1981              1422.8214              1433.6287
 Red. masses --      2.7069                 1.2940                 1.8284
 Frc consts  --      3.1179                 1.5434                 2.2141
 IR Inten    --      4.8205                 4.8322                 0.3164

                     49                     50                     51
                      A                      A                      A
 Frequencies --   1466.0245              1504.4184              1506.0938
 Red. masses --      1.5574                 1.1427                 2.8801
 Frc consts  --      1.9721                 1.5237                 3.8491
 IR Inten    --     27.6336                 2.0689                 2.5610

                     52                     53                     54
                      A                      A                      A
 Frequencies --   1517.5170              1532.7914              1550.9853
 Red. masses --      1.0573                 1.0623                 5.1641
 Frc consts  --      1.4345                 1.4705                 7.3191
 IR Inten    --      4.4164                 2.6558                36.5831

                     55                     56                     57
                      A                      A                      A
 Frequencies --   1573.6606              1583.6432              1695.3198
 Red. masses --      5.4021                 4.6575                 6.1419
 Frc consts  --      7.8819                 6.8820                10.4005
 IR Inten    --     19.2354                 2.1411                 6.4139

                     58                     59                     60
                      A                      A                      A
 Frequencies --   2984.7478              3007.1423              3065.8942
 Red. masses --      1.0823                 1.0750                 1.0355
 Frc consts  --      5.6808                 5.7276                 5.7349
 IR Inten    --     62.2966                79.7482                13.5321

                     61                     62                     63
                      A                      A                      A
 Frequencies --   3095.9396              3136.6819              3146.1687
 Red. masses --      1.0888                 1.1028                 1.1026
 Frc consts  --      6.1485                 6.3928                 6.4303
 IR Inten    --     13.1962                21.6993                32.5787

                     64                     65                     66
                      A                      A                      A
 Frequencies --   3207.7158              3223.4597              3234.7881
 Red. masses --      1.0874                 1.0890                 1.0945
 Frc consts  --      6.5923                 6.6669                 6.7479
 IR Inten    --      4.7131                 4.5722                 7.7725

                     67                     68                     69
                      A                      A                      A
 Frequencies --   3241.8217              3314.5838              3734.0739
 Red. masses --      1.0978                 1.0974                 1.0660
 Frc consts  --      6.7976                 7.1036                 8.7575
 IR Inten    --      7.7459                 1.3382                 9.2978

 - Thermochemistry -
 -------------------
 Temperature   298.150 Kelvin.  Pressure   1.00000 Atm.
 Atom     1 has atomic number  6 and mass  12.00000

 Molecular mass:   176.09496 amu.
 Principal axes and moments of inertia in atomic units:
                           1         2         3
     Eigenvalues --   852.489094047.653464465.49509
           X            0.99997  -0.00712   0.00319
           Y            0.00713   0.99996  -0.00500
           Z           -0.00315   0.00502   0.99998
 This molecule is an asymmetric top.
 Rotational symmetry number  1.
 Warning -- assumption of classical behavior for rotation
           may cause significant error
 Rotational temperatures (Kelvin)      0.10160     0.02140     0.01940
 Rotational constants (GHZ):           2.11703     0.44587     0.40415
 Zero-point vibrational energy     546258.0 (Joules/Mol)
                                  130.55879 (Kcal/Mol)
 Warning -- explicit consideration of  15 degrees of freedom as
           vibrations may cause significant error
 Vibrational temperatures:     46.96   114.42   165.82   233.08   318.93
          (Kelvin)            347.11   352.60   456.08   500.76   536.42
                              608.65   632.79   689.48   703.22   834.73
                              893.94   909.06   956.47  1046.69  1078.76
                             1091.47  1100.59  1173.88  1213.71  1229.08
                             1316.18  1326.53  1345.81  1387.84  1400.67
                             1449.53  1499.50  1523.94  1577.20  1636.09
                             1659.94  1680.10  1717.86  1773.04  1829.16
                             1864.54  1873.47  1913.62  1981.36  2005.11
                             2011.70  2047.12  2062.67  2109.28  2164.52
                             2166.93  2183.37  2205.34  2231.52  2264.15
                             2278.51  2439.19  4294.39  4326.61  4411.14
                             4454.37  4512.99  4526.63  4615.19  4637.84
                             4654.14  4664.26  4768.95  5372.50

 Zero-point correction=                           0.208059 (Hartree/Particle)
 Thermal correction to Energy=                    0.219255
 Thermal correction to Enthalpy=                  0.220199
 Thermal correction to Gibbs Free Energy=         0.170511
 Sum of electronic and zero-point Energies=           -572.846323
 Sum of electronic and thermal Energies=              -572.835127
 Sum of electronic and thermal Enthalpies=            -572.834183
 Sum of electronic and thermal Free Energies=         -572.883871

                     E (Thermal)             CV                S
                      KCal/Mol        Cal/Mol-Kelvin    Cal/Mol-Kelvin
 Total                  137.584             44.192            104.576
 Electronic               0.000              0.000              0.000
 Translational            0.889              2.981             41.405
 Rotational               0.889              2.981             31.111
 Vibrational            135.807             38.230             32.061
 Vibration     1          0.594              1.983              5.662
 Vibration     2          0.600              1.963              3.903
 Vibration     3          0.608              1.937              3.179
 Vibration     4          0.622              1.889              2.526
 Vibration     5          0.648              1.808              1.945
 Vibration     6          0.658              1.777              1.794
 Vibration     7          0.660              1.771              1.766
 Vibration     8          0.704              1.641              1.326
 Vibration     9          0.726              1.579              1.175
 Vibration    10          0.744              1.528              1.068
 Vibration    11          0.785              1.420              0.882
 Vibration    12          0.800              1.383              0.827
 Vibration    13          0.836              1.296              0.712
 Vibration    14          0.845              1.275              0.687
 Vibration    15          0.937              1.074              0.485

 Optimization completed.
    -- Stationary point found.
 Normal termination of Gaussian 16 at Mon Dec 14 13:18:02 2020.

 ----------------------------------------------------------------------
 # B3LYP/6-311++G(d,p) empiricaldispersion=gd3bj scf=xqc pop=npa geom=c
 heck
 ----------------------------------------------------------------------

 --------------------------------------
 CID_83675152_JID_3988_Energie_neutraal
 --------------------------------------
 Structure from the checkpoint file:  "JID_3988.chk"
 Charge =  0 Multiplicity = 1

 SCF Done:  E(RB3LYP) =  -573.216303212     A.U. after   14 cycles
 Normal termination of Gaussian 16 at Mon Dec 14 13:20:25 2020.

 ----------------------------------------------------------------------
 # B3LYP/6-311++G(d,p) empiricaldispersion=gd3bj scf=xqc pop=npa geom=c
 heck
 ----------------------------------------------------------------------

 ------------------------------------
 CID_83675152_JID_3988_Energie_kation
 ------------------------------------
 Structure from the checkpoint file:  "JID_3988.chk"
 Charge =  1 Multiplicity = 2

 SCF Done:  E(UB3LYP) =  -572.934141475     A.U. after   22 cycles
 Normal termination of Gaussian 16 at Mon Dec 14 13:25:47 2020.
 Gaussian 16:  ES64L-G16RevA.03 25-Dec-2016

 ----------------------------------------------------------------------
 # B3LYP/6-311++G(d,p) empiricaldispersion=gd3bj scf=xqc pop=npa geom=c
 heck
 ----------------------------------------------------------------------

 -----------------------------------
 CID_83675152_JID_3988_Energie_anion
 -----------------------------------
 Structure from the checkpoint file:  "JID_3988.chk"
 Charge = -1 Multiplicity = 2

                         Standard orientation:
 ---------------------------------------------------------------------
 Center     Atomic      Atomic             Coordinates (Angstroms)
 Number     Number       Type             X           Y           Z
 ---------------------------------------------------------------------
      1          6           0        3.047383   -0.019349    1.548811
      2          6           0        3.216418   -0.097359    0.038520
      3          6           0        2.155679   -0.969794   -0.653375
      4          6           0        0.732635   -0.554210   -0.423038
      5          6           0        0.212972    0.729523   -0.381102
      6          7           0       -1.139627    0.576838   -0.159932
      7          6           0       -2.145180    1.499544   -0.020859
      8          6           0       -3.423894    1.069002    0.196340
      9          6           0       -3.710328   -0.322649    0.279036
     10          6           0       -2.703128   -1.247771    0.141938
     11          6           0       -1.378913   -0.812072   -0.082614
     12          7           0       -0.246484   -1.494477   -0.240431
     13          8           0        3.187652    1.251547   -0.449689
     14          1           0        2.074624    0.410005    1.804184
     15          1           0        3.831030    0.609607    1.981607
     16          1           0        3.112661   -1.018769    1.991270
     17          1           0        4.200957   -0.540739   -0.182978
     18          1           0        2.370026   -0.979797   -1.734030
     19          1           0        2.261078   -2.007410   -0.318151
     20          1           0        0.685617    1.694594   -0.457711
     21          1           0       -1.856120    2.541155   -0.093925
     22          1           0       -4.214487    1.802861    0.304763
     23          1           0       -4.730909   -0.648369    0.451789
     24          1           0       -2.882481   -2.315231    0.200322
     25          1           0        3.327701    1.213988   -1.409037
 ---------------------------------------------------------------------

 SCF Done:  E(UB3LYP) =  -573.207242702     A.U. after   32 cycles

 The electronic state is 2-A.
 Alpha  occ. eigenvalues --  -19.00566 -14.25545 -14.15929 -10.10680 -10.10217
 Alpha  occ. eigenvalues --  -10.08304 -10.06780 -10.06464 -10.05554 -10.05189
 Alpha  occ. eigenvalues --  -10.05140 -10.04516 -10.04218  -0.90702  -0.89918
 Alpha  occ. eigenvalues --   -0.77720  -0.70143  -0.66986  -0.62892  -0.61086
 Alpha  occ. eigenvalues --   -0.57986  -0.51412  -0.48888  -0.48651  -0.44815
 Alpha  occ. eigenvalues --   -0.40489  -0.39129  -0.37420  -0.35246  -0.34687
 Alpha  occ. eigenvalues --   -0.33544  -0.32596  -0.32075  -0.30628  -0.27364
 Alpha  occ. eigenvalues --   -0.27283  -0.26792  -0.25288  -0.24951  -0.24092
 Alpha  occ. eigenvalues --   -0.21784  -0.20879  -0.19630  -0.16258  -0.14859
 Alpha  occ. eigenvalues --   -0.11586  -0.08712   0.05040
 Alpha virt. eigenvalues --    0.06860   0.07781   0.08898   0.09142   0.09925
 Alpha virt. eigenvalues --    0.10668   0.11224   0.11902   0.12138   0.12371
 Alpha virt. eigenvalues --    0.13416   0.13875   0.14763   0.15871   0.16513

  Beta  occ. eigenvalues --  -19.00534 -14.25428 -14.15872 -10.10654 -10.10256
  Beta  occ. eigenvalues --  -10.08025 -10.06717 -10.06495 -10.05571 -10.05181
  Beta  occ. eigenvalues --  -10.05039 -10.04501 -10.03976  -0.90628  -0.89725
  Beta  occ. eigenvalues --   -0.77516  -0.69868  -0.66887  -0.62639  -0.60862
  Beta  occ. eigenvalues --   -0.57899  -0.51115  -0.48721  -0.48531  -0.44722
  Beta  occ. eigenvalues --   -0.40332  -0.39023  -0.37250  -0.35124  -0.34524
  Beta  occ. eigenvalues --   -0.33390  -0.32178  -0.31979  -0.30586  -0.27318
  Beta  occ. eigenvalues --   -0.27224  -0.26697  -0.25169  -0.24871  -0.23985
  Beta  occ. eigenvalues --   -0.21588  -0.20389  -0.18746  -0.16203  -0.14782
  Beta  occ. eigenvalues --   -0.10933  -0.08032
  Beta virt. eigenvalues --    0.07602   0.07990   0.09054   0.09274   0.09623
  Beta virt. eigenvalues --    0.10173   0.10821   0.11586   0.12146   0.12274
  Beta virt. eigenvalues --    0.12528   0.13555   0.13838   0.14856   0.15927

 Mulliken charges and spin densities:
               1          2
     1  C    0.033256  -0.669406
     2  C    0.492651  -0.308374
     3  C   -0.876605   0.080347
     4  C    1.021097  -0.345005
     5  C   -0.323412  -0.191198
     6  N    0.193760   0.020026
     7  C   -0.245571   0.163312
     8  C   -0.103641   0.030415
     9  C   -0.388446  -0.052083
    10  C   -0.282348   0.213317
    11  C    0.204538  -0.265155
    12  N   -0.109289   0.049820
    13  O   -0.214369  -0.007606
    14  H    0.070384   0.109794
    15  H    0.000243   0.146258
    16  H    0.059252   0.059636
    17  H   -0.895768   1.084446
    18  H   -0.232341   0.417059
    19  H    0.112585   0.048737
    20  H    0.178287   0.011522
    21  H    0.038872   0.047461
    22  H    0.106421   0.027063
    23  H    0.118653  -0.005413
    24  H    0.124780   0.002199
    25  H   -0.082988   0.332826
 Sum of Mulliken charges =  -1.00000   1.00000

 Dipole moment (field-independent basis, Debye):
    X=             -5.4835    Y=              1.5605    Z=              1.6715  Tot=              5.9413
 Quadrupole moment (field-independent basis, Debye-Ang):
   XX=           -144.5089   YY=            -98.3847   ZZ=            -98.7579
   XY=             -2.3475   XZ=              6.8503   YZ=             -1.8638

 Summary of Natural Population Analysis:

                                       Natural Population
                Natural  -----------------------------------------------
    Atom  No    Charge         Core      Valence    Rydberg      Total
 -----------------------------------------------------------------------
      C    1   -0.29381      0.99964     2.28739    0.00679     3.29381
      C    2    0.06716      0.99959     1.91821    0.01505     2.93284
      C    3   -0.21645      0.99957     2.20503    0.01184     3.21645
      C    4    0.07892      0.99956     1.90532    0.01621     2.92108
      C    5   -0.06382      0.99950     2.05321    0.01111     3.06382
      N    6   -0.16818      0.99961     2.66125    0.00732     3.66818
      C    7    0.06044      0.99957     1.92871    0.01128     2.93956
      C    8   -0.14250      0.99958     2.13281    0.01011     3.14250
      C    9   -0.09478      0.99958     2.08547    0.00973     3.09478
      C   10   -0.07573      0.99953     2.06698    0.00922     3.07573
      C   11    0.17451      0.99958     1.81093    0.01498     2.82549
      N   12   -0.26536      0.99968     2.75668    0.00900     3.76536
      O   13   -0.37899      0.99989     3.37173    0.00737     4.37899
      H   14    0.10496      0.00000     0.39401    0.00103     0.39504
      H   15    0.09963      0.00000     0.39948    0.00089     0.40037
      H   16    0.09835      0.00000     0.40090    0.00075     0.40165
      H   17    0.07845      0.00000     0.41734    0.00420     0.42155
      H   18    0.10500      0.00000     0.39307    0.00193     0.39500
      H   19    0.10863      0.00000     0.38969    0.00168     0.39137
      H   20    0.11013      0.00000     0.38877    0.00110     0.38987
      H   21    0.09186      0.00000     0.40723    0.00091     0.40814
      H   22    0.09751      0.00000     0.40164    0.00085     0.40249
      H   23    0.09240      0.00000     0.40670    0.00091     0.40760
      H   24    0.10042      0.00000     0.39876    0.00082     0.39958
      H   25    0.23127      0.00000     0.26296    0.00577     0.26873
 =======================================================================
   * Total *   -0.00000     12.99489    33.84426    0.16085    47.00000

 Normal termination of Gaussian 16 at Mon Dec 14 13:33:30 2020.
