 Gaussian 16, Revision A.03,

 -----------------------------------------------------------
 # opt freq B3LYP/6-31G(d) empiricaldispersion=gd3bj scf=xqc
 -----------------------------------------------------------

 ------------------------------
 CID_12377756_JID_2135_neutraal
 ------------------------------
 Symbolic Z-matrix:
 Charge =  0 Multiplicity = 1

 SCF Done:  E(RB3LYP) =  -518.924391226     A.U. after   15 cycles
 SCF Done:  E(RB3LYP) =  -518.927865866     A.U. after   12 cycles
 SCF Done:  E(RB3LYP) =  -518.928041200     A.U. after   12 cycles
 SCF Done:  E(RB3LYP) =  -518.928395969     A.U. after   12 cycles
 SCF Done:  E(RB3LYP) =  -518.928620095     A.U. after   12 cycles
 SCF Done:  E(RB3LYP) =  -518.928924054     A.U. after   11 cycles
 SCF Done:  E(RB3LYP) =  -518.929113821     A.U. after   11 cycles
 SCF Done:  E(RB3LYP) =  -518.929153757     A.U. after   11 cycles
 SCF Done:  E(RB3LYP) =  -518.929157988     A.U. after    8 cycles
 SCF Done:  E(RB3LYP) =  -518.929158499     A.U. after    8 cycles
 SCF Done:  E(RB3LYP) =  -518.929160472     A.U. after   10 cycles
 SCF Done:  E(RB3LYP) =  -518.929160835     A.U. after    9 cycles
 SCF Done:  E(RB3LYP) =  -518.929161245     A.U. after    9 cycles
 SCF Done:  E(RB3LYP) =  -518.929161322     A.U. after    8 cycles
 SCF Done:  E(RB3LYP) =  -518.929161338     A.U. after    7 cycles
 Optimization completed.
    -- Stationary point found.
 Normal termination of Gaussian 16 at Wed Dec  9 16:52:13 2020.

 --------------------------------------------------------------------
 #N Geom=AllCheck Guess=TCheck SCRF=Check GenChk RB3LYP/6-31G(d) Freq
 --------------------------------------------------------------------

 Structure from the checkpoint file:  "JID_2135.chk"
 ------------------------------
 CID_12377756_JID_2135_neutraal
 ------------------------------
 Charge =  0 Multiplicity = 1

 SCF Done:  E(RB3LYP) =  -518.929161338     A.U. after    1 cycles

  Exact polarizability: 164.939   0.034 123.843  -0.000  -0.000  56.529
 Approx polarizability: 230.532   8.453 207.395  -0.001   0.000  85.528

                      1                      2                      3
                      A                      A                      A
 Frequencies --     12.3025                96.8991               136.9695
 Red. masses --      4.4546                 3.1594                 1.0611
 Frc consts  --      0.0004                 0.0175                 0.0117
 IR Inten    --      2.9424                 1.8408                 0.0688

                      4                      5                      6
                      A                      A                      A
 Frequencies --    166.4114               194.8983               200.6077
 Red. masses --      1.1228                 2.6458                 4.3074
 Frc consts  --      0.0183                 0.0592                 0.1021
 IR Inten    --      0.4819                 0.8461                 4.7894

                      7                      8                      9
                      A                      A                      A
 Frequencies --    214.0552               266.8998               281.1612
 Red. masses --      2.3001                 2.7025                 4.6587
 Frc consts  --      0.0621                 0.1134                 0.2170
 IR Inten    --      2.6091                 0.8154                 5.7987

                     10                     11                     12
                      A                      A                      A
 Frequencies --    291.8370               309.7974               376.1302
 Red. masses --      1.1626                 2.9983                 3.7294
 Frc consts  --      0.0583                 0.1695                 0.3109
 IR Inten    --      2.1904                 1.2827                 0.3778

                     13                     14                     15
                      A                      A                      A
 Frequencies --    395.5748               459.6856               477.2383
 Red. masses --      3.4460                 3.0017                 3.3117
 Frc consts  --      0.3177                 0.3737                 0.4444
 IR Inten    --      7.9376                 0.3025                 0.1680

                     16                     17                     18
                      A                      A                      A
 Frequencies --    503.9239               565.0697               596.7447
 Red. masses --      3.8270                 4.5108                 3.4120
 Frc consts  --      0.5726                 0.8486                 0.7159
 IR Inten    --      2.6187                 1.4883                 0.2874

                     19                     20                     21
                      A                      A                      A
 Frequencies --    676.1788               707.2782               722.7457
 Red. masses --      5.3935                 5.4261                 2.9797
 Frc consts  --      1.4529                 1.5993                 0.9170
 IR Inten    --      8.0901                 3.4952                 0.6481

                     22                     23                     24
                      A                      A                      A
 Frequencies --    777.1525               851.6265               866.3268
 Red. masses --      4.3958                 1.3412                 1.4138
 Frc consts  --      1.5642                 0.5731                 0.6252
 IR Inten    --      0.4018                24.6665                10.5905

                     25                     26                     27
                      A                      A                      A
 Frequencies --    936.4782               975.9889              1005.8338
 Red. masses --      4.3734                 1.3025                 1.6047
 Frc consts  --      2.2598                 0.7310                 0.9565
 IR Inten    --      1.6014                 2.2436                 0.0108

                     28                     29                     30
                      A                      A                      A
 Frequencies --   1025.4162              1033.3853              1059.5125
 Red. masses --      1.4832                 1.6334                 1.4226
 Frc consts  --      0.9189                 1.0277                 0.9409
 IR Inten    --      4.6881                 0.2728                 5.6865

                     31                     32                     33
                      A                      A                      A
 Frequencies --   1081.3109              1085.5440              1136.5890
 Red. masses --      1.8376                 1.5847                 2.1879
 Frc consts  --      1.2659                 1.1003                 1.6653
 IR Inten    --     96.3347                 0.0011                24.9328

                     34                     35                     36
                      A                      A                      A
 Frequencies --   1163.8191              1165.4780              1219.2642
 Red. masses --      1.2952                 2.4545                 1.6058
 Frc consts  --      1.0336                 1.9644                 1.4064
 IR Inten    --      0.1856                 0.7743                11.3529

                     37                     38                     39
                      A                      A                      A
 Frequencies --   1263.7434              1282.2305              1346.1226
 Red. masses --      2.2629                 4.3114                 1.3685
 Frc consts  --      2.1293                 4.1764                 1.4610
 IR Inten    --     22.2432                18.0053                 1.7318

                     40                     41                     42
                      A                      A                      A
 Frequencies --   1350.0875              1383.1765              1439.8725
 Red. masses --      7.6475                 4.3153                 1.2572
 Frc consts  --      8.2129                 4.8643                 1.5357
 IR Inten    --     55.1261               147.5528                 1.7404

                     43                     44                     45
                      A                      A                      A
 Frequencies --   1451.5558              1462.0237              1481.2635
 Red. masses --      1.2398                 1.4234                 1.8382
 Frc consts  --      1.5390                 1.7926                 2.3763
 IR Inten    --      0.6398                25.1237                12.1396

                     46                     47                     48
                      A                      A                      A
 Frequencies --   1506.8393              1509.2143              1516.4229
 Red. masses --      1.0451                 1.1886                 1.0425
 Frc consts  --      1.3982                 1.5952                 1.4125
 IR Inten    --      0.0366                 1.9455                 8.9514

                     49                     50                     51
                      A                      A                      A
 Frequencies --   1522.3038              1524.4091              1525.9267
 Red. masses --      1.0440                 1.1815                 1.1460
 Frc consts  --      1.4254                 1.6177                 1.5722
 IR Inten    --     12.3735                14.7185                 1.5111

                     52                     53                     54
                      A                      A                      A
 Frequencies --   1559.8062              1562.3610              1627.5323
 Red. masses --      1.5739                 1.4122                 6.2747
 Frc consts  --      2.2562                 2.0310                 9.7926
 IR Inten    --    167.9497                 3.7002                10.2453

                     55                     56                     57
                      A                      A                      A
 Frequencies --   1676.3238              1798.5132              2975.8500
 Red. masses --      5.7618                 8.8811                 1.0843
 Frc consts  --      9.5394                16.9255                 5.6576
 IR Inten    --     34.6560               360.9421               115.1412

                     58                     59                     60
                      A                      A                      A
 Frequencies --   3035.2945              3038.9117              3055.0638
 Red. masses --      1.0389                 1.0379                 1.0360
 Frc consts  --      5.6394                 5.6476                 5.6969
 IR Inten    --     32.8963                39.1228                39.8116

                     61                     62                     63
                      A                      A                      A
 Frequencies --   3080.8814              3086.7800              3112.2273
 Red. masses --      1.1002                 1.1002                 1.1060
 Frc consts  --      6.1529                 6.1763                 6.3114
 IR Inten    --     29.3862                13.8954                23.7544

                     64                     65                     66
                      A                      A                      A
 Frequencies --   3124.9857              3127.0819              3158.2702
 Red. masses --      1.1002                 1.0994                 1.1000
 Frc consts  --      6.3304                 6.3339                 6.4643
 IR Inten    --     32.5132                 7.5065                19.3537

                     67                     68                     69
                      A                      A                      A
 Frequencies --   3181.4833              3227.4832              3294.3946
 Red. masses --      1.0901                 1.0884                 1.0916
 Frc consts  --      6.5007                 6.6801                 6.9799
 IR Inten    --     22.8690                11.8959                 8.0625

 - Thermochemistry -
 -------------------
 Temperature   298.150 Kelvin.  Pressure   1.00000 Atm.
 Atom     1 has atomic number  6 and mass  12.00000

 Molecular mass:   163.09971 amu.
 Principal axes and moments of inertia in atomic units:
                           1         2         3
     Eigenvalues --   971.115333062.107883999.50751
           X            0.99976  -0.02207  -0.00000
           Y            0.02207   0.99976  -0.00000
           Z            0.00000   0.00000   1.00000
 This molecule is an asymmetric top.
 Rotational symmetry number  1.
 Warning -- assumption of classical behavior for rotation
           may cause significant error
 Rotational temperatures (Kelvin)      0.08919     0.02829     0.02166
 Rotational constants (GHZ):           1.85842     0.58938     0.45124
 Zero-point vibrational energy     558204.9 (Joules/Mol)
                                  133.41417 (Kcal/Mol)
 Warning -- explicit consideration of  18 degrees of freedom as
           vibrations may cause significant error
 Vibrational temperatures:     17.70   139.42   197.07   239.43   280.42
          (Kelvin)            288.63   307.98   384.01   404.53   419.89
                              445.73   541.17   569.14   661.38   686.64
                              725.03   813.01   858.58   972.87  1017.62
                             1039.87  1118.15  1225.30  1246.45  1347.38
                             1404.23  1447.17  1475.35  1486.81  1524.40
                             1555.77  1561.86  1635.30  1674.48  1676.86
                             1754.25  1818.24  1844.84  1936.77  1942.47
                             1990.08  2071.66  2088.47  2103.53  2131.21
                             2168.01  2171.42  2181.79  2190.26  2193.28
                             2195.47  2244.21  2247.89  2341.66  2411.86
                             2587.66  4281.58  4367.11  4372.32  4395.56
                             4432.70  4441.19  4477.80  4496.16  4499.17
                             4544.05  4577.44  4643.63  4739.90

 Zero-point correction=                           0.212609 (Hartree/Particle)
 Thermal correction to Energy=                    0.224512
 Thermal correction to Enthalpy=                  0.225457
 Thermal correction to Gibbs Free Energy=         0.173898
 Sum of electronic and zero-point Energies=           -518.716552
 Sum of electronic and thermal Energies=              -518.704649
 Sum of electronic and thermal Enthalpies=            -518.703705
 Sum of electronic and thermal Free Energies=         -518.755263

                     E (Thermal)             CV                S
                      KCal/Mol        Cal/Mol-Kelvin    Cal/Mol-Kelvin
 Total                  140.884             44.721            108.514
 Electronic               0.000              0.000              0.000
 Translational            0.889              2.981             41.176
 Rotational               0.889              2.981             30.854
 Vibrational            139.106             38.760             36.484
 Vibration     1          0.593              1.987              7.599
 Vibration     2          0.603              1.951              3.516
 Vibration     3          0.614              1.916              2.846
 Vibration     4          0.624              1.884              2.476
 Vibration     5          0.636              1.847              2.181
 Vibration     6          0.638              1.839              2.128
 Vibration     7          0.644              1.820              2.009
 Vibration     8          0.672              1.734              1.616
 Vibration     9          0.681              1.708              1.527
 Vibration    10          0.687              1.689              1.463
 Vibration    11          0.699              1.655              1.363
 Vibration    12          0.747              1.521              1.055
 Vibration    13          0.762              1.480              0.979
 Vibration    14          0.818              1.339              0.767
 Vibration    15          0.834              1.301              0.718
 Vibration    16          0.859              1.241              0.648
 Vibration    17          0.921              1.107              0.514
 Vibration    18          0.955              1.039              0.455

 Optimization completed.
    -- Stationary point found.
 Normal termination of Gaussian 16 at Wed Dec  9 16:57:37 2020.

 ----------------------------------------------------------------------
 # B3LYP/6-311++G(d,p) empiricaldispersion=gd3bj scf=xqc pop=npa geom=c
 heck
 ----------------------------------------------------------------------

 --------------------------------------
 CID_12377756_JID_2135_Energie_neutraal
 --------------------------------------
 Structure from the checkpoint file:  "JID_2135.chk"
 Charge =  0 Multiplicity = 1

 SCF Done:  E(RB3LYP) =  -519.069995903     A.U. after   15 cycles
 Normal termination of Gaussian 16 at Wed Dec  9 16:59:38 2020.

 ----------------------------------------------------------------------
 # B3LYP/6-311++G(d,p) empiricaldispersion=gd3bj scf=xqc pop=npa geom=c
 heck
 ----------------------------------------------------------------------

 ------------------------------------
 CID_12377756_JID_2135_Energie_kation
 ------------------------------------
 Structure from the checkpoint file:  "JID_2135.chk"
 Charge =  1 Multiplicity = 2

 SCF Done:  E(UB3LYP) =  -518.782913578     A.U. after   21 cycles
 Normal termination of Gaussian 16 at Wed Dec  9 17:03:15 2020.
 Gaussian 16:  ES64L-G16RevA.03 25-Dec-2016

 ----------------------------------------------------------------------
 # B3LYP/6-311++G(d,p) empiricaldispersion=gd3bj scf=xqc pop=npa geom=c
 heck
 ----------------------------------------------------------------------

 -----------------------------------
 CID_12377756_JID_2135_Energie_anion
 -----------------------------------
 Structure from the checkpoint file:  "JID_2135.chk"
 Charge = -1 Multiplicity = 2

                         Standard orientation:
 ---------------------------------------------------------------------
 Center     Atomic      Atomic             Coordinates (Angstroms)
 Number     Number       Type             X           Y           Z
 ---------------------------------------------------------------------
      1          6           0        3.513449   -1.065876   -0.000027
      2          6           0        2.061207   -0.661355    0.000038
      3          6           0        1.683319    0.693189    0.000010
      4          6           0        0.329149    1.033117    0.000028
      5          6           0       -0.682647    0.058403    0.000089
      6          6           0       -0.302901   -1.292779    0.000097
      7          6           0        1.048887   -1.623222    0.000076
      8          7           0       -2.047692    0.468837    0.000033
      9          6           0       -2.340439    1.898564    0.000069
     10          6           0       -3.124695   -0.392536   -0.000073
     11          8           0       -3.108342   -1.609712   -0.000150
     12          6           0        2.727581    1.782301   -0.000105
     13          1           0        4.043611   -0.679674   -0.880373
     14          1           0        4.043753   -0.679477    0.880144
     15          1           0        3.617282   -2.154882    0.000087
     16          1           0        0.079534    2.086753   -0.000039
     17          1           0       -1.056401   -2.064127    0.000108
     18          1           0        1.322871   -2.675563    0.000082
     19          1           0       -1.927789    2.384678   -0.890297
     20          1           0       -3.422245    2.040118    0.000001
     21          1           0       -1.927922    2.384593    0.890540
     22          1           0       -4.077340    0.169252   -0.000076
     23          1           0        2.267797    2.775090   -0.000178
     24          1           0        3.380013    1.715194    0.879832
     25          1           0        3.379969    1.715057   -0.880068
 ---------------------------------------------------------------------

 SCF Done:  E(UB3LYP) =  -519.058517002     A.U. after   33 cycles
 SCF Done:  E(UB3LYP) =  -519.058517002     a.u. after    1 cycles

 The electronic state is 2-A.
 Alpha  occ. eigenvalues --  -19.00810 -14.27047 -10.18097 -10.12355 -10.10807
 Alpha  occ. eigenvalues --  -10.08517 -10.08163 -10.07571 -10.07408 -10.07401
 Alpha  occ. eigenvalues --  -10.06953 -10.06679  -0.95492  -0.86301  -0.76358
 Alpha  occ. eigenvalues --   -0.68600  -0.66962  -0.61944  -0.61158  -0.58100
 Alpha  occ. eigenvalues --   -0.53366  -0.50420  -0.46175  -0.41894  -0.40215
 Alpha  occ. eigenvalues --   -0.37314  -0.37305  -0.37196  -0.34872  -0.33871
 Alpha  occ. eigenvalues --   -0.32463  -0.31131  -0.30505  -0.30376  -0.30058
 Alpha  occ. eigenvalues --   -0.29194  -0.28754  -0.26257  -0.25793  -0.24395
 Alpha  occ. eigenvalues --   -0.19864  -0.17197  -0.15215  -0.12379   0.04245
 Alpha virt. eigenvalues --    0.06050   0.06894   0.07410   0.08277   0.08582
 Alpha virt. eigenvalues --    0.09383   0.09851   0.10070   0.10577   0.11057
 Alpha virt. eigenvalues --    0.12228   0.12523   0.12821   0.13056   0.14460

  Beta  occ. eigenvalues --  -19.00810 -14.27041 -10.18084 -10.12352 -10.10742
  Beta  occ. eigenvalues --  -10.08517 -10.08161 -10.07567 -10.07392 -10.07372
  Beta  occ. eigenvalues --  -10.06953 -10.06637  -0.95487  -0.86284  -0.76347
  Beta  occ. eigenvalues --   -0.68578  -0.66940  -0.61864  -0.61121  -0.58046
  Beta  occ. eigenvalues --   -0.53328  -0.50382  -0.46140  -0.41836  -0.40179
  Beta  occ. eigenvalues --   -0.37286  -0.37268  -0.37170  -0.34837  -0.33836
  Beta  occ. eigenvalues --   -0.32433  -0.31102  -0.30447  -0.30342  -0.30030
  Beta  occ. eigenvalues --   -0.29163  -0.28709  -0.26244  -0.25766  -0.24367
  Beta  occ. eigenvalues --   -0.19845  -0.17189  -0.15204  -0.12366
  Beta virt. eigenvalues --    0.06473   0.06919   0.07432   0.08062   0.08369
  Beta virt. eigenvalues --    0.09203   0.09837   0.10295   0.10756   0.11055
  Beta virt. eigenvalues --    0.11745   0.12557   0.12689   0.13049   0.13466

 Mulliken charges and spin densities:
               1          2
     1  C    1.725520  -2.294753
     2  C   -1.778920   2.484790
     3  C   -1.113311   1.463401
     4  C    0.234239  -0.607123
     5  C   -0.142033  -0.139604
     6  C    0.077396  -0.105886
     7  C    0.007974  -0.895812
     8  N   -0.256890   0.300672
     9  C    1.401998  -1.797541
    10  C    0.253379  -0.089589
    11  O   -0.341482  -0.001808
    12  C    1.663370  -2.081994
    13  H   -0.122572   0.275417
    14  H   -0.122597   0.275431
    15  H   -0.104820   0.248295
    16  H    0.677825  -0.557061
    17  H    0.241369   0.012461
    18  H    0.041910   0.068888
    19  H   -0.578013   0.759796
    20  H   -0.864667   1.009176
    21  H   -0.577835   0.759630
    22  H   -0.116625   0.232917
    23  H   -1.008741   1.186356
    24  H   -0.098218   0.246955
    25  H   -0.098255   0.246986
 Sum of Mulliken charges =  -1.00000   1.00000

 Dipole moment (field-independent basis, Debye):
    X=              1.3452    Y=             -6.2139    Z=              0.0008  Tot=              6.3579
 Quadrupole moment (field-independent basis, Debye-Ang):
   XX=           -146.8505   YY=           -130.0626   ZZ=            -99.4414
   XY=              2.5956   XZ=              0.0000   YZ=              0.0010

 Summary of Natural Population Analysis:

                                       Natural Population
                Natural  -----------------------------------------------
    Atom  No    Charge         Core      Valence    Rydberg      Total
 -----------------------------------------------------------------------
      C    1   -0.29424      0.99964     2.28907    0.00553     3.29424
      C    2   -0.02442      0.99947     2.01477    0.01018     3.02442
      C    3   -0.00678      0.99948     1.99701    0.01029     3.00678
      C    4   -0.11373      0.99948     2.10529    0.00896     3.11373
      C    5    0.08108      0.99947     1.90768    0.01177     2.91892
      C    6   -0.11531      0.99953     2.10754    0.00825     3.11531
      C    7   -0.09284      0.99952     2.08504    0.00829     3.09284
      N    8   -0.23858      0.99964     2.72886    0.01007     3.73858
      C    9   -0.17713      0.99964     2.16916    0.00833     3.17713
      C   10    0.27501      0.99971     1.70258    0.02270     2.72499
      O   11   -0.31248      0.99988     3.30616    0.00644     4.31248
      C   12   -0.29431      0.99964     2.28866    0.00601     3.29431
      H   13    0.10479      0.00000     0.39409    0.00112     0.39521
      H   14    0.10479      0.00000     0.39409    0.00112     0.39521
      H   15    0.10012      0.00000     0.39900    0.00089     0.39988
      H   16    0.10757      0.00000     0.39061    0.00182     0.39243
      H   17    0.12228      0.00000     0.37656    0.00116     0.37772
      H   18    0.09640      0.00000     0.40274    0.00085     0.40360
      H   19    0.10148      0.00000     0.39597    0.00255     0.39852
      H   20    0.10415      0.00000     0.39286    0.00299     0.39585
      H   21    0.10148      0.00000     0.39597    0.00255     0.39852
      H   22    0.05486      0.00000     0.44330    0.00184     0.44514
      H   23    0.10650      0.00000     0.39188    0.00163     0.39350
      H   24    0.10466      0.00000     0.39399    0.00134     0.39534
      H   25    0.10466      0.00000     0.39399    0.00134     0.39534
 =======================================================================
   * Total *   -0.00000     11.99509    31.86688    0.13803    44.00000

 Normal termination of Gaussian 16 at Wed Dec  9 17:08:49 2020.
