 Gaussian 16, Revision A.03,

 -----------------------------------------------------------
 # opt freq B3LYP/6-31G(d) empiricaldispersion=gd3bj scf=xqc
 -----------------------------------------------------------

 -------------------------------
 CID_139982677_JID_5047_neutraal
 -------------------------------
 Symbolic Z-matrix:
 Charge =  0 Multiplicity = 1

 SCF Done:  E(RB3LYP) =  -740.642745119     A.U. after   15 cycles
 SCF Done:  E(RB3LYP) =  -740.647375017     A.U. after   13 cycles
 SCF Done:  E(RB3LYP) =  -740.648883717     A.U. after   13 cycles
 SCF Done:  E(RB3LYP) =  -740.643532566     A.U. after   14 cycles
 SCF Done:  E(RB3LYP) =  -740.649643923     A.U. after   14 cycles
 SCF Done:  E(RB3LYP) =  -740.649955214     A.U. after   12 cycles
 SCF Done:  E(RB3LYP) =  -740.650119967     A.U. after   12 cycles
 SCF Done:  E(RB3LYP) =  -740.650185089     A.U. after   11 cycles
 SCF Done:  E(RB3LYP) =  -740.650249328     A.U. after   12 cycles
 SCF Done:  E(RB3LYP) =  -740.650346991     A.U. after   12 cycles
 SCF Done:  E(RB3LYP) =  -740.652724733     A.U. after   10 cycles
 SCF Done:  E(RB3LYP) =  -740.652728573     A.U. after    9 cycles
 SCF Done:  E(RB3LYP) =  -740.652731092     A.U. after    9 cycles
 SCF Done:  E(RB3LYP) =  -740.652731919     A.U. after    8 cycles
 SCF Done:  E(RB3LYP) =  -740.652732322     A.U. after    8 cycles
 SCF Done:  E(RB3LYP) =  -740.652732496     A.U. after    8 cycles
 Optimization completed.
    -- Stationary point found.
 Normal termination of Gaussian 16 at Thu Dec 10 14:54:25 2020.

 --------------------------------------------------------------------
 #N Geom=AllCheck Guess=TCheck SCRF=Check GenChk RB3LYP/6-31G(d) Freq
 --------------------------------------------------------------------

 Structure from the checkpoint file:  "JID_5047.chk"
 -------------------------------
 CID_139982677_JID_5047_neutraal
 -------------------------------
 Charge =  0 Multiplicity = 1

 SCF Done:  E(RB3LYP) =  -740.652732496     A.U. after    1 cycles

  Exact polarizability: 182.685 -16.189 162.412  -5.317  -3.906  65.492
 Approx polarizability: 290.510 -30.288 266.171 -10.227 -11.074 100.466

                      1                      2                      3
                      A                      A                      A
 Frequencies --     49.9335                59.1720                68.9314
 Red. masses --      6.6326                 4.4432                 5.3690
 Frc consts  --      0.0097                 0.0092                 0.0150
 IR Inten    --      0.2297                 0.6073                 0.3240

                      4                      5                      6
                      A                      A                      A
 Frequencies --     87.4893               100.7568               149.3563
 Red. masses --      4.6651                 3.2512                 4.4839
 Frc consts  --      0.0210                 0.0194                 0.0589
 IR Inten    --      0.9653                 2.5950                 1.4650

                      7                      8                      9
                      A                      A                      A
 Frequencies --    170.6929               191.9008               223.6757
 Red. masses --      3.9286                 4.0202                 1.2184
 Frc consts  --      0.0674                 0.0872                 0.0359
 IR Inten    --      3.6044                 4.2926                 1.2642

                     10                     11                     12
                      A                      A                      A
 Frequencies --    256.4205               267.2216               282.4198
 Red. masses --      1.6566                 3.6870                 2.4699
 Frc consts  --      0.0642                 0.1551                 0.1161
 IR Inten    --     52.4653                 6.5475                32.1138

                     13                     14                     15
                      A                      A                      A
 Frequencies --    298.8204               337.7962               354.2809
 Red. masses --      1.7906                 4.3643                 4.0255
 Frc consts  --      0.0942                 0.2934                 0.2977
 IR Inten    --     30.9889                 7.9867                 4.0699

                     16                     17                     18
                      A                      A                      A
 Frequencies --    384.1634               461.0207               468.4360
 Red. masses --      4.6579                 2.8648                 3.3858
 Frc consts  --      0.4050                 0.3587                 0.4377
 IR Inten    --     15.5071                27.9710                 6.9430

                     19                     20                     21
                      A                      A                      A
 Frequencies --    518.8202               564.1326               571.3893
 Red. masses --      5.3135                 2.4481                 4.0958
 Frc consts  --      0.8427                 0.4590                 0.7879
 IR Inten    --      5.9113                43.8683                 7.7022

                     22                     23                     24
                      A                      A                      A
 Frequencies --    597.8227               640.8013               680.1341
 Red. masses --      3.7965                 4.7120                 2.5484
 Frc consts  --      0.7994                 1.1400                 0.6946
 IR Inten    --      9.2436                26.8910                15.6870

                     25                     26                     27
                      A                      A                      A
 Frequencies --    719.2830               753.5699               775.2994
 Red. masses --      3.0085                 5.6102                 2.3746
 Frc consts  --      0.9171                 1.8771                 0.8410
 IR Inten    --     28.5485                31.4428               151.1793

                     28                     29                     30
                      A                      A                      A
 Frequencies --    821.3635               828.7993               859.0834
 Red. masses --      4.4330                 1.6669                 2.0168
 Frc consts  --      1.7620                 0.6746                 0.8770
 IR Inten    --     33.7945                17.3880                38.3152

                     31                     32                     33
                      A                      A                      A
 Frequencies --    888.4471               909.5116               945.6964
 Red. masses --      1.5208                 1.7762                 2.1484
 Frc consts  --      0.7073                 0.8657                 1.1321
 IR Inten    --      5.9028                35.6457                11.2037

                     34                     35                     36
                      A                      A                      A
 Frequencies --    948.9350               999.0432              1082.7958
 Red. masses --      1.3105                 3.5690                 3.1182
 Frc consts  --      0.6953                 2.0988                 2.1540
 IR Inten    --      3.1868                18.0018                14.3894

                     37                     38                     39
                      A                      A                      A
 Frequencies --   1100.0645              1109.5448              1122.3627
 Red. masses --      2.4283                 2.3150                 1.6660
 Frc consts  --      1.7314                 1.6792                 1.2365
 IR Inten    --     31.5788                26.9694                53.7026

                     40                     41                     42
                      A                      A                      A
 Frequencies --   1149.1033              1158.4001              1163.0202
 Red. masses --      2.0220                 1.7507                 1.5035
 Frc consts  --      1.5731                 1.3842                 1.1982
 IR Inten    --     82.8634                 0.6714                20.6261

                     43                     44                     45
                      A                      A                      A
 Frequencies --   1201.1102              1221.7476              1261.5072
 Red. masses --      1.4868                 1.1917                 1.7723
 Frc consts  --      1.2638                 1.0480                 1.6618
 IR Inten    --     17.9310                20.9295                37.1899

                     46                     47                     48
                      A                      A                      A
 Frequencies --   1277.8795              1312.9948              1322.6343
 Red. masses --      1.3504                 1.5784                 1.2778
 Frc consts  --      1.2993                 1.6033                 1.3171
 IR Inten    --     20.8176                19.4939                58.0191

                     49                     50                     51
                      A                      A                      A
 Frequencies --   1338.2322              1386.2728              1399.0618
 Red. masses --      2.3257                 9.3752                 1.7078
 Frc consts  --      2.4540                10.6151                 1.9695
 IR Inten    --    230.4125               597.6052                 4.6356

                     52                     53                     54
                      A                      A                      A
 Frequencies --   1423.3739              1473.1301              1480.1728
 Red. masses --      2.6116                 1.6997                 1.7206
 Frc consts  --      3.1175                 2.1732                 2.2210
 IR Inten    --      3.4415                19.0365                11.9599

                     55                     56                     57
                      A                      A                      A
 Frequencies --   1494.2218              1508.5549              1514.0853
 Red. masses --      1.8533                 1.5565                 1.2685
 Frc consts  --      2.4379                 2.0870                 1.7133
 IR Inten    --     11.1190                 7.1899                60.5605

                     58                     59                     60
                      A                      A                      A
 Frequencies --   1520.7308              1533.8582              1544.2046
 Red. masses --      1.2149                 1.0866                 1.0923
 Frc consts  --      1.6554                 1.5062                 1.5346
 IR Inten    --     59.3156                25.0379                 4.8968

                     61                     62                     63
                      A                      A                      A
 Frequencies --   1549.1599              1576.1876              1608.9580
 Red. masses --      1.1244                 2.7782                 7.6141
 Frc consts  --      1.5899                 4.0666                11.6134
 IR Inten    --     16.2119               150.8771               248.2241

                     64                     65                     66
                      A                      A                      A
 Frequencies --   1655.2936              1667.9659              2995.6443
 Red. masses --      5.9573                 7.0598                 1.0714
 Frc consts  --      9.6173                11.5722                 5.6649
 IR Inten    --    147.7062                17.4188                30.1404

                     67                     68                     69
                      A                      A                      A
 Frequencies --   3007.6192              3011.9719              3051.1805
 Red. masses --      1.0527                 1.0553                 1.1084
 Frc consts  --      5.6105                 5.6408                 6.0797
 IR Inten    --     78.0118                58.3297                72.3553

                     70                     71                     72
                      A                      A                      A
 Frequencies --   3089.9805              3096.0067              3146.6897
 Red. masses --      1.0924                 1.0850                 1.1016
 Frc consts  --      6.1455                 6.1273                 6.4265
 IR Inten    --     24.5960                32.9341                19.4499

                     73                     74                     75
                      A                      A                      A
 Frequencies --   3224.0699              3257.4093              3267.0285
 Red. masses --      1.0888                 1.0927                 1.0897
 Frc consts  --      6.6683                 6.8312                 6.8530
 IR Inten    --     11.6619                 0.8618                 3.4180

                     76                     77                     78
                      A                      A                      A
 Frequencies --   3501.5192              3545.2917              3766.8963
 Red. masses --      1.0738                 1.0754                 1.0666
 Frc consts  --      7.7569                 7.9638                 8.9171
 IR Inten    --     26.2309                26.9346                24.7130

 - Thermochemistry -
 -------------------
 Temperature   298.150 Kelvin.  Pressure   1.00000 Atm.
 Atom     1 has atomic number  6 and mass  12.00000

 Molecular mass:   211.09569 amu.
 Principal axes and moments of inertia in atomic units:
                           1         2         3
     Eigenvalues --  2449.039224790.357987088.32117
           X            0.99954   0.02998  -0.00403
           Y           -0.02999   0.99955  -0.00227
           Z            0.00396   0.00239   0.99999
 This molecule is an asymmetric top.
 Rotational symmetry number  1.
 Warning -- assumption of classical behavior for rotation
           may cause significant error
 Rotational temperatures (Kelvin)      0.03537     0.01808     0.01222
 Rotational constants (GHZ):           0.73692     0.37674     0.25461
 Zero-point vibrational energy     600241.6 (Joules/Mol)
                                  143.46118 (Kcal/Mol)
 Warning -- explicit consideration of  22 degrees of freedom as
           vibrations may cause significant error
 Vibrational temperatures:     71.84    85.14    99.18   125.88   144.97
          (Kelvin)            214.89   245.59   276.10   321.82   368.93
                              384.47   406.34   429.94   486.01   509.73
                              552.73   663.31   673.97   746.47   811.66
                              822.10   860.13   921.97   978.56  1034.89
                             1084.22  1115.48  1181.76  1192.46  1236.03
                             1278.28  1308.58  1360.65  1365.31  1437.40
                             1557.90  1582.75  1596.39  1614.83  1653.30
                             1666.68  1673.33  1728.13  1757.82  1815.03
                             1838.58  1889.11  1902.98  1925.42  1994.54
                             2012.94  2047.92  2119.51  2129.64  2149.85
                             2170.47  2178.43  2187.99  2206.88  2221.77
                             2228.90  2267.78  2314.93  2381.60  2399.83
                             4310.06  4327.29  4333.56  4389.97  4445.79
                             4454.46  4527.38  4638.72  4686.69  4700.53
                             5037.91  5100.88  5419.72

 Zero-point correction=                           0.228620 (Hartree/Particle)
 Thermal correction to Energy=                    0.243142
 Thermal correction to Enthalpy=                  0.244086
 Thermal correction to Gibbs Free Energy=         0.186473
 Sum of electronic and zero-point Energies=           -740.424113
 Sum of electronic and thermal Energies=              -740.409590
 Sum of electronic and thermal Enthalpies=            -740.408646
 Sum of electronic and thermal Free Energies=         -740.466260

                     E (Thermal)             CV                S
                      KCal/Mol        Cal/Mol-Kelvin    Cal/Mol-Kelvin
 Total                  152.574             54.034            121.258
 Electronic               0.000              0.000              0.000
 Translational            0.889              2.981             41.945
 Rotational               0.889              2.981             32.786
 Vibrational            150.797             48.073             46.526
 Vibration     1          0.595              1.978              4.820
 Vibration     2          0.597              1.974              4.485
 Vibration     3          0.598              1.969              4.184
 Vibration     4          0.601              1.958              3.715
 Vibration     5          0.604              1.949              3.440
 Vibration     6          0.618              1.903              2.680
 Vibration     7          0.626              1.879              2.428
 Vibration     8          0.634              1.851              2.209
 Vibration     9          0.649              1.805              1.929
 Vibration    10          0.666              1.752              1.686
 Vibration    11          0.672              1.733              1.614
 Vibration    12          0.681              1.706              1.519
 Vibration    13          0.692              1.676              1.424
 Vibration    14          0.718              1.600              1.223
 Vibration    15          0.730              1.566              1.147
 Vibration    16          0.753              1.504              1.023
 Vibration    17          0.819              1.337              0.763
 Vibration    18          0.826              1.320              0.742
 Vibration    19          0.874              1.208              0.613
 Vibration    20          0.920              1.109              0.516
 Vibration    21          0.928              1.093              0.502
 Vibration    22          0.956              1.036              0.453

 Optimization completed.
    -- Stationary point found.
 Normal termination of Gaussian 16 at Thu Dec 10 15:01:57 2020.

 ----------------------------------------------------------------------
 # B3LYP/6-311++G(d,p) empiricaldispersion=gd3bj scf=xqc pop=npa geom=c
 heck
 ----------------------------------------------------------------------

 ---------------------------------------
 CID_139982677_JID_5047_Energie_neutraal
 ---------------------------------------
 Structure from the checkpoint file:  "JID_5047.chk"
 Charge =  0 Multiplicity = 1

 SCF Done:  E(RB3LYP) =  -740.880140480     A.U. after   15 cycles
 Normal termination of Gaussian 16 at Thu Dec 10 15:05:53 2020.

 ----------------------------------------------------------------------
 # B3LYP/6-311++G(d,p) empiricaldispersion=gd3bj scf=xqc pop=npa geom=c
 heck
 ----------------------------------------------------------------------

 -------------------------------------
 CID_139982677_JID_5047_Energie_kation
 -------------------------------------
 Structure from the checkpoint file:  "JID_5047.chk"
 Charge =  1 Multiplicity = 2

 SCF Done:  E(UB3LYP) =  -740.601916736     A.U. after   25 cycles
 Normal termination of Gaussian 16 at Thu Dec 10 15:15:07 2020.
 Gaussian 16:  ES64L-G16RevA.03 25-Dec-2016

 ----------------------------------------------------------------------
 # B3LYP/6-311++G(d,p) empiricaldispersion=gd3bj scf=xqc pop=npa geom=c
 heck
 ----------------------------------------------------------------------

 ------------------------------------
 CID_139982677_JID_5047_Energie_anion
 ------------------------------------
 Structure from the checkpoint file:  "JID_5047.chk"
 Charge = -1 Multiplicity = 2

                         Standard orientation:
 ---------------------------------------------------------------------
 Center     Atomic      Atomic             Coordinates (Angstroms)
 Number     Number       Type             X           Y           Z
 ---------------------------------------------------------------------
      1          6           0       -1.149629    3.761292    0.139536
      2          7           0       -1.281846    2.319355    0.042789
      3          6           0       -0.165201    1.502879    0.003244
      4          6           0       -0.386369    0.093710    0.085821
      5          6           0        0.700865   -0.767385    0.081786
      6          6           0        1.995637   -0.245245   -0.029339
      7          6           0        2.228223    1.118623   -0.154063
      8          6           0        1.141751    1.988910   -0.133584
      9          7           0        3.122579   -1.164788   -0.029223
     10          8           0        2.886296   -2.370593    0.102638
     11          8           0        4.256875   -0.694829   -0.160214
     12          7           0       -1.718069   -0.328677    0.212264
     13          6           0       -2.009343   -1.753049    0.258429
     14          6           0       -3.512624   -1.947667    0.346873
     15          8           0       -4.079297   -1.328665   -0.806783
     16          1           0       -0.675043    4.155812   -0.764802
     17          1           0       -0.555620    4.084935    1.008592
     18          1           0       -2.147606    4.199401    0.213575
     19          1           0       -2.027171    1.920070    0.603880
     20          1           0        0.578871   -1.839280    0.147473
     21          1           0        3.242827    1.483205   -0.245991
     22          1           0        1.315509    3.056288   -0.203113
     23          1           0       -2.328332    0.123963   -0.466019
     24          1           0       -1.625319   -2.286549   -0.626562
     25          1           0       -1.534714   -2.192671    1.142885
     26          1           0       -3.741857   -3.022876    0.380205
     27          1           0       -3.887534   -1.481713    1.270116
     28          1           0       -5.043507   -1.341535   -0.718396
 ---------------------------------------------------------------------

 SCF Done:  E(UB3LYP) =  -740.900081854     A.U. after   29 cycles

 The electronic state is 2-A.
 Alpha  occ. eigenvalues --  -19.04206 -18.95340 -18.95295 -14.33100 -14.21898
 Alpha  occ. eigenvalues --  -14.21278 -10.13248 -10.11126 -10.10428 -10.08898
 Alpha  occ. eigenvalues --  -10.08684 -10.06612 -10.05098 -10.04172 -10.04021
 Alpha  occ. eigenvalues --   -1.03076  -0.94277  -0.85833  -0.84624  -0.81236
 Alpha  occ. eigenvalues --   -0.72660  -0.66490  -0.64119  -0.61068  -0.59595
 Alpha  occ. eigenvalues --   -0.53258  -0.52653  -0.47943  -0.45846  -0.43769
 Alpha  occ. eigenvalues --   -0.42665  -0.40132  -0.38444  -0.37589  -0.36027
 Alpha  occ. eigenvalues --   -0.35386  -0.34979  -0.33950  -0.32859  -0.32240
 Alpha  occ. eigenvalues --   -0.31942  -0.30311  -0.29791  -0.29090  -0.27381
 Alpha  occ. eigenvalues --   -0.25797  -0.25316  -0.23018  -0.19935  -0.18824
 Alpha  occ. eigenvalues --   -0.18373  -0.14141  -0.13109  -0.11669  -0.10837
 Alpha  occ. eigenvalues --   -0.08331   0.03082
 Alpha virt. eigenvalues --    0.04484   0.06605   0.08054   0.08647   0.09629
 Alpha virt. eigenvalues --    0.10424   0.10606   0.11756   0.11950   0.12261
 Alpha virt. eigenvalues --    0.13059   0.13879   0.14431   0.14861   0.15144

  Beta  occ. eigenvalues --  -19.04172 -18.94952 -18.94896 -14.32508 -14.21848
  Beta  occ. eigenvalues --  -14.21283 -10.13233 -10.11127 -10.10427 -10.08962
  Beta  occ. eigenvalues --  -10.08492 -10.06608 -10.05166 -10.04054 -10.03889
  Beta  occ. eigenvalues --   -1.02148  -0.94201  -0.85080  -0.84536  -0.81196
  Beta  occ. eigenvalues --   -0.72486  -0.66379  -0.63860  -0.60953  -0.59328
  Beta  occ. eigenvalues --   -0.53081  -0.52182  -0.47855  -0.45700  -0.43596
  Beta  occ. eigenvalues --   -0.42532  -0.40033  -0.38378  -0.37188  -0.35822
  Beta  occ. eigenvalues --   -0.34862  -0.33908  -0.32764  -0.32489  -0.32146
  Beta  occ. eigenvalues --   -0.31873  -0.30204  -0.29630  -0.29045  -0.27185
  Beta  occ. eigenvalues --   -0.25683  -0.25032  -0.22943  -0.19896  -0.18439
  Beta  occ. eigenvalues --   -0.18069  -0.12743  -0.11781  -0.10868  -0.10441
  Beta  occ. eigenvalues --   -0.07695
  Beta virt. eigenvalues --    0.05446   0.06583   0.08173   0.08630   0.09189
  Beta virt. eigenvalues --    0.09625   0.10440   0.10592   0.11777   0.12056
  Beta virt. eigenvalues --    0.12335   0.13074   0.13885   0.14411   0.15132

 Mulliken charges and spin densities:
               1          2
     1  C   -0.346517  -0.017007
     2  N   -0.178044   0.002338
     3  C   -0.653331   0.185120
     4  C    0.145467  -0.151960
     5  C    0.306003   0.165387
     6  C   -0.765996  -0.065981
     7  C   -0.089124   0.154591
     8  C    0.079313  -0.046527
     9  N   -0.227864   0.188605
    10  O   -0.191949   0.154344
    11  O   -0.164839   0.156366
    12  N   -0.084133   0.001156
    13  C   -0.684051   0.679543
    14  C    0.492368  -1.155105
    15  O   -0.315609   0.015678
    16  H    0.141028   0.005083
    17  H    0.141109   0.000099
    18  H    0.106230   0.023037
    19  H    0.223743   0.031686
    20  H    0.236567   0.002392
    21  H    0.222202  -0.008291
    22  H    0.127209   0.002744
    23  H    0.290863  -0.025351
    24  H    0.207261  -0.026383
    25  H    0.131964   0.029706
    26  H    0.004077   0.142301
    27  H   -0.107339   0.250601
    28  H   -0.046610   0.305827
 Sum of Mulliken charges =  -1.00000   1.00000

 Dipole moment (field-independent basis, Debye):
    X=             -7.5497    Y=              5.4648    Z=              1.0897  Tot=              9.3834
 Quadrupole moment (field-independent basis, Debye-Ang):
   XX=           -168.7668   YY=           -107.0128   ZZ=           -101.1038
   XY=             11.5380   XZ=             -3.2085   YZ=             -0.7120

 Summary of Natural Population Analysis:

                                       Natural Population
                Natural  -----------------------------------------------
    Atom  No    Charge         Core      Valence    Rydberg      Total
 -----------------------------------------------------------------------
      C    1   -0.17832      0.99967     2.17166    0.00699     3.17832
      N    2   -0.31278      0.99968     2.80342    0.00968     3.81278
      C    3    0.10906      0.99948     1.87906    0.01240     2.89094
      C    4    0.05424      0.99948     1.93507    0.01121     2.94576
      C    5   -0.09687      0.99949     2.08961    0.00776     3.09687
      C    6    0.02870      0.99941     1.95661    0.01528     2.97130
      C    7   -0.07366      0.99954     2.06495    0.00917     3.07366
      C    8   -0.15148      0.99955     2.14471    0.00722     3.15148
      N    9    0.30249      0.99971     2.17204    0.02576     3.19751
      O   10   -0.20390      0.99990     3.19649    0.00751     4.20390
      O   11   -0.20092      0.99990     3.19369    0.00733     4.20092
      N   12   -0.33569      0.99968     2.82498    0.01104     3.83569
      C   13   -0.09766      0.99964     2.08607    0.01196     3.09766
      C   14   -0.01353      0.99960     2.00066    0.01326     3.01353
      O   15   -0.37589      0.99989     3.36892    0.00708     4.37589
      H   16    0.09221      0.00000     0.40645    0.00134     0.40779
      H   17    0.08287      0.00000     0.41512    0.00201     0.41713
      H   18    0.09307      0.00000     0.40620    0.00074     0.40693
      H   19    0.18632      0.00000     0.31056    0.00312     0.31368
      H   20    0.11640      0.00000     0.38237    0.00123     0.38360
      H   21    0.11238      0.00000     0.38651    0.00110     0.38762
      H   22    0.09598      0.00000     0.40306    0.00096     0.40402
      H   23    0.18908      0.00000     0.30701    0.00391     0.31092
      H   24    0.08874      0.00000     0.40964    0.00162     0.41126
      H   25    0.09907      0.00000     0.39961    0.00132     0.40093
      H   26    0.07772      0.00000     0.42119    0.00110     0.42228
      H   27    0.07909      0.00000     0.41909    0.00182     0.42091
      H   28    0.23328      0.00000     0.26129    0.00543     0.26672
 =======================================================================
   * Total *    0.00000     14.99462    40.81602    0.18936    56.00000

 Normal termination of Gaussian 16 at Thu Dec 10 15:26:43 2020.
