 Gaussian 16, Revision A.03,

 -----------------------------------------------------------
 # opt freq B3LYP/6-31G(d) empiricaldispersion=gd3bj scf=xqc
 -----------------------------------------------------------

 ------------------------------
 CID_22381872_JID_5446_neutraal
 ------------------------------
 Symbolic Z-matrix:
 Charge =  0 Multiplicity = 1

 SCF Done:  E(RB3LYP) =  -728.517358651     A.U. after   15 cycles
 SCF Done:  E(RB3LYP) =  -728.518354548     A.U. after   13 cycles
 SCF Done:  E(RB3LYP) =  -728.515928599     A.U. after   14 cycles
 SCF Done:  E(RB3LYP) =  -728.518576065     A.U. after   13 cycles
 SCF Done:  E(RB3LYP) =  -728.521606598     A.U. after   13 cycles
 SCF Done:  E(RB3LYP) =  -728.522016971     A.U. after   12 cycles
 SCF Done:  E(RB3LYP) =  -728.522329348     A.U. after   12 cycles
 SCF Done:  E(RB3LYP) =  -728.522519244     A.U. after   11 cycles
 SCF Done:  E(RB3LYP) =  -728.522545698     A.U. after   11 cycles
 SCF Done:  E(RB3LYP) =  -728.522592373     A.U. after   11 cycles
 SCF Done:  E(RB3LYP) =  -728.522605482     A.U. after    9 cycles
 SCF Done:  E(RB3LYP) =  -728.522606020     A.U. after    8 cycles
 SCF Done:  E(RB3LYP) =  -728.522606167     A.U. after    8 cycles
 SCF Done:  E(RB3LYP) =  -728.522606281     A.U. after    8 cycles
 SCF Done:  E(RB3LYP) =  -728.522606320     A.U. after    7 cycles
 Optimization completed.
    -- Stationary point found.
 Normal termination of Gaussian 16 at Thu Dec 10 16:10:20 2020.

 --------------------------------------------------------------------
 #N Geom=AllCheck Guess=TCheck SCRF=Check GenChk RB3LYP/6-31G(d) Freq
 --------------------------------------------------------------------

 Structure from the checkpoint file:  "JID_5446.chk"
 ------------------------------
 CID_22381872_JID_5446_neutraal
 ------------------------------
 Charge =  0 Multiplicity = 1

 SCF Done:  E(RB3LYP) =  -728.522606320     A.U. after    1 cycles

  Exact polarizability: 147.054   0.203 130.823 -10.089 -18.747  90.139
 Approx polarizability: 213.971  -2.952 197.848 -26.219 -42.533 146.686

                      1                      2                      3
                      A                      A                      A
 Frequencies --     27.7221                63.6792                81.9627
 Red. masses --      4.2475                 3.9397                 3.1522
 Frc consts  --      0.0019                 0.0094                 0.0125
 IR Inten    --      1.0217                 0.8117                 1.5352

                      4                      5                      6
                      A                      A                      A
 Frequencies --     87.0253               105.6919               127.9075
 Red. masses --      4.4351                 4.3349                 1.8490
 Frc consts  --      0.0198                 0.0285                 0.0178
 IR Inten    --      1.3021                 0.7553                 4.4661

                      7                      8                      9
                      A                      A                      A
 Frequencies --    135.6891               158.6423               166.6846
 Red. masses --      2.3655                 1.5638                 2.2352
 Frc consts  --      0.0257                 0.0232                 0.0366
 IR Inten    --      1.4276                 1.6842                 2.2084

                     10                     11                     12
                      A                      A                      A
 Frequencies --    208.1831               226.4634               274.0457
 Red. masses --      3.4890                 2.7178                 2.3917
 Frc consts  --      0.0891                 0.0821                 0.1058
 IR Inten    --      1.4960                 6.8966                 2.5822

                     13                     14                     15
                      A                      A                      A
 Frequencies --    298.7289               328.7773               364.2010
 Red. masses --      6.1488                 3.8621                 3.7006
 Frc consts  --      0.3233                 0.2460                 0.2892
 IR Inten    --      1.6432                 7.2624                 6.0196

                     16                     17                     18
                      A                      A                      A
 Frequencies --    394.1300               418.5735               456.7709
 Red. masses --      8.2010                 2.0447                 4.7091
 Frc consts  --      0.7506                 0.2111                 0.5789
 IR Inten    --      7.3471                 3.0993                 3.1721

                     19                     20                     21
                      A                      A                      A
 Frequencies --    501.5737               543.6343               569.5742
 Red. masses --      3.4398                 3.6822                 3.8385
 Frc consts  --      0.5099                 0.6412                 0.7337
 IR Inten    --      7.6020                 6.8272                 5.3041

                     22                     23                     24
                      A                      A                      A
 Frequencies --    590.8608               674.3000               716.2823
 Red. masses --      3.7124                 6.1738                 3.7127
 Frc consts  --      0.7636                 1.6539                 1.1223
 IR Inten    --      3.7695                 8.3734                36.1042

                     25                     26                     27
                      A                      A                      A
 Frequencies --    775.9788               794.7707               802.8881
 Red. masses --      2.2306                 2.2528                 3.9869
 Frc consts  --      0.7913                 0.8384                 1.5143
 IR Inten    --     16.5429                 7.2869                13.9493

                     28                     29                     30
                      A                      A                      A
 Frequencies --    838.1944               857.4396               886.3926
 Red. masses --      4.6454                 2.9628                 1.7140
 Frc consts  --      1.9229                 1.2834                 0.7934
 IR Inten    --      5.9361                24.8903                 6.9285

                     31                     32                     33
                      A                      A                      A
 Frequencies --    910.6256               959.2655               985.5193
 Red. masses --      2.3537                 1.3705                 1.2616
 Frc consts  --      1.1500                 0.7430                 0.7220
 IR Inten    --     16.1895                 2.8262                 0.1683

                     34                     35                     36
                      A                      A                      A
 Frequencies --   1006.9387              1012.2071              1069.6584
 Red. masses --      6.8095                 2.6961                 2.8873
 Frc consts  --      4.0679                 1.6275                 1.9464
 IR Inten    --      6.1882                21.2042                21.3401

                     37                     38                     39
                      A                      A                      A
 Frequencies --   1081.0009              1115.8509              1124.6902
 Red. masses --      2.8308                 2.7684                 2.6815
 Frc consts  --      1.9490                 2.0309                 1.9984
 IR Inten    --     46.6069                52.7315                81.0084

                     40                     41                     42
                      A                      A                      A
 Frequencies --   1165.5168              1182.7929              1186.8811
 Red. masses --      1.7748                 2.5002                 1.2758
 Frc consts  --      1.4205                 2.0608                 1.0589
 IR Inten    --     48.6373                42.0393                 1.2290

                     43                     44                     45
                      A                      A                      A
 Frequencies --   1194.0432              1194.6691              1223.3392
 Red. masses --      1.1328                 1.3880                 1.5470
 Frc consts  --      0.9516                 1.1671                 1.3640
 IR Inten    --      9.9427                 9.4778                38.8764

                     46                     47                     48
                      A                      A                      A
 Frequencies --   1239.4114              1266.5789              1287.5583
 Red. masses --      1.7806                 2.6286                 2.5970
 Frc consts  --      1.6116                 2.4845                 2.5366
 IR Inten    --     27.9945               121.3659               171.7686

                     49                     50                     51
                      A                      A                      A
 Frequencies --   1306.1035              1324.8711              1338.5896
 Red. masses --      1.9698                 1.4177                 1.1901
 Frc consts  --      1.9799                 1.4662                 1.2564
 IR Inten    --    159.7031                76.7411                17.6399

                     52                     53                     54
                      A                      A                      A
 Frequencies --   1354.3952              1420.1219              1439.5046
 Red. masses --      7.2940                 1.2649                 1.2965
 Frc consts  --      7.8832                 1.5030                 1.5828
 IR Inten    --     23.2464                12.5004                13.7180

                     55                     56                     57
                      A                      A                      A
 Frequencies --   1488.6129              1491.2793              1493.8661
 Red. masses --      1.2338                 1.6823                 1.1856
 Frc consts  --      1.6109                 2.2043                 1.5588
 IR Inten    --      9.5333                19.4525                 7.2161

                     58                     59                     60
                      A                      A                      A
 Frequencies --   1506.2191              1510.7938              1512.1345
 Red. masses --      1.1606                 1.1353                 1.0548
 Frc consts  --      1.5513                 1.5268                 1.4211
 IR Inten    --      2.9152                 1.1585                 4.6140

                     61                     62                     63
                      A                      A                      A
 Frequencies --   1525.5602              1527.5590              1538.4807
 Red. masses --      1.0479                 1.1847                 1.9509
 Frc consts  --      1.4370                 1.6287                 2.7207
 IR Inten    --      8.9441                 1.6658                60.2271

                     64                     65                     66
                      A                      A                      A
 Frequencies --   1540.5166              1634.5285              1659.5569
 Red. masses --      1.1128                 6.3120                 5.9221
 Frc consts  --      1.5560                 9.9357                 9.6097
 IR Inten    --      4.1345                19.8079                27.6133

                     67                     68                     69
                      A                      A                      A
 Frequencies --   1817.1630              2974.2894              3001.9755
 Red. masses --     11.7987                 1.0712                 1.0415
 Frc consts  --     22.9548                 5.5830                 5.5299
 IR Inten    --    222.9574                71.9549                55.5397

                     70                     71                     72
                      A                      A                      A
 Frequencies --   3039.6152              3062.5518              3073.3869
 Red. masses --      1.0673                 1.0967                 1.0289
 Frc consts  --      5.8100                 6.0603                 5.7263
 IR Inten    --     57.5254                39.4812                39.4072

                     73                     74                     75
                      A                      A                      A
 Frequencies --   3104.6473              3141.8521              3144.9997
 Red. masses --      1.1000                 1.0924                 1.0975
 Frc consts  --      6.2472                 6.3532                 6.3957
 IR Inten    --     39.6707                16.9742                15.8588

                     76                     77                     78
                      A                      A                      A
 Frequencies --   3149.2230              3176.1208              3189.6399
 Red. masses --      1.1074                 1.1072                 1.0860
 Frc consts  --      6.4709                 6.5808                 6.5100
 IR Inten    --     20.1365                20.2032                 2.9229

                     79                     80                     81
                      A                      A                      A
 Frequencies --   3204.3337              3213.2717              3231.4774
 Red. masses --      1.0904                 1.0955                 1.0933
 Frc consts  --      6.5965                 6.6645                 6.7262
 IR Inten    --     16.7928                16.8636                 6.1753

 - Thermochemistry -
 -------------------
 Temperature   298.150 Kelvin.  Pressure   1.00000 Atm.
 Atom     1 has atomic number  6 and mass  12.00000

 Molecular mass:   210.08921 amu.
 Principal axes and moments of inertia in atomic units:
                           1         2         3
     Eigenvalues --  2432.105782985.626844053.58006
           X            0.99966  -0.02615  -0.00089
           Y            0.02616   0.99965   0.00343
           Z            0.00080  -0.00345   0.99999
 This molecule is an asymmetric top.
 Rotational symmetry number  1.
 Warning -- assumption of classical behavior for rotation
           may cause significant error
 Rotational temperatures (Kelvin)      0.03561     0.02901     0.02137
 Rotational constants (GHZ):           0.74205     0.60448     0.44522
 Zero-point vibrational energy     626966.2 (Joules/Mol)
                                  149.84851 (Kcal/Mol)
 Warning -- explicit consideration of  22 degrees of freedom as
           vibrations may cause significant error
 Vibrational temperatures:     39.89    91.62   117.93   125.21   152.07
          (Kelvin)            184.03   195.23   228.25   239.82   299.53
                              325.83   394.29   429.80   473.04   524.00
                              567.07   602.23   657.19   721.65   782.17
                              819.49   850.12   970.17  1030.57  1116.46
                             1143.50  1155.18  1205.97  1233.66  1275.32
                             1310.19  1380.17  1417.94  1448.76  1456.34
                             1539.00  1555.32  1605.46  1618.18  1676.92
                             1701.78  1707.66  1717.96  1718.86  1760.11
                             1783.24  1822.32  1852.51  1879.19  1906.19
                             1925.93  1948.67  2043.24  2071.13  2141.78
                             2145.62  2149.34  2167.11  2173.70  2175.62
                             2194.94  2197.82  2213.53  2216.46  2351.72
                             2387.73  2614.49  4279.34  4319.17  4373.33
                             4406.33  4421.92  4466.89  4520.42  4524.95
                             4531.03  4569.73  4589.18  4610.32  4623.18
                             4649.38

 Zero-point correction=                           0.238799 (Hartree/Particle)
 Thermal correction to Energy=                    0.253684
 Thermal correction to Enthalpy=                  0.254628
 Thermal correction to Gibbs Free Energy=         0.196129
 Sum of electronic and zero-point Energies=           -728.283808
 Sum of electronic and thermal Energies=              -728.268923
 Sum of electronic and thermal Enthalpies=            -728.267979
 Sum of electronic and thermal Free Energies=         -728.326478

                     E (Thermal)             CV                S
                      KCal/Mol        Cal/Mol-Kelvin    Cal/Mol-Kelvin
 Total                  159.189             54.231            123.122
 Electronic               0.000              0.000              0.000
 Translational            0.889              2.981             41.931
 Rotational               0.889              2.981             31.754
 Vibrational            157.411             48.269             49.437
 Vibration     1          0.593              1.984              5.986
 Vibration     2          0.597              1.972              4.340
 Vibration     3          0.600              1.961              3.843
 Vibration     4          0.601              1.958              3.726
 Vibration     5          0.605              1.945              3.347
 Vibration     6          0.611              1.925              2.977
 Vibration     7          0.614              1.918              2.864
 Vibration     8          0.621              1.893              2.566
 Vibration     9          0.624              1.883              2.473
 Vibration    10          0.641              1.828              2.060
 Vibration    11          0.650              1.801              1.907
 Vibration    12          0.676              1.721              1.571
 Vibration    13          0.692              1.676              1.424
 Vibration    14          0.712              1.618              1.266
 Vibration    15          0.738              1.546              1.104
 Vibration    16          0.761              1.483              0.984
 Vibration    17          0.781              1.430              0.897
 Vibration    18          0.815              1.346              0.776
 Vibration    19          0.857              1.247              0.654
 Vibration    20          0.899              1.154              0.558
 Vibration    21          0.926              1.097              0.505
 Vibration    22          0.948              1.051              0.466

 Optimization completed.
    -- Stationary point found.
 Normal termination of Gaussian 16 at Thu Dec 10 16:20:41 2020.

 ----------------------------------------------------------------------
 # B3LYP/6-311++G(d,p) empiricaldispersion=gd3bj scf=xqc pop=npa geom=c
 heck
 ----------------------------------------------------------------------

 --------------------------------------
 CID_22381872_JID_5446_Energie_neutraal
 --------------------------------------
 Structure from the checkpoint file:  "JID_5446.chk"
 Charge =  0 Multiplicity = 1

 SCF Done:  E(RB3LYP) =  -728.729695527     A.U. after   16 cycles
 Normal termination of Gaussian 16 at Thu Dec 10 16:25:02 2020.

 ----------------------------------------------------------------------
 # B3LYP/6-311++G(d,p) empiricaldispersion=gd3bj scf=xqc pop=npa geom=c
 heck
 ----------------------------------------------------------------------

 ------------------------------------
 CID_22381872_JID_5446_Energie_kation
 ------------------------------------
 Structure from the checkpoint file:  "JID_5446.chk"
 Charge =  1 Multiplicity = 2

 SCF Done:  E(UB3LYP) =  -728.419766903     A.U. after   25 cycles
 Normal termination of Gaussian 16 at Thu Dec 10 16:37:15 2020.
 Gaussian 16:  ES64L-G16RevA.03 25-Dec-2016

 ----------------------------------------------------------------------
 # B3LYP/6-311++G(d,p) empiricaldispersion=gd3bj scf=xqc pop=npa geom=c
 heck
 ----------------------------------------------------------------------

 -----------------------------------
 CID_22381872_JID_5446_Energie_anion
 -----------------------------------
 Structure from the checkpoint file:  "JID_5446.chk"
 Charge = -1 Multiplicity = 2

                         Standard orientation:
 ---------------------------------------------------------------------
 Center     Atomic      Atomic             Coordinates (Angstroms)
 Number     Number       Type             X           Y           Z
 ---------------------------------------------------------------------
      1          6           0        0.525088    1.355495    2.164216
      2          8           0        1.282752    1.263298    0.974439
      3          6           0        1.115427    2.338204    0.067780
      4          6           0       -0.277262    2.459234   -0.545915
      5          8           0       -0.626087    1.327936   -1.345361
      6          6           0       -1.200153    0.271059   -0.684888
      7          6           0       -2.556779    0.341405   -0.356785
      8          6           0       -3.184700   -0.720952    0.290225
      9          6           0       -2.455569   -1.863942    0.620928
     10          6           0       -1.101362   -1.931659    0.305342
     11          6           0       -0.455967   -0.876308   -0.353441
     12          6           0        1.001368   -0.960685   -0.658968
     13          8           0        1.573385   -0.428114   -1.584957
     14          8           0        1.634620   -1.746474    0.247845
     15          6           0        3.056337   -1.811847    0.085653
     16          1           0        0.861174    0.540201    2.808817
     17          1           0       -0.551958    1.233162    1.984733
     18          1           0        0.694558    2.316162    2.675719
     19          1           0        1.361839    3.297229    0.557957
     20          1           0        1.835088    2.151272   -0.732111
     21          1           0       -1.045582    2.630557    0.220023
     22          1           0       -0.280512    3.319584   -1.223298
     23          1           0       -3.107817    1.235602   -0.631620
     24          1           0       -4.242243   -0.656497    0.530468
     25          1           0       -2.938084   -2.696925    1.123067
     26          1           0       -0.520682   -2.807342    0.571660
     27          1           0        3.409304   -2.491958    0.861788
     28          1           0        3.319434   -2.187356   -0.906633
     29          1           0        3.489551   -0.816887    0.218821
 ---------------------------------------------------------------------

 SCF Done:  E(UB3LYP) =  -728.721130163     A.U. after   33 cycles
 SCF Done:  E(UB3LYP) =  -728.721130163     a.u. after    1 cycles

 The electronic state is 2-A.
 Alpha  occ. eigenvalues --  -19.03130 -19.01180 -19.01054 -18.95953 -10.15004
 Alpha  occ. eigenvalues --  -10.10768 -10.10546 -10.10034 -10.10024 -10.09573
 Alpha  occ. eigenvalues --  -10.04708 -10.04536 -10.04481 -10.04300 -10.04193
 Alpha  occ. eigenvalues --   -0.96994  -0.93578  -0.91886  -0.87695  -0.72869
 Alpha  occ. eigenvalues --   -0.65206  -0.64302  -0.61063  -0.59698  -0.57259
 Alpha  occ. eigenvalues --   -0.50537  -0.49978  -0.46498  -0.44313  -0.41116
 Alpha  occ. eigenvalues --   -0.38911  -0.38534  -0.37081  -0.35520  -0.35148
 Alpha  occ. eigenvalues --   -0.34793  -0.33454  -0.32566  -0.32169  -0.31171
 Alpha  occ. eigenvalues --   -0.29638  -0.29285  -0.27699  -0.26467  -0.25226
 Alpha  occ. eigenvalues --   -0.24394  -0.23522  -0.23108  -0.21447  -0.20688
 Alpha  occ. eigenvalues --   -0.17755  -0.17329  -0.14495  -0.13549  -0.13003
 Alpha  occ. eigenvalues --   -0.11560   0.05075
 Alpha virt. eigenvalues --    0.07272   0.07814   0.08190   0.08858   0.09691
 Alpha virt. eigenvalues --    0.10361   0.10946   0.11128   0.11574   0.12056
 Alpha virt. eigenvalues --    0.12602   0.13241   0.13901   0.14438   0.15217

  Beta  occ. eigenvalues --  -19.03084 -19.01180 -19.01051 -18.95770 -10.14863
  Beta  occ. eigenvalues --  -10.10765 -10.10502 -10.10003 -10.09956 -10.09545
  Beta  occ. eigenvalues --  -10.04745 -10.04493 -10.04435 -10.04143 -10.03933
  Beta  occ. eigenvalues --   -0.96816  -0.93540  -0.91866  -0.87418  -0.72614
  Beta  occ. eigenvalues --   -0.65097  -0.63964  -0.60927  -0.59560  -0.57186
  Beta  occ. eigenvalues --   -0.50282  -0.49689  -0.46392  -0.44163  -0.41021
  Beta  occ. eigenvalues --   -0.38784  -0.38480  -0.36931  -0.35361  -0.35013
  Beta  occ. eigenvalues --   -0.34713  -0.33329  -0.32449  -0.32077  -0.31035
  Beta  occ. eigenvalues --   -0.29521  -0.29188  -0.27410  -0.26068  -0.25133
  Beta  occ. eigenvalues --   -0.24101  -0.23346  -0.22948  -0.21148  -0.20650
  Beta  occ. eigenvalues --   -0.17403  -0.17037  -0.14368  -0.13077  -0.12300
  Beta  occ. eigenvalues --   -0.10956
  Beta virt. eigenvalues --    0.07491   0.08029   0.08368   0.09308   0.09664
  Beta virt. eigenvalues --    0.09837   0.10498   0.11210   0.11304   0.11815
  Beta virt. eigenvalues --    0.12092   0.12561   0.13568   0.14034   0.14470

 Mulliken charges and spin densities:
               1          2
     1  C    0.315169  -0.651102
     2  O   -0.089270   0.024131
     3  C   -0.148277  -0.244238
     4  C    0.413884  -0.581408
     5  O   -0.074251   0.008199
     6  C   -0.846573   0.071043
     7  C    0.220854  -0.341574
     8  C   -0.184834   0.023019
     9  C   -0.346528  -0.087297
    10  C   -0.270695   0.280221
    11  C    0.956718   0.287950
    12  C   -0.337369  -0.106473
    13  O   -0.220979   0.060414
    14  O   -0.014341   0.017957
    15  C   -0.076872  -0.109223
    16  H   -0.011858   0.159436
    17  H    0.041997   0.104633
    18  H   -0.281079   0.407732
    19  H   -0.434328   0.548822
    20  H    0.267314  -0.046497
    21  H    0.004700   0.137325
    22  H   -0.368597   0.527157
    23  H   -0.062851   0.219021
    24  H    0.033730   0.078604
    25  H    0.069360   0.057453
    26  H    0.162962  -0.001879
    27  H    0.023958   0.101724
    28  H    0.119381   0.032615
    29  H    0.138677   0.022236
 Sum of Mulliken charges =  -1.00000   1.00000

 Dipole moment (field-independent basis, Debye):
    X=              0.7165    Y=             -3.3564    Z=              0.7262  Tot=              3.5081
 Quadrupole moment (field-independent basis, Debye-Ang):
   XX=           -115.9692   YY=           -126.3323   ZZ=           -119.2120
   XY=             -3.6633   XZ=             -0.9539   YZ=             -4.6635

 Summary of Natural Population Analysis:

                                       Natural Population
                Natural  -----------------------------------------------
    Atom  No    Charge         Core      Valence    Rydberg      Total
 -----------------------------------------------------------------------
      C    1   -0.10129      0.99960     2.09177    0.00992     3.10129
      O    2   -0.29857      0.99989     3.28652    0.01216     4.29857
      C    3   -0.02280      0.99957     2.00932    0.01391     3.02280
      C    4   -0.02150      0.99955     2.00860    0.01335     3.02150
      O    5   -0.28823      0.99985     3.27836    0.01001     4.28823
      C    6    0.18481      0.99933     1.80167    0.01419     2.81519
      C    7   -0.13712      0.99952     2.12672    0.01088     3.13712
      C    8   -0.05258      0.99957     2.04363    0.00938     3.05258
      C    9   -0.12802      0.99957     2.11838    0.01007     3.12802
      C   10   -0.06366      0.99955     2.05563    0.00848     3.06366
      C   11   -0.06633      0.99939     2.05543    0.01150     3.06633
      C   12    0.42401      0.99964     1.55081    0.02553     2.57599
      O   13   -0.29475      0.99987     3.28975    0.00513     4.29475
      O   14   -0.28197      0.99986     3.27344    0.00867     4.28197
      C   15   -0.10488      0.99960     2.09654    0.00873     3.10488
      H   16    0.09117      0.00000     0.40768    0.00115     0.40883
      H   17    0.08484      0.00000     0.41372    0.00143     0.41516
      H   18    0.07622      0.00000     0.42222    0.00156     0.42378
      H   19    0.07727      0.00000     0.42090    0.00183     0.42273
      H   20    0.10038      0.00000     0.39835    0.00127     0.39962
      H   21    0.08396      0.00000     0.41426    0.00178     0.41604
      H   22    0.09087      0.00000     0.40766    0.00147     0.40913
      H   23    0.10015      0.00000     0.39877    0.00108     0.39985
      H   24    0.09074      0.00000     0.40843    0.00083     0.40926
      H   25    0.09394      0.00000     0.40525    0.00082     0.40606
      H   26    0.10177      0.00000     0.39712    0.00112     0.39823
      H   27    0.08310      0.00000     0.41579    0.00110     0.41690
      H   28    0.08684      0.00000     0.41168    0.00148     0.41316
      H   29    0.09162      0.00000     0.40688    0.00150     0.40838
 =======================================================================
   * Total *   -0.00000     14.99437    40.81527    0.19035    56.00000

 Normal termination of Gaussian 16 at Thu Dec 10 16:49:04 2020.
