 Gaussian 16, Revision A.03,

 -----------------------------------------------------------
 # opt freq B3LYP/6-31G(d) empiricaldispersion=gd3bj scf=xqc
 -----------------------------------------------------------

 -------------------------------
 CID_115761273_JID_5531_neutraal
 -------------------------------
 Symbolic Z-matrix:
 Charge =  0 Multiplicity = 1

 SCF Done:  E(RB3LYP) =  -739.393790570     A.U. after   16 cycles
 SCF Done:  E(RB3LYP) =  -739.404160548     A.U. after   14 cycles
 SCF Done:  E(RB3LYP) =  -739.404646550     A.U. after   16 cycles
 SCF Done:  E(RB3LYP) =  -739.401564547     A.U. after   14 cycles
 SCF Done:  E(RB3LYP) =  -739.398840847     A.U. after   14 cycles
 SCF Done:  E(RB3LYP) =  -739.395187712     A.U. after   14 cycles
 SCF Done:  E(RB3LYP) =  -739.405549392     A.U. after   11 cycles
 SCF Done:  E(RB3LYP) =  -739.407145079     A.U. after   13 cycles
 SCF Done:  E(RB3LYP) =  -739.407453270     A.U. after   14 cycles
 SCF Done:  E(RB3LYP) =  -739.407431910     A.U. after   14 cycles
 SCF Done:  E(RB3LYP) =  -739.407656533     A.U. after   13 cycles
 SCF Done:  E(RB3LYP) =  -739.407672128     A.U. after   13 cycles
 SCF Done:  E(RB3LYP) =  -739.407676502     A.U. after   10 cycles
 SCF Done:  E(RB3LYP) =  -739.407677727     A.U. after   10 cycles
 SCF Done:  E(RB3LYP) =  -739.407678098     A.U. after    9 cycles
 SCF Done:  E(RB3LYP) =  -739.407678193     A.U. after    8 cycles
 Optimization completed.
    -- Stationary point found.
 Normal termination of Gaussian 16 at Thu Dec 10 16:31:31 2020.

 --------------------------------------------------------------------
 #N Geom=AllCheck Guess=TCheck SCRF=Check GenChk RB3LYP/6-31G(d) Freq
 --------------------------------------------------------------------

 Structure from the checkpoint file:  "JID_5531.chk"
 -------------------------------
 CID_115761273_JID_5531_neutraal
 -------------------------------
 Charge =  0 Multiplicity = 1

 SCF Done:  E(RB3LYP) =  -739.407678193     A.U. after    1 cycles

  Exact polarizability: 162.418   4.535 141.539   9.654   6.193  72.198
 Approx polarizability: 264.511   6.931 242.077  19.131  12.877 106.648

                      1                      2                      3
                      A                      A                      A
 Frequencies --     32.9962                47.6068                58.7566
 Red. masses --      8.4827                 5.5918                 9.2564
 Frc consts  --      0.0054                 0.0075                 0.0188
 IR Inten    --      0.0363                 0.9752                 0.1260

                      4                      5                      6
                      A                      A                      A
 Frequencies --    108.6310               128.1949               145.9176
 Red. masses --      3.3590                 4.6626                 4.0649
 Frc consts  --      0.0234                 0.0451                 0.0510
 IR Inten    --      1.7197                 2.3823                 1.4562

                      7                      8                      9
                      A                      A                      A
 Frequencies --    208.3808               232.5624               265.5137
 Red. masses --      3.5541                 4.6114                 3.1869
 Frc consts  --      0.0909                 0.1469                 0.1324
 IR Inten    --      1.5576                 0.6932                 0.5508

                     10                     11                     12
                      A                      A                      A
 Frequencies --    312.7128               324.9555               346.5515
 Red. masses --      3.5377                 2.8784                 1.6796
 Frc consts  --      0.2038                 0.1791                 0.1188
 IR Inten    --     12.1502                10.5194               117.2832

                     13                     14                     15
                      A                      A                      A
 Frequencies --    397.1506               408.1296               433.0697
 Red. masses --      4.4769                 3.7747                 2.8852
 Frc consts  --      0.4160                 0.3705                 0.3188
 IR Inten    --      4.2677                 6.2083                26.3792

                     16                     17                     18
                      A                      A                      A
 Frequencies --    456.7909               536.4738               560.9530
 Red. masses --      4.6044                 4.2616                 4.3691
 Frc consts  --      0.5661                 0.7226                 0.8100
 IR Inten    --      7.8673                18.4889                 0.8159

                     19                     20                     21
                      A                      A                      A
 Frequencies --    574.1944               618.5414               642.0492
 Red. masses --      5.8381                 1.5651                 3.2945
 Frc consts  --      1.1341                 0.3528                 0.8001
 IR Inten    --     11.5443                54.8390                42.1674

                     22                     23                     24
                      A                      A                      A
 Frequencies --    708.6021               710.4551               769.8387
 Red. masses --      4.8168                 5.3006                 5.8761
 Frc consts  --      1.4250                 1.5763                 2.0518
 IR Inten    --     11.8262                 1.1228                 7.3822

                     25                     26                     27
                      A                      A                      A
 Frequencies --    780.9059               801.7780               825.2037
 Red. masses --      3.6431                 1.0407                 1.4013
 Frc consts  --      1.3089                 0.3942                 0.5622
 IR Inten    --      2.8142                 0.3641                26.0303

                     28                     29                     30
                      A                      A                      A
 Frequencies --    850.3103               878.4299               924.1664
 Red. masses --      6.0816                 6.4087                 1.3651
 Frc consts  --      2.5907                 2.9136                 0.6869
 IR Inten    --     14.2407                31.2468                 0.0298

                     31                     32                     33
                      A                      A                      A
 Frequencies --    933.0415               939.4410               977.7160
 Red. masses --      1.9654                 2.2018                 1.5200
 Frc consts  --      1.0081                 1.1449                 0.8561
 IR Inten    --      3.1581                20.8996                 5.1009

                     34                     35                     36
                      A                      A                      A
 Frequencies --    989.9150              1027.9730              1032.7204
 Red. masses --      1.3066                 1.9238                 2.8029
 Frc consts  --      0.7544                 1.1977                 1.7613
 IR Inten    --      1.7049                14.6809                 6.4906

                     37                     38                     39
                      A                      A                      A
 Frequencies --   1070.5301              1087.1173              1091.1702
 Red. masses --      1.4276                 2.9405                 5.1691
 Frc consts  --      0.9640                 2.0475                 3.6262
 IR Inten    --     13.2481                14.7327                81.4915

                     40                     41                     42
                      A                      A                      A
 Frequencies --   1096.9148              1123.1847              1172.5232
 Red. masses --      1.3967                 2.8826                 1.4050
 Frc consts  --      0.9901                 2.1426                 1.1381
 IR Inten    --      0.4554                 6.0298                50.6435

                     43                     44                     45
                      A                      A                      A
 Frequencies --   1203.8833              1217.3335              1277.8834
 Red. masses --      1.2551                 1.2731                 1.9082
 Frc consts  --      1.0718                 1.1116                 1.8359
 IR Inten    --      8.2880                18.9102                15.7570

                     46                     47                     48
                      A                      A                      A
 Frequencies --   1305.5553              1324.6737              1344.2419
 Red. masses --      4.7866                 2.5622                 2.5017
 Frc consts  --      4.8070                 2.6489                 2.6634
 IR Inten    --    233.1667                 3.0575                20.8013

                     49                     50                     51
                      A                      A                      A
 Frequencies --   1360.6821              1394.1333              1406.0486
 Red. masses --      2.5010                 1.9652                 1.7234
 Frc consts  --      2.7282                 2.2504                 2.0075
 IR Inten    --     35.1586                48.4878                49.6493

                     52                     53                     54
                      A                      A                      A
 Frequencies --   1441.0247              1451.9792              1484.7289
 Red. masses --      1.3519                 2.8766                 1.0990
 Frc consts  --      1.6540                 3.5731                 1.4274
 IR Inten    --     36.9688                56.2198                 7.3443

                     55                     56                     57
                      A                      A                      A
 Frequencies --   1509.3226              1522.2295              1533.0304
 Red. masses --      2.3305                 1.2781                 1.1781
 Frc consts  --      3.1279                 1.7449                 1.6314
 IR Inten    --     42.9518                18.9149                17.9518

                     58                     59                     60
                      A                      A                      A
 Frequencies --   1549.8364              1606.1662              1644.1627
 Red. masses --      3.1160                 4.4803                 4.8105
 Frc consts  --      4.4098                 6.8099                 7.6618
 IR Inten    --    275.6536                79.1272                41.1828

                     61                     62                     63
                      A                      A                      A
 Frequencies --   1673.4575              2999.6200              3106.0507
 Red. masses --      7.6948                 1.0714                 1.0928
 Frc consts  --     12.6963                 5.6799                 6.2115
 IR Inten    --    243.3527                61.6744                28.9237

                     64                     65                     66
                      A                      A                      A
 Frequencies --   3150.5374              3156.2040              3193.1489
 Red. masses --      1.0534                 1.0577                 1.0884
 Frc consts  --      6.1607                 6.2076                 6.5385
 IR Inten    --     10.7555                 6.2794                 7.8081

                     67                     68                     69
                      A                      A                      A
 Frequencies --   3212.2647              3233.8437              3245.2302
 Red. masses --      1.0940                 1.1187                 1.1026
 Frc consts  --      6.6513                 6.8928                 6.8419
 IR Inten    --     23.2301                 0.3585                14.8634

                     70                     71                     72
                      A                      A                      A
 Frequencies --   3247.2536              3550.4737              3728.7881
 Red. masses --      1.1057                 1.0761                 1.0659
 Frc consts  --      6.8694                 7.9927                 8.7320
 IR Inten    --      2.8193               101.8902                10.7424

 - Thermochemistry -
 -------------------
 Temperature   298.150 Kelvin.  Pressure   1.00000 Atm.
 Atom     1 has atomic number  6 and mass  12.00000

 Molecular mass:   209.08004 amu.
 Principal axes and moments of inertia in atomic units:
                           1         2         3
     Eigenvalues --  1999.904434049.554455045.79427
           X            0.99979   0.01888   0.00805
           Y           -0.01891   0.99981   0.00384
           Z           -0.00797  -0.00399   0.99996
 This molecule is an asymmetric top.
 Rotational symmetry number  1.
 Warning -- assumption of classical behavior for rotation
           may cause significant error
 Rotational temperatures (Kelvin)      0.04331     0.02139     0.01717
 Rotational constants (GHZ):           0.90241     0.44566     0.35767
 Zero-point vibrational energy     536560.2 (Joules/Mol)
                                  128.24096 (Kcal/Mol)
 Warning -- explicit consideration of  20 degrees of freedom as
           vibrations may cause significant error
 Vibrational temperatures:     47.47    68.50    84.54   156.30   184.44
          (Kelvin)            209.94   299.81   334.61   382.01   449.92
                              467.54   498.61   571.41   587.21   623.09
                              657.22   771.87   807.09   826.14   889.94
                              923.77  1019.52  1022.19  1107.63  1123.55
                             1153.58  1187.28  1223.41  1263.86  1329.67
                             1342.44  1351.65  1406.72  1424.27  1479.02
                             1485.85  1540.25  1564.12  1569.95  1578.22
                             1616.01  1687.00  1732.12  1751.47  1838.59
                             1878.40  1905.91  1934.06  1957.72  2005.85
                             2022.99  2073.31  2089.07  2136.19  2171.58
                             2190.15  2205.69  2229.87  2310.91  2365.58
                             2407.73  4315.78  4468.91  4532.92  4541.07
                             4594.23  4621.73  4652.78  4669.16  4672.07
                             5108.34  5364.89

 Zero-point correction=                           0.204365 (Hartree/Particle)
 Thermal correction to Energy=                    0.217692
 Thermal correction to Enthalpy=                  0.218636
 Thermal correction to Gibbs Free Energy=         0.163270
 Sum of electronic and zero-point Energies=           -739.203313
 Sum of electronic and thermal Energies=              -739.189986
 Sum of electronic and thermal Enthalpies=            -739.189042
 Sum of electronic and thermal Free Energies=         -739.244408

                     E (Thermal)             CV                S
                      KCal/Mol        Cal/Mol-Kelvin    Cal/Mol-Kelvin
 Total                  136.604             50.703            116.528
 Electronic               0.000              0.000              0.000
 Translational            0.889              2.981             41.916
 Rotational               0.889              2.981             32.080
 Vibrational            134.826             44.742             42.531
 Vibration     1          0.594              1.983              5.641
 Vibration     2          0.595              1.978              4.914
 Vibration     3          0.596              1.974              4.499
 Vibration     4          0.606              1.942              3.293
 Vibration     5          0.611              1.925              2.973
 Vibration     6          0.617              1.907              2.725
 Vibration     7          0.642              1.828              2.058
 Vibration     8          0.653              1.791              1.859
 Vibration     9          0.671              1.736              1.625
 Vibration    10          0.701              1.649              1.348
 Vibration    11          0.709              1.626              1.285
 Vibration    12          0.725              1.582              1.182
 Vibration    13          0.764              1.476              0.973
 Vibration    14          0.773              1.453              0.933
 Vibration    15          0.794              1.398              0.849
 Vibration    16          0.815              1.346              0.776
 Vibration    17          0.891              1.169              0.573
 Vibration    18          0.917              1.116              0.522
 Vibration    19          0.930              1.087              0.496
 Vibration    20          0.978              0.993              0.419

 Optimization completed.
    -- Stationary point found.
 Normal termination of Gaussian 16 at Thu Dec 10 16:39:10 2020.

 ----------------------------------------------------------------------
 # B3LYP/6-311++G(d,p) empiricaldispersion=gd3bj scf=xqc pop=npa geom=c
 heck
 ----------------------------------------------------------------------

 ---------------------------------------
 CID_115761273_JID_5531_Energie_neutraal
 ---------------------------------------
 Structure from the checkpoint file:  "JID_5531.chk"
 Charge =  0 Multiplicity = 1

 SCF Done:  E(RB3LYP) =  -739.627529978     A.U. after   16 cycles
 Normal termination of Gaussian 16 at Thu Dec 10 16:44:30 2020.

 ----------------------------------------------------------------------
 # B3LYP/6-311++G(d,p) empiricaldispersion=gd3bj scf=xqc pop=npa geom=c
 heck
 ----------------------------------------------------------------------

 -------------------------------------
 CID_115761273_JID_5531_Energie_kation
 -------------------------------------
 Structure from the checkpoint file:  "JID_5531.chk"
 Charge =  1 Multiplicity = 2

 SCF Done:  E(UB3LYP) =  -739.322210414     A.U. after   25 cycles
 Normal termination of Gaussian 16 at Thu Dec 10 16:56:22 2020.
 Gaussian 16:  ES64L-G16RevA.03 25-Dec-2016

 ----------------------------------------------------------------------
 # B3LYP/6-311++G(d,p) empiricaldispersion=gd3bj scf=xqc pop=npa geom=c
 heck
 ----------------------------------------------------------------------

 ------------------------------------
 CID_115761273_JID_5531_Energie_anion
 ------------------------------------
 Structure from the checkpoint file:  "JID_5531.chk"
 Charge = -1 Multiplicity = 2

                         Standard orientation:
 ---------------------------------------------------------------------
 Center     Atomic      Atomic             Coordinates (Angstroms)
 Number     Number       Type             X           Y           Z
 ---------------------------------------------------------------------
      1          6           0       -3.067549   -0.512345   -1.247586
      2          6           0       -2.653643    0.933579   -1.328090
      3          6           0       -2.090242    0.048607   -0.240050
      4          6           0       -2.563825    0.221793    1.192664
      5          8           0       -2.476445   -0.986538    1.929901
      6          7           0       -0.736829   -0.408441   -0.388193
      7          6           0        0.354069    0.374238   -0.147494
      8          6           0        1.687329   -0.118369   -0.049367
      9          7           0        2.758806    0.635595    0.146836
     10          6           0        2.617982    1.946555    0.267476
     11          6           0        1.358375    2.561298    0.195076
     12          6           0        0.237923    1.781871   -0.008274
     13          7           0        1.993877   -1.558535   -0.154312
     14          8           0        3.158940   -1.916277   -0.100140
     15          8           0        1.038067   -2.347814   -0.295525
     16          1           0       -2.675025   -1.192971   -1.996205
     17          1           0       -4.074563   -0.739190   -0.906784
     18          1           0       -1.978295    1.219351   -2.127793
     19          1           0       -3.374584    1.695564   -1.044703
     20          1           0       -1.922024    0.932530    1.722492
     21          1           0       -3.586940    0.631124    1.191545
     22          1           0       -3.035158   -1.641198    1.481083
     23          1           0       -0.557131   -1.401618   -0.291788
     24          1           0        3.523464    2.525188    0.429362
     25          1           0        1.265568    3.637936    0.301071
     26          1           0       -0.743301    2.234623   -0.068603
 ---------------------------------------------------------------------

 SCF Done:  E(UB3LYP) =  -739.661365161     A.U. after   24 cycles

 The electronic state is 2-A.
 Alpha  occ. eigenvalues --  -19.03529 -18.93687 -18.93522 -14.31267 -14.19339
 Alpha  occ. eigenvalues --  -14.14914 -10.12758 -10.12280 -10.09101 -10.08964
 Alpha  occ. eigenvalues --  -10.08792 -10.07818 -10.05449 -10.03597 -10.03039
 Alpha  occ. eigenvalues --   -1.01602  -0.93748  -0.84622  -0.83271  -0.79805
 Alpha  occ. eigenvalues --   -0.75093  -0.65361  -0.62854  -0.60837  -0.54145
 Alpha  occ. eigenvalues --   -0.52343  -0.51089  -0.46673  -0.45452  -0.43522
 Alpha  occ. eigenvalues --   -0.39741  -0.39307  -0.38440  -0.36946  -0.34718
 Alpha  occ. eigenvalues --   -0.34408  -0.34092  -0.32185  -0.32026  -0.29530
 Alpha  occ. eigenvalues --   -0.28777  -0.27181  -0.26143  -0.25789  -0.25354
 Alpha  occ. eigenvalues --   -0.22690  -0.20820  -0.20158  -0.18169  -0.14429
 Alpha  occ. eigenvalues --   -0.12776  -0.12243  -0.11084  -0.08909  -0.08113
 Alpha  occ. eigenvalues --    0.03325
 Alpha virt. eigenvalues --    0.06186   0.07708   0.08917   0.09329   0.10656
 Alpha virt. eigenvalues --    0.11168   0.11651   0.12261   0.12638   0.12971
 Alpha virt. eigenvalues --    0.13813   0.14546   0.14817   0.16546   0.16661

  Beta  occ. eigenvalues --  -19.03529 -18.93222 -18.93019 -14.30679 -14.19316
  Beta  occ. eigenvalues --  -14.14557 -10.12755 -10.12280 -10.09101 -10.08963
  Beta  occ. eigenvalues --  -10.08755 -10.07747 -10.05555 -10.03508 -10.02781
  Beta  occ. eigenvalues --   -1.00587  -0.93746  -0.83967  -0.82955  -0.79368
  Beta  occ. eigenvalues --   -0.75010  -0.64889  -0.62492  -0.60759  -0.53456
  Beta  occ. eigenvalues --   -0.52152  -0.51012  -0.46591  -0.45035  -0.43462
  Beta  occ. eigenvalues --   -0.39700  -0.39113  -0.38421  -0.36435  -0.34632
  Beta  occ. eigenvalues --   -0.34247  -0.32009  -0.31756  -0.31308  -0.29014
  Beta  occ. eigenvalues --   -0.28766  -0.26974  -0.25847  -0.25316  -0.25058
  Beta  occ. eigenvalues --   -0.22432  -0.20745  -0.19958  -0.17859  -0.12862
  Beta  occ. eigenvalues --   -0.11845  -0.10608  -0.09513  -0.08409  -0.07388
  Beta virt. eigenvalues --    0.06176   0.07697   0.08907   0.09312   0.10244
  Beta virt. eigenvalues --    0.10666   0.11205   0.11640   0.12417   0.12903
  Beta virt. eigenvalues --    0.13240   0.13803   0.14626   0.16514   0.16670

 Mulliken charges and spin densities:
               1          2
     1  C   -0.184037  -0.007746
     2  C   -0.293302   0.007458
     3  C   -0.260565   0.029758
     4  C   -0.408090  -0.025478
     5  O   -0.179274   0.000838
     6  N    0.112211   0.007421
     7  C    0.376898   0.002173
     8  C   -1.098392   0.056875
     9  N   -0.011367   0.176347
    10  C   -0.011068  -0.084608
    11  C   -0.423025   0.247089
    12  C    0.240662   0.045285
    13  N   -0.455888   0.192448
    14  O   -0.057532   0.196275
    15  O   -0.228399   0.171161
    16  H    0.158394  -0.000818
    17  H    0.116647   0.004088
    18  H    0.183570  -0.000139
    19  H    0.132958   0.000979
    20  H    0.203581   0.001731
    21  H    0.115231  -0.000554
    22  H    0.224168   0.000053
    23  H    0.333881  -0.003380
    24  H    0.144618   0.004048
    25  H    0.118969  -0.015582
    26  H    0.149150  -0.005719
 Sum of Mulliken charges =  -1.00000   1.00000

 Dipole moment (field-independent basis, Debye):
    X=            -11.3942    Y=              4.9970    Z=             -0.9262  Tot=             12.4762
 Quadrupole moment (field-independent basis, Debye-Ang):
   XX=           -121.6309   YY=           -112.1801   ZZ=            -99.7810
   XY=             13.6306   XZ=              2.4421   YZ=              0.2901

 Summary of Natural Population Analysis:

                                       Natural Population
                Natural  -----------------------------------------------
    Atom  No    Charge         Core      Valence    Rydberg      Total
 -----------------------------------------------------------------------
      C    1   -0.20100      0.99959     2.19275    0.00865     3.20100
      C    2   -0.19967      0.99960     2.19150    0.00858     3.19967
      C    3    0.04518      0.99954     1.94411    0.01117     2.95482
      C    4   -0.01301      0.99952     2.00076    0.01272     3.01301
      O    5   -0.36149      0.99990     3.35467    0.00692     4.36149
      N    6   -0.32128      0.99962     2.80738    0.01427     3.82128
      C    7    0.08880      0.99949     1.90076    0.01095     2.91120
      C    8    0.14390      0.99944     1.84203    0.01463     2.85610
      N    9   -0.15803      0.99966     2.64753    0.01084     3.65803
      C   10   -0.02598      0.99961     2.01024    0.01613     3.02598
      C   11   -0.06859      0.99957     2.06005    0.00897     3.06859
      C   12   -0.11850      0.99955     2.11089    0.00805     3.11850
      N   13    0.29714      0.99973     2.17537    0.02776     3.20286
      O   14   -0.16222      0.99989     3.15384    0.00850     4.16222
      O   15   -0.22681      0.99989     3.21843    0.00849     4.22681
      H   16    0.10995      0.00000     0.38896    0.00109     0.39005
      H   17    0.09502      0.00000     0.40395    0.00103     0.40498
      H   18    0.11238      0.00000     0.38665    0.00097     0.38762
      H   19    0.09774      0.00000     0.40114    0.00112     0.40226
      H   20    0.09657      0.00000     0.40218    0.00125     0.40343
      H   21    0.06888      0.00000     0.42966    0.00146     0.43112
      H   22    0.22282      0.00000     0.27441    0.00277     0.27718
      H   23    0.21749      0.00000     0.28018    0.00232     0.28251
      H   24    0.07989      0.00000     0.41869    0.00142     0.42011
      H   25    0.08811      0.00000     0.41062    0.00128     0.41189
      H   26    0.09271      0.00000     0.40582    0.00147     0.40729
 =======================================================================
   * Total *   -0.00000     14.99462    39.81259    0.19280    55.00000

 Normal termination of Gaussian 16 at Thu Dec 10 17:13:50 2020.
