 Gaussian 16, Revision A.03,

 -----------------------------------------------------------
 # opt freq B3LYP/6-31G(d) empiricaldispersion=gd3bj scf=xqc
 -----------------------------------------------------------

 -------------------------------
 CID_118188232_JID_5220_neutraal
 -------------------------------
 Symbolic Z-matrix:
 Charge =  0 Multiplicity = 1

 SCF Done:  E(RB3LYP) =  -758.003643467     A.U. after   14 cycles
 SCF Done:  E(RB3LYP) =  -758.008985004     A.U. after   13 cycles
 SCF Done:  E(RB3LYP) =  -757.990331249     A.U. after   13 cycles
 SCF Done:  E(RB3LYP) =  -758.002419271     A.U. after   13 cycles
 SCF Done:  E(RB3LYP) =  -758.009655446     A.U. after   11 cycles
 SCF Done:  E(RB3LYP) =  -758.011015064     A.U. after   12 cycles
 SCF Done:  E(RB3LYP) =  -758.012214042     A.U. after   11 cycles
 SCF Done:  E(RB3LYP) =  -758.012775569     A.U. after   11 cycles
 SCF Done:  E(RB3LYP) =  -758.012845037     A.U. after   10 cycles
 SCF Done:  E(RB3LYP) =  -758.012875821     A.U. after   10 cycles
 SCF Done:  E(RB3LYP) =  -758.012888052     A.U. after   10 cycles
 SCF Done:  E(RB3LYP) =  -758.012893281     A.U. after    9 cycles
 SCF Done:  E(RB3LYP) =  -758.012895078     A.U. after    8 cycles
 SCF Done:  E(RB3LYP) =  -758.012895613     A.U. after    7 cycles
 Optimization completed.
    -- Stationary point found.
 Normal termination of Gaussian 16 at Thu Dec 10 14:51:56 2020.

 --------------------------------------------------------------------
 #N Geom=AllCheck Guess=TCheck SCRF=Check GenChk RB3LYP/6-31G(d) Freq
 --------------------------------------------------------------------

 Structure from the checkpoint file:  "JID_5220.chk"
 -------------------------------
 CID_118188232_JID_5220_neutraal
 -------------------------------
 Charge =  0 Multiplicity = 1

 SCF Done:  E(RB3LYP) =  -758.012895613     A.U. after    1 cycles

  Exact polarizability: 165.349   2.127 139.365   6.464  -2.258  73.105
 Approx polarizability: 222.023  -0.738 225.395  15.659 -11.676 109.294

                      1                      2                      3
                      A                      A                      A
 Frequencies --     37.9306                48.0153                88.1953
 Red. masses --      5.3380                 3.8166                 4.1670
 Frc consts  --      0.0045                 0.0052                 0.0191
 IR Inten    --      0.0490                 2.4771                 0.9722

                      4                      5                      6
                      A                      A                      A
 Frequencies --    113.6210               132.0242               162.6503
 Red. masses --      3.9955                 3.7727                 1.1850
 Frc consts  --      0.0304                 0.0387                 0.0185
 IR Inten    --      0.8806                 9.5367                 1.6807

                      7                      8                      9
                      A                      A                      A
 Frequencies --    188.3246               204.5840               221.4694
 Red. masses --      5.1620                 3.3517                 2.8523
 Frc consts  --      0.1079                 0.0827                 0.0824
 IR Inten    --      2.0879                 2.8564                 2.6996

                     10                     11                     12
                      A                      A                      A
 Frequencies --    235.2394               261.4206               269.9968
 Red. masses --      3.6584                 5.3069                 1.2783
 Frc consts  --      0.1193                 0.2137                 0.0549
 IR Inten    --      2.3229                 0.1820                25.6355

                     13                     14                     15
                      A                      A                      A
 Frequencies --    287.8511               306.0994               343.0350
 Red. masses --      2.5508                 3.0350                 3.4656
 Frc consts  --      0.1245                 0.1675                 0.2403
 IR Inten    --      3.0843                 0.7162                 0.3657

                     16                     17                     18
                      A                      A                      A
 Frequencies --    370.0020               414.0021               437.2097
 Red. masses --      5.7060                 2.2668                 2.5880
 Frc consts  --      0.4602                 0.2289                 0.2915
 IR Inten    --      8.4407                34.5625                12.1763

                     19                     20                     21
                      A                      A                      A
 Frequencies --    445.8262               517.4088               548.9656
 Red. masses --      1.2286                 6.4304                 3.2529
 Frc consts  --      0.1439                 1.0143                 0.5776
 IR Inten    --      2.9624                 2.8070                 3.1011

                     22                     23                     24
                      A                      A                      A
 Frequencies --    574.0335               580.7362               643.2049
 Red. masses --      3.0341                 1.8049                 4.7599
 Frc consts  --      0.5891                 0.3586                 1.1602
 IR Inten    --    129.3010               300.9171                18.2701

                     25                     26                     27
                      A                      A                      A
 Frequencies --    650.4868               688.4455               696.5551
 Red. masses --      6.3326                 4.0996                 4.7038
 Frc consts  --      1.5787                 1.1448                 1.3447
 IR Inten    --      7.9863                13.2479                 4.9786

                     28                     29                     30
                      A                      A                      A
 Frequencies --    739.1266               762.2998               776.1120
 Red. masses --      1.6737                 1.6582                 2.6727
 Frc consts  --      0.5387                 0.5677                 0.9485
 IR Inten    --    266.8552                37.8151                47.1902

                     31                     32                     33
                      A                      A                      A
 Frequencies --    798.7087               842.0864               853.1244
 Red. masses --      1.4881                 3.2950                 4.2230
 Frc consts  --      0.5593                 1.3766                 1.8109
 IR Inten    --     34.9491                 0.7329                35.0910

                     34                     35                     36
                      A                      A                      A
 Frequencies --    921.4388               990.7780              1025.2848
 Red. masses --      3.0595                 2.1536                 2.9140
 Frc consts  --      1.5305                 1.2456                 1.8048
 IR Inten    --      7.7418                26.1622                28.5213

                     37                     38                     39
                      A                      A                      A
 Frequencies --   1070.4684              1092.2373              1105.4585
 Red. masses --      2.9707                 4.2439                 3.0583
 Frc consts  --      2.0057                 2.9830                 2.2020
 IR Inten    --     18.8785                 6.7960                60.7594

                     40                     41                     42
                      A                      A                      A
 Frequencies --   1108.6885              1131.0296              1166.1245
 Red. masses --      2.2023                 2.7043                 1.6740
 Frc consts  --      1.5949                 2.0382                 1.3412
 IR Inten    --    126.6184                26.3251                54.2573

                     43                     44                     45
                      A                      A                      A
 Frequencies --   1185.4189              1227.0707              1241.6390
 Red. masses --      1.2639                 1.5778                 1.1825
 Frc consts  --      1.0464                 1.3997                 1.0741
 IR Inten    --      1.1390                46.0081                38.4933

                     46                     47                     48
                      A                      A                      A
 Frequencies --   1247.9334              1276.4705              1295.6368
 Red. masses --      2.1428                 1.3310                 5.6739
 Frc consts  --      1.9661                 1.2778                 5.6118
 IR Inten    --    552.8507                21.8885                 8.0774

                     49                     50                     51
                      A                      A                      A
 Frequencies --   1340.3965              1380.1258              1400.0544
 Red. masses --      1.1629                 4.2711                 1.4276
 Frc consts  --      1.2310                 4.7932                 1.6488
 IR Inten    --     10.7216                55.1073                 2.9264

                     52                     53                     54
                      A                      A                      A
 Frequencies --   1411.2876              1436.8473              1454.2399
 Red. masses --      1.4831                 1.3355                 1.9564
 Frc consts  --      1.7404                 1.6245                 2.4377
 IR Inten    --      2.8312                64.8621               119.8248

                     55                     56                     57
                      A                      A                      A
 Frequencies --   1480.6971              1486.5200              1497.8177
 Red. masses --      1.7978                 1.4984                 1.4653
 Frc consts  --      2.3223                 1.9509                 1.9369
 IR Inten    --      1.3941                48.0948                69.2270

                     58                     59                     60
                      A                      A                      A
 Frequencies --   1509.7390              1524.6712              1528.4830
 Red. masses --      1.0491                 1.1763                 1.5428
 Frc consts  --      1.4089                 1.6110                 2.1236
 IR Inten    --      5.2106               103.3835                56.5835

                     61                     62                     63
                      A                      A                      A
 Frequencies --   1533.7439              1537.4407              1545.0990
 Red. masses --      1.5466                 1.3015                 1.4483
 Frc consts  --      2.1435                 1.8126                 2.0371
 IR Inten    --    206.8667               134.7971                30.1326

                     64                     65                     66
                      A                      A                      A
 Frequencies --   1645.6569              1649.3825              1675.7467
 Red. masses --      4.9542                 1.9091                 1.4019
 Frc consts  --      7.9049                 3.0600                 2.3195
 IR Inten    --    457.8749               164.2423               134.1963

                     67                     68                     69
                      A                      A                      A
 Frequencies --   1685.5849              3011.1018              3042.0636
 Red. masses --      2.2009                 1.0694                 1.0602
 Frc consts  --      3.6843                 5.7126                 5.7806
 IR Inten    --    119.2225                45.0283                21.6576

                     70                     71                     72
                      A                      A                      A
 Frequencies --   3068.6812              3083.6786              3092.0031
 Red. masses --      1.0295                 1.0921                 1.0783
 Frc consts  --      5.7117                 6.1185                 6.0741
 IR Inten    --     51.6729                15.4948                58.6180

                     73                     74                     75
                      A                      A                      A
 Frequencies --   3096.4902              3140.9313              3142.5949
 Red. masses --      1.0855                 1.1073                 1.1087
 Frc consts  --      6.1325                 6.4361                 6.4513
 IR Inten    --     76.7211                24.8922                17.9521

                     76                     77                     78
                      A                      A                      A
 Frequencies --   3172.9782              3513.6656              3531.4209
 Red. masses --      1.1068                 1.0653                 1.0472
 Frc consts  --      6.5650                 7.7492                 7.6945
 IR Inten    --     25.1815               489.4874                10.9627

                     79                     80                     81
                      A                      A                      A
 Frequencies --   3567.3934              3636.4645              3682.6651
 Red. masses --      1.0478                 1.0976                 1.1001
 Frc consts  --      7.8563                 8.5516                 8.7903
 IR Inten    --     59.6247                14.3855                39.7086

 - Thermochemistry -
 -------------------
 Temperature   298.150 Kelvin.  Pressure   1.00000 Atm.
 Atom     1 has atomic number  6 and mass  12.00000

 Molecular mass:   214.10659 amu.
 Principal axes and moments of inertia in atomic units:
                           1         2         3
     Eigenvalues --  1744.706664459.252005853.69252
           X            0.99991   0.01372  -0.00092
           Y           -0.01371   0.99987   0.00892
           Z            0.00104  -0.00891   0.99996
 This molecule is an asymmetric top.
 Rotational symmetry number  1.
 Warning -- assumption of classical behavior for rotation
           may cause significant error
 Rotational temperatures (Kelvin)      0.04964     0.01942     0.01480
 Rotational constants (GHZ):           1.03441     0.40472     0.30831
 Zero-point vibrational energy     633004.8 (Joules/Mol)
                                  151.29177 (Kcal/Mol)
 Warning -- explicit consideration of  23 degrees of freedom as
           vibrations may cause significant error
 Vibrational temperatures:     54.57    69.08   126.89   163.48   189.95
          (Kelvin)            234.02   270.96   294.35   318.65   338.46
                              376.13   388.47   414.15   440.41   493.55
                              532.35   595.66   629.05   641.44   744.44
                              789.84   825.91   835.55   925.43   935.91
                              990.52  1002.19  1063.44  1096.78  1116.65
                             1149.16  1211.57  1227.46  1325.74  1425.51
                             1475.16  1540.17  1571.49  1590.51  1595.16
                             1627.30  1677.79  1705.55  1765.48  1786.44
                             1795.50  1836.56  1864.13  1928.53  1985.69
                             2014.37  2030.53  2067.30  2092.33  2130.39
                             2138.77  2155.03  2172.18  2193.66  2199.15
                             2206.72  2212.03  2223.05  2367.73  2373.09
                             2411.03  2425.18  4332.30  4376.85  4415.15
                             4436.73  4448.70  4455.16  4519.10  4521.49
                             4565.21  5055.38  5080.93  5132.68  5232.06
                             5298.53

 Zero-point correction=                           0.241099 (Hartree/Particle)
 Thermal correction to Energy=                    0.256067
 Thermal correction to Enthalpy=                  0.257011
 Thermal correction to Gibbs Free Energy=         0.199156
 Sum of electronic and zero-point Energies=           -757.771797
 Sum of electronic and thermal Energies=              -757.756829
 Sum of electronic and thermal Enthalpies=            -757.755885
 Sum of electronic and thermal Free Energies=         -757.813739

                     E (Thermal)             CV                S
                      KCal/Mol        Cal/Mol-Kelvin    Cal/Mol-Kelvin
 Total                  160.684             56.439            121.765
 Electronic               0.000              0.000              0.000
 Translational            0.889              2.981             41.987
 Rotational               0.889              2.981             32.188
 Vibrational            158.907             50.477             47.590
 Vibration     1          0.594              1.982              5.364
 Vibration     2          0.595              1.978              4.897
 Vibration     3          0.601              1.957              3.700
 Vibration     4          0.607              1.938              3.206
 Vibration     5          0.612              1.921              2.916
 Vibration     6          0.623              1.888              2.519
 Vibration     7          0.633              1.856              2.244
 Vibration     8          0.640              1.833              2.091
 Vibration     9          0.648              1.808              1.947
 Vibration    10          0.655              1.787              1.839
 Vibration    11          0.669              1.743              1.652
 Vibration    12          0.674              1.728              1.596
 Vibration    13          0.685              1.696              1.487
 Vibration    14          0.696              1.662              1.383
 Vibration    15          0.722              1.589              1.198
 Vibration    16          0.742              1.534              1.080
 Vibration    17          0.778              1.440              0.913
 Vibration    18          0.798              1.389              0.835
 Vibration    19          0.805              1.370              0.808
 Vibration    20          0.872              1.211              0.616
 Vibration    21          0.904              1.142              0.546
 Vibration    22          0.930              1.087              0.497
 Vibration    23          0.937              1.073              0.484

                           ! Non-Optimized Parameters !
 Normal termination of Gaussian 16 at Thu Dec 10 15:01:21 2020.

 ----------------------------------------------------------------------
 # B3LYP/6-311++G(d,p) empiricaldispersion=gd3bj scf=xqc pop=npa geom=c
 heck
 ----------------------------------------------------------------------

 ---------------------------------------
 CID_118188232_JID_5220_Energie_neutraal
 ---------------------------------------
 Structure from the checkpoint file:  "JID_5220.chk"
 Charge =  0 Multiplicity = 1

 SCF Done:  E(RB3LYP) =  -758.251003198     A.U. after   15 cycles
 Normal termination of Gaussian 16 at Thu Dec 10 15:05:40 2020.

 ----------------------------------------------------------------------
 # B3LYP/6-311++G(d,p) empiricaldispersion=gd3bj scf=xqc pop=npa geom=c
 heck
 ----------------------------------------------------------------------

 -------------------------------------
 CID_118188232_JID_5220_Energie_kation
 -------------------------------------
 Structure from the checkpoint file:  "JID_5220.chk"
 Charge =  1 Multiplicity = 2

 SCF Done:  E(UB3LYP) =  -757.984020320     A.U. after   20 cycles
 Normal termination of Gaussian 16 at Thu Dec 10 15:14:07 2020.
 Gaussian 16:  ES64L-G16RevA.03 25-Dec-2016

 ----------------------------------------------------------------------
 # B3LYP/6-311++G(d,p) empiricaldispersion=gd3bj scf=xqc pop=npa geom=c
 heck
 ----------------------------------------------------------------------

 ------------------------------------
 CID_118188232_JID_5220_Energie_anion
 ------------------------------------
 Structure from the checkpoint file:  "JID_5220.chk"
 Charge = -1 Multiplicity = 2

                         Standard orientation:
 ---------------------------------------------------------------------
 Center     Atomic      Atomic             Coordinates (Angstroms)
 Number     Number       Type             X           Y           Z
 ---------------------------------------------------------------------
      1          6           0        4.339992    0.403293    0.322315
      2          8           0        3.312824   -0.590458    0.263309
      3          6           0        2.050425   -0.156466    0.057013
      4          6           0        1.064456   -1.150830   -0.009368
      5          6           0       -0.220544   -0.662724   -0.266576
      6          7           0       -0.487669    0.635233   -0.432537
      7          6           0        0.536690    1.491441   -0.299469
      8          7           0        1.809519    1.147255   -0.071534
      9          7           0        0.249199    2.832219   -0.440615
     10          8           0       -1.202305   -1.586735   -0.344693
     11          6           0       -2.517564   -1.202141   -0.804565
     12          6           0       -3.475321   -0.843320    0.328072
     13          6           0       -3.147544    0.459757    1.070593
     14          8           0       -3.038430    1.565566    0.191440
     15          7           0        1.331022   -2.506318    0.232272
     16          1           0        5.266199   -0.150066    0.483315
     17          1           0        4.161211    1.098035    1.147689
     18          1           0        4.388726    0.970655   -0.611466
     19          1           0       -0.702494    3.090561   -0.210734
     20          1           0        0.957437    3.448776   -0.066624
     21          1           0       -2.427202   -0.380953   -1.519514
     22          1           0       -2.880666   -2.087054   -1.333329
     23          1           0       -4.470445   -0.746775   -0.126337
     24          1           0       -3.519339   -1.676338    1.041728
     25          1           0       -3.955006    0.684833    1.775497
     26          1           0       -2.226364    0.329166    1.659047
     27          1           0       -2.198426    1.391651   -0.285927
     28          1           0        0.652076   -3.111925   -0.215181
     29          1           0        2.279544   -2.760334   -0.019808
 ---------------------------------------------------------------------

 SCF Done:  E(UB3LYP) =  -758.236769083     A.U. after   33 cycles
 SCF Done:  E(UB3LYP) =  -758.236769083     a.u. after    1 cycles

 The electronic state is 2-A.
 Alpha  occ. eigenvalues --  -19.07147 -19.07037 -19.01273 -14.23275 -14.21981
 Alpha  occ. eigenvalues --  -14.21976 -14.21220 -10.18359 -10.18058 -10.17710
 Alpha  occ. eigenvalues --  -10.13607 -10.12354 -10.11970 -10.11477 -10.08097
 Alpha  occ. eigenvalues --   -0.99634  -0.99090  -0.91949  -0.90578  -0.82306
 Alpha  occ. eigenvalues --   -0.80190  -0.79382  -0.69641  -0.66497  -0.63065
 Alpha  occ. eigenvalues --   -0.59357  -0.55533  -0.53784  -0.51143  -0.47766
 Alpha  occ. eigenvalues --   -0.45838  -0.42946  -0.42198  -0.40681  -0.39625
 Alpha  occ. eigenvalues --   -0.38981  -0.38790  -0.37761  -0.37398  -0.35918
 Alpha  occ. eigenvalues --   -0.34231  -0.33058  -0.32485  -0.30842  -0.28614
 Alpha  occ. eigenvalues --   -0.27867  -0.26708  -0.26531  -0.25651  -0.25273
 Alpha  occ. eigenvalues --   -0.22422  -0.21760  -0.19091  -0.18427  -0.17966
 Alpha  occ. eigenvalues --   -0.17550  -0.10084   0.04258
 Alpha virt. eigenvalues --    0.05764   0.06595   0.07550   0.07880   0.08070
 Alpha virt. eigenvalues --    0.09063   0.09519   0.09876   0.10211   0.10443
 Alpha virt. eigenvalues --    0.11026   0.11590   0.12363   0.12843   0.13224

  Beta  occ. eigenvalues --  -19.07142 -19.07027 -19.01269 -14.23250 -14.21962
  Beta  occ. eigenvalues --  -14.21953 -14.21202 -10.18357 -10.18052 -10.17706
  Beta  occ. eigenvalues --  -10.13587 -10.12310 -10.11962 -10.11478 -10.08082
  Beta  occ. eigenvalues --   -0.99619  -0.99075  -0.91941  -0.90561  -0.82272
  Beta  occ. eigenvalues --   -0.80152  -0.79363  -0.69606  -0.66457  -0.63024
  Beta  occ. eigenvalues --   -0.59312  -0.55502  -0.53750  -0.51116  -0.47726
  Beta  occ. eigenvalues --   -0.45804  -0.42919  -0.42173  -0.40639  -0.39586
  Beta  occ. eigenvalues --   -0.38949  -0.38759  -0.37717  -0.37369  -0.35884
  Beta  occ. eigenvalues --   -0.34202  -0.33030  -0.32452  -0.30821  -0.28584
  Beta  occ. eigenvalues --   -0.27838  -0.26667  -0.26496  -0.25629  -0.25243
  Beta  occ. eigenvalues --   -0.22395  -0.21733  -0.19066  -0.18403  -0.17929
  Beta  occ. eigenvalues --   -0.17536  -0.10056
  Beta virt. eigenvalues --    0.06414   0.06906   0.07375   0.08059   0.08120
  Beta virt. eigenvalues --    0.08462   0.09415   0.09728   0.10206   0.10730
  Beta virt. eigenvalues --    0.10966   0.11328   0.12024   0.12548   0.13118

 Mulliken charges and spin densities:
               1          2
     1  C    1.292107  -1.581273
     2  O   -0.256339   0.065589
     3  C   -0.216135   0.188177
     4  C    0.380530  -0.541829
     5  C    0.462157  -0.444379
     6  N   -0.206088  -0.055187
     7  C    0.051710  -0.027263
     8  N   -0.247744   0.099971
     9  N   -0.294625   0.009714
    10  O   -0.128532   0.048017
    11  C    0.238214  -0.544670
    12  C    0.195218  -0.320367
    13  C   -0.250483  -0.143608
    14  O   -0.275937   0.009779
    15  N   -0.412081   0.033170
    16  H   -0.453024   0.610788
    17  H   -0.348476   0.532986
    18  H   -0.296997   0.482042
    19  H    0.122055   0.130759
    20  H   -0.071771   0.348937
    21  H    0.233872  -0.028630
    22  H   -0.784765   0.980924
    23  H   -0.089433   0.251726
    24  H    0.061827   0.081011
    25  H   -0.018996   0.175333
    26  H   -0.024173   0.173375
    27  H    0.377215  -0.115628
    28  H   -0.022381   0.294442
    29  H   -0.016924   0.286096
 Sum of Mulliken charges =  -1.00000   1.00000

 Dipole moment (field-independent basis, Debye):
    X=             -3.1222    Y=              1.0629    Z=              0.2019  Tot=              3.3043
 Quadrupole moment (field-independent basis, Debye-Ang):
   XX=           -174.9134   YY=           -141.0207   ZZ=           -115.9566
   XY=             -6.6807   XZ=             -6.6641   YZ=             -2.1053

 Summary of Natural Population Analysis:

                                       Natural Population
                Natural  -----------------------------------------------
    Atom  No    Charge         Core      Valence    Rydberg      Total
 -----------------------------------------------------------------------
      C    1   -0.09793      0.99959     2.09024    0.00810     3.09793
      O    2   -0.27240      0.99986     3.26226    0.01028     4.27240
      C    3    0.27767      0.99943     1.70720    0.01570     2.72233
      C    4    0.00024      0.99941     1.98811    0.01224     2.99976
      C    5    0.27844      0.99942     1.70487    0.01727     2.72156
      N    6   -0.32261      0.99960     2.81241    0.01059     3.82261
      C    7    0.30138      0.99963     1.68180    0.01719     2.69862
      N    8   -0.29664      0.99962     2.78670    0.01032     3.79664
      N    9   -0.39579      0.99970     2.88666    0.00943     3.89579
      O   10   -0.27830      0.99985     3.26728    0.01116     4.27830
      C   11   -0.01590      0.99954     2.00287    0.01349     3.01590
      C   12   -0.21546      0.99962     2.20683    0.00901     3.21546
      C   13   -0.01304      0.99960     2.00178    0.01167     3.01304
      O   14   -0.39143      0.99990     3.38380    0.00773     4.39143
      N   15   -0.39807      0.99973     2.88723    0.01112     3.89807
      H   16    0.09175      0.00000     0.40618    0.00206     0.40825
      H   17    0.09128      0.00000     0.40610    0.00262     0.40872
      H   18    0.09051      0.00000     0.40713    0.00236     0.40949
      H   19    0.19295      0.00000     0.30525    0.00180     0.30705
      H   20    0.19443      0.00000     0.30334    0.00223     0.30557
      H   21    0.09318      0.00000     0.40483    0.00200     0.40682
      H   22    0.09710      0.00000     0.40058    0.00232     0.40290
      H   23    0.10124      0.00000     0.39758    0.00119     0.39876
      H   24    0.10152      0.00000     0.39721    0.00127     0.39848
      H   25    0.08476      0.00000     0.41403    0.00121     0.41524
      H   26    0.07844      0.00000     0.42019    0.00136     0.42156
      H   27    0.24180      0.00000     0.25410    0.00409     0.25820
      H   28    0.19087      0.00000     0.30668    0.00245     0.30913
      H   29    0.18999      0.00000     0.30773    0.00228     0.31001
 =======================================================================
   * Total *    0.00000     14.99450    41.80097    0.20453    57.00000

 Normal termination of Gaussian 16 at Thu Dec 10 15:27:42 2020.
