 Gaussian 16, Revision A.03,

 -----------------------------------------------------------
 # opt freq B3LYP/6-31G(d) empiricaldispersion=gd3bj scf=xqc
 -----------------------------------------------------------

 ------------------------------
 CID_84221781_JID_7912_neutraal
 ------------------------------
 Symbolic Z-matrix:
 Charge =  0 Multiplicity = 1

 SCF Done:  E(RB3LYP) =  -751.385451236     A.U. after   15 cycles
 SCF Done:  E(RB3LYP) =  -751.391537339     A.U. after   13 cycles
 SCF Done:  E(RB3LYP) =  -751.386183789     A.U. after   12 cycles
 SCF Done:  E(RB3LYP) =  -751.388116522     A.U. after   13 cycles
 SCF Done:  E(RB3LYP) =  -751.392920035     A.U. after   10 cycles
 SCF Done:  E(RB3LYP) =  -751.393708512     A.U. after   12 cycles
 SCF Done:  E(RB3LYP) =  -751.393882879     A.U. after   12 cycles
 SCF Done:  E(RB3LYP) =  -751.394393775     A.U. after   12 cycles
 SCF Done:  E(RB3LYP) =  -751.394532746     A.U. after   12 cycles
 SCF Done:  E(RB3LYP) =  -751.395133943     A.U. after   12 cycles
 SCF Done:  E(RB3LYP) =  -751.400049115     A.U. after    8 cycles
 SCF Done:  E(RB3LYP) =  -751.400049360     A.U. after    7 cycles
 SCF Done:  E(RB3LYP) =  -751.400049469     A.U. after    7 cycles
 SCF Done:  E(RB3LYP) =  -751.400049527     A.U. after    7 cycles
 SCF Done:  E(RB3LYP) =  -751.400049530     A.U. after    7 cycles
 Optimization completed.
    -- Stationary point found.
 Normal termination of Gaussian 16 at Fri Dec 11 13:20:08 2020.

 --------------------------------------------------------------------
 #N Geom=AllCheck Guess=TCheck SCRF=Check GenChk RB3LYP/6-31G(d) Freq
 --------------------------------------------------------------------

 Structure from the checkpoint file:  "JID_7912.chk"
 ------------------------------
 CID_84221781_JID_7912_neutraal
 ------------------------------
 Charge =  0 Multiplicity = 1

 SCF Done:  E(RB3LYP) =  -751.400049530     A.U. after    1 cycles

  Exact polarizability: 185.454  -2.240 137.042   1.692  10.581 140.594
 Approx polarizability: 256.805  -3.600 179.060   8.528  23.349 246.471

                      1                      2                      3
                      A                      A                      A
 Frequencies --     28.2702                40.8298                52.0097
 Red. masses --      3.8511                 3.9050                 2.8809
 Frc consts  --      0.0018                 0.0038                 0.0046
 IR Inten    --      1.4248                 0.2500                 0.1286

                      4                      5                      6
                      A                      A                      A
 Frequencies --     65.9261                83.7206                97.9912
 Red. masses --      2.9021                 3.6557                 3.0505
 Frc consts  --      0.0074                 0.0151                 0.0173
 IR Inten    --      0.0020                 0.0943                 0.3142

                      7                      8                      9
                      A                      A                      A
 Frequencies --    132.2837               151.0802               156.6944
 Red. masses --      1.5405                 2.0578                 2.3395
 Frc consts  --      0.0159                 0.0277                 0.0338
 IR Inten    --      0.8699                 1.2149                 1.1050

                     10                     11                     12
                      A                      A                      A
 Frequencies --    193.7635               217.7952               238.1103
 Red. masses --      2.1975                 1.7242                 2.2592
 Frc consts  --      0.0486                 0.0482                 0.0755
 IR Inten    --      1.7030                 1.8074                 3.1929

                     13                     14                     15
                      A                      A                      A
 Frequencies --    250.1587               272.9707               275.3971
 Red. masses --      2.6479                 2.2600                 1.2619
 Frc consts  --      0.0976                 0.0992                 0.0564
 IR Inten    --      0.8581                 0.1216                 0.1193

                     16                     17                     18
                      A                      A                      A
 Frequencies --    298.2641               318.9956               327.8759
 Red. masses --      2.1382                 2.8137                 3.3932
 Frc consts  --      0.1121                 0.1687                 0.2149
 IR Inten    --      2.7162                 4.4429                 1.2919

                     19                     20                     21
                      A                      A                      A
 Frequencies --    357.9559               368.6040               387.8914
 Red. masses --      2.4155                 2.5572                 2.5568
 Frc consts  --      0.1824                 0.2047                 0.2267
 IR Inten    --      2.2196                 2.5857                 3.0532

                     22                     23                     24
                      A                      A                      A
 Frequencies --    396.5281               418.1553               476.9818
 Red. masses --      3.5351                 2.9855                 3.3036
 Frc consts  --      0.3275                 0.3076                 0.4428
 IR Inten    --      6.0053                 0.2084                 0.4015

                     25                     26                     27
                      A                      A                      A
 Frequencies --    504.8571               544.8796               589.1520
 Red. masses --      3.4380                 3.2314                 3.4967
 Frc consts  --      0.5163                 0.5653                 0.7151
 IR Inten    --      8.6004                 0.9596                18.1618

                     28                     29                     30
                      A                      A                      A
 Frequencies --    636.4529               665.9938               711.2250
 Red. masses --      6.3510                 4.5002                 2.1379
 Frc consts  --      1.5157                 1.1760                 0.6372
 IR Inten    --      0.3195                 4.6571                21.2591

                     31                     32                     33
                      A                      A                      A
 Frequencies --    737.9994               751.7345               787.8010
 Red. masses --      2.9206                 2.6893                 1.2423
 Frc consts  --      0.9372                 0.8954                 0.4543
 IR Inten    --     19.3211                 9.5171                 5.1122

                     34                     35                     36
                      A                      A                      A
 Frequencies --    801.2847               803.6937               845.5542
 Red. masses --      2.1813                 1.4145                 2.5012
 Frc consts  --      0.8252                 0.5383                 1.0536
 IR Inten    --     13.3694                 5.9908                 5.1958

                     37                     38                     39
                      A                      A                      A
 Frequencies --    860.6424               879.2869               932.9009
 Red. masses --      1.2507                 3.0491                 2.1093
 Frc consts  --      0.5458                 1.3889                 1.0816
 IR Inten    --      0.2390                10.7964                 3.6233

                     40                     41                     42
                      A                      A                      A
 Frequencies --    935.4278               967.5340               975.6006
 Red. masses --      1.4641                 1.9687                 1.3463
 Frc consts  --      0.7548                 1.0858                 0.7550
 IR Inten    --      3.5601                 1.1024                 0.7634

                     43                     44                     45
                      A                      A                      A
 Frequencies --    997.1964              1019.2592              1023.2663
 Red. masses --      1.2618                 4.0346                 6.0360
 Frc consts  --      0.7392                 2.4695                 3.7237
 IR Inten    --      1.3588                11.3322                 0.8265

                     46                     47                     48
                      A                      A                      A
 Frequencies --   1039.0076              1059.2833              1084.9365
 Red. masses --      2.8721                 2.6900                 2.1651
 Frc consts  --      1.8268                 1.7784                 1.5015
 IR Inten    --     23.8231                 7.8165                 3.8915

                     49                     50                     51
                      A                      A                      A
 Frequencies --   1098.5922              1105.0059              1110.3546
 Red. masses --      2.5538                 1.8241                 1.8068
 Frc consts  --      1.8160                 1.3123                 1.3125
 IR Inten    --     21.0237                 5.1685                10.0747

                     52                     53                     54
                      A                      A                      A
 Frequencies --   1138.5150              1142.7764              1157.8765
 Red. masses --      1.8096                 1.8840                 2.5189
 Frc consts  --      1.3820                 1.4496                 1.9897
 IR Inten    --     18.1667                 6.3584               202.8399

                     55                     56                     57
                      A                      A                      A
 Frequencies --   1186.2380              1194.0268              1209.1070
 Red. masses --      1.2809                 1.1033                 2.4736
 Frc consts  --      1.0620                 0.9267                 2.1307
 IR Inten    --      1.1868                 1.1035                46.5791

                     58                     59                     60
                      A                      A                      A
 Frequencies --   1221.2359              1223.7176              1249.1327
 Red. masses --      1.4325                 1.4249                 2.4459
 Frc consts  --      1.2588                 1.2572                 2.2486
 IR Inten    --     14.3749                29.5796                99.2442

                     61                     62                     63
                      A                      A                      A
 Frequencies --   1262.7115              1285.8482              1349.6990
 Red. masses --      2.9487                 5.1446                 1.7371
 Frc consts  --      2.7701                 5.0116                 1.8645
 IR Inten    --     44.0921               180.6216                 7.1399

                     64                     65                     66
                      A                      A                      A
 Frequencies --   1352.9872              1370.3249              1389.8820
 Red. masses --      1.5651                 1.9511                 1.2333
 Frc consts  --      1.6880                 2.1587                 1.4037
 IR Inten    --      6.4025                 0.9940                 8.8238

                     67                     68                     69
                      A                      A                      A
 Frequencies --   1411.5822              1425.9545              1433.6381
 Red. masses --      1.2640                 1.2539                 1.2643
 Frc consts  --      1.4839                 1.5022                 1.5311
 IR Inten    --      4.3184                 2.4957                16.9692

                     70                     71                     72
                      A                      A                      A
 Frequencies --   1436.8864              1447.0323              1490.7241
 Red. masses --      1.2383                 1.2889                 1.1984
 Frc consts  --      1.5063                 1.5901                 1.5691
 IR Inten    --      9.3553                26.0297                 5.5533

                     73                     74                     75
                      A                      A                      A
 Frequencies --   1495.6092              1512.1469              1514.3615
 Red. masses --      2.1955                 1.0481                 1.0605
 Frc consts  --      2.8934                 1.4120                 1.4330
 IR Inten    --     11.5706                 6.2073                 2.3533

                     76                     77                     78
                      A                      A                      A
 Frequencies --   1517.4084              1522.8170              1523.9186
 Red. masses --      1.0510                 1.0508                 1.0467
 Frc consts  --      1.4258                 1.4357                 1.4321
 IR Inten    --      0.8579                 3.1171                 7.8956

                     79                     80                     81
                      A                      A                      A
 Frequencies --   1528.4838              1531.3798              1538.2053
 Red. masses --      1.0463                 1.0634                 1.1397
 Frc consts  --      1.4402                 1.4694                 1.5889
 IR Inten    --      3.3100                 0.2141                 9.2398

                     82                     83                     84
                      A                      A                      A
 Frequencies --   1539.5700              1543.2525              1551.9784
 Red. masses --      1.0733                 1.6039                 1.1552
 Frc consts  --      1.4988                 2.2505                 1.6394
 IR Inten    --      3.6528                21.7900                 4.2001

                     85                     86                     87
                      A                      A                      A
 Frequencies --   1645.1665              1661.9633              1812.0732
 Red. masses --      5.5330                 5.4769                11.5355
 Frc consts  --      8.8233                 8.9131                22.3172
 IR Inten    --      0.6487                 2.2370               150.5186

                     88                     89                     90
                      A                      A                      A
 Frequencies --   2975.8178              3047.5917              3052.0972
 Red. masses --      1.0734                 1.0358                 1.0371
 Frc consts  --      5.6007                 5.6679                 5.6919
 IR Inten    --     58.4066                24.3499                21.4801

                     91                     92                     93
                      A                      A                      A
 Frequencies --   3074.7557              3077.1177              3087.1051
 Red. masses --      1.0713                 1.0295                 1.0412
 Frc consts  --      5.9671                 5.7432                 5.8464
 IR Inten    --     29.0429                33.2055                11.6742

                     94                     95                     96
                      A                      A                      A
 Frequencies --   3103.8778              3110.0940              3117.1638
 Red. masses --      1.0911                 1.1011                 1.0989
 Frc consts  --      6.1931                 6.2749                 6.2912
 IR Inten    --      3.1862                39.9929                31.6808

                     97                     98                     99
                      A                      A                      A
 Frequencies --   3120.2525              3136.3752              3149.0761
 Red. masses --      1.0960                 1.1024                 1.0965
 Frc consts  --      6.2871                 6.3889                 6.4066
 IR Inten    --     47.9824                42.3677                18.3717

                    100                    101                    102
                      A                      A                      A
 Frequencies --   3152.5865              3160.3084              3181.9884
 Red. masses --      1.1075                 1.0983                 1.0856
 Frc consts  --      6.4855                 6.4629                 6.4764
 IR Inten    --     19.2722                23.4802                 1.0346

                    103                    104                    105
                      A                      A                      A
 Frequencies --   3184.0786              3184.2958              3192.4424
 Red. masses --      1.1051                 1.1017                 1.0900
 Frc consts  --      6.6011                 6.5820                 6.5454
 IR Inten    --     16.7991                17.4812                19.4362

                    106                    107                    108
                      A                      A                      A
 Frequencies --   3206.2556              3228.0428              3235.3890
 Red. masses --      1.0955                 1.0912                 1.0919
 Frc consts  --      6.6351                 6.6992                 6.7344
 IR Inten    --     35.0711                11.9299                 1.2410

 - Thermochemistry -
 -------------------
 Temperature   298.150 Kelvin.  Pressure   1.00000 Atm.
 Atom     1 has atomic number  6 and mass  12.00000

 Molecular mass:   235.15723 amu.
 Principal axes and moments of inertia in atomic units:
                           1         2         3
     Eigenvalues --  3216.406424129.677525789.89154
           X            0.99955   0.02891  -0.00751
           Y           -0.02885   0.99955   0.00807
           Z            0.00774  -0.00785   0.99994
 This molecule is an asymmetric top.
 Rotational symmetry number  1.
 Warning -- assumption of classical behavior for rotation
           may cause significant error
 Rotational temperatures (Kelvin)      0.02693     0.02097     0.01496
 Rotational constants (GHZ):           0.56110     0.43702     0.31171
 Zero-point vibrational energy     871312.8 (Joules/Mol)
                                  208.24875 (Kcal/Mol)
 Warning -- explicit consideration of  27 degrees of freedom as
           vibrations may cause significant error
 Vibrational temperatures:     40.67    58.74    74.83    94.85   120.46
          (Kelvin)            140.99   190.33   217.37   225.45   278.78
                              313.36   342.59   359.92   392.74   396.24
                              429.14   458.96   471.74   515.02   530.34
                              558.09   570.52   601.63   686.27   726.38
                              783.96   847.66   915.71   958.22  1023.29
                             1061.82  1081.58  1133.47  1152.87  1156.34
                             1216.56  1238.27  1265.10  1342.24  1345.87
                             1392.07  1403.67  1434.74  1466.49  1472.25
                             1494.90  1524.07  1560.98  1580.63  1589.86
                             1597.55  1638.07  1644.20  1665.93  1706.73
                             1717.94  1739.64  1757.09  1760.66  1797.22
                             1816.76  1850.05  1941.92  1946.65  1971.59
                             1999.73  2030.95  2051.63  2062.69  2067.36
                             2081.96  2144.82  2151.85  2175.64  2178.83
                             2183.21  2190.99  2192.58  2199.15  2203.31
                             2213.13  2215.10  2220.40  2232.95  2367.03
                             2391.19  2607.17  4281.54  4384.80  4391.29
                             4423.89  4427.29  4441.66  4465.79  4474.73
                             4484.90  4489.35  4512.54  4530.82  4535.87
                             4546.98  4578.17  4581.18  4581.49  4593.21
                             4613.09  4644.43  4655.00

 Zero-point correction=                           0.331866 (Hartree/Particle)
 Thermal correction to Energy=                    0.349916
 Thermal correction to Enthalpy=                  0.350860
 Thermal correction to Gibbs Free Energy=         0.285522
 Sum of electronic and zero-point Energies=           -751.068184
 Sum of electronic and thermal Energies=              -751.050134
 Sum of electronic and thermal Enthalpies=            -751.049189
 Sum of electronic and thermal Free Energies=         -751.114527

                     E (Thermal)             CV                S
                      KCal/Mol        Cal/Mol-Kelvin    Cal/Mol-Kelvin
 Total                  219.576             67.895            137.515
 Electronic               0.000              0.000              0.000
 Translational            0.889              2.981             42.267
 Rotational               0.889              2.981             32.708
 Vibrational            217.798             61.933             62.540
 Vibration     1          0.593              1.984              5.947
 Vibration     2          0.594              1.981              5.218
 Vibration     3          0.596              1.977              4.739
 Vibration     4          0.597              1.971              4.271
 Vibration     5          0.601              1.960              3.802
 Vibration     6          0.603              1.951              3.494
 Vibration     7          0.612              1.921              2.913
 Vibration     8          0.618              1.901              2.659
 Vibration     9          0.620              1.895              2.589
 Vibration    10          0.635              1.849              2.192
 Vibration    11          0.646              1.814              1.977
 Vibration    12          0.656              1.782              1.817
 Vibration    13          0.663              1.762              1.729
 Vibration    14          0.676              1.723              1.577
 Vibration    15          0.677              1.719              1.562
 Vibration    16          0.691              1.677              1.427
 Vibration    17          0.705              1.637              1.315
 Vibration    18          0.711              1.620              1.271
 Vibration    19          0.733              1.559              1.131
 Vibration    20          0.741              1.537              1.086
 Vibration    21          0.756              1.496              1.008
 Vibration    22          0.763              1.478              0.975
 Vibration    23          0.781              1.431              0.898
 Vibration    24          0.834              1.301              0.718
 Vibration    25          0.860              1.239              0.646
 Vibration    26          0.900              1.151              0.555
 Vibration    27          0.946              1.055              0.469

 Optimization completed.
    -- Stationary point found.
 Normal termination of Gaussian 16 at Fri Dec 11 13:36:05 2020.

 ----------------------------------------------------------------------
 # B3LYP/6-311++G(d,p) empiricaldispersion=gd3bj scf=xqc pop=npa geom=c
 heck
 ----------------------------------------------------------------------

 --------------------------------------
 CID_84221781_JID_7912_Energie_neutraal
 --------------------------------------
 Structure from the checkpoint file:  "JID_7912.chk"
 Charge =  0 Multiplicity = 1

 SCF Done:  E(RB3LYP) =  -751.607249375     A.U. after   15 cycles
 Normal termination of Gaussian 16 at Fri Dec 11 13:43:02 2020.

 ----------------------------------------------------------------------
 # B3LYP/6-311++G(d,p) empiricaldispersion=gd3bj scf=xqc pop=npa geom=c
 heck
 ----------------------------------------------------------------------

 ------------------------------------
 CID_84221781_JID_7912_Energie_kation
 ------------------------------------
 Structure from the checkpoint file:  "JID_7912.chk"
 Charge =  1 Multiplicity = 2

 SCF Done:  E(UB3LYP) =  -751.334501448     A.U. after   24 cycles
 Normal termination of Gaussian 16 at Fri Dec 11 13:58:03 2020.
 Gaussian 16:  ES64L-G16RevA.03 25-Dec-2016

 ----------------------------------------------------------------------
 # B3LYP/6-311++G(d,p) empiricaldispersion=gd3bj scf=xqc pop=npa geom=c
 heck
 ----------------------------------------------------------------------

 -----------------------------------
 CID_84221781_JID_7912_Energie_anion
 -----------------------------------
 Structure from the checkpoint file:  "JID_7912.chk"
 Charge = -1 Multiplicity = 2

                         Standard orientation:
 ---------------------------------------------------------------------
 Center     Atomic      Atomic             Coordinates (Angstroms)
 Number     Number       Type             X           Y           Z
 ---------------------------------------------------------------------
      1          6           0       -0.359403   -3.434973   -0.531161
      2          6           0       -0.649665   -2.323728    0.479049
      3          7           0       -1.033437   -1.067795   -0.170998
      4          6           0       -2.427156   -1.036571   -0.619050
      5          6           0       -3.528854   -0.824902    0.434900
      6          6           0       -0.425326    0.129934    0.427114
      7          6           0       -0.804517    0.348881    1.908499
      8          6           0        1.109384    0.018614    0.235534
      9          6           0        1.592464   -0.333228   -1.033412
     10          6           0        2.959897   -0.443049   -1.267711
     11          6           0        3.871789   -0.203441   -0.236377
     12          6           0        3.400598    0.152266    1.025154
     13          6           0        2.027461    0.268232    1.258630
     14          6           0       -0.781970    1.370386   -0.420989
     15          8           0       -1.007278    1.375475   -1.611461
     16          8           0       -0.732046    2.499214    0.317129
     17          6           0       -0.915528    3.716455   -0.422196
     18          1           0       -1.226109   -3.650346   -1.164932
     19          1           0       -0.089234   -4.362272   -0.012055
     20          1           0        0.470720   -3.141954   -1.180965
     21          1           0       -1.414714   -2.661164    1.198941
     22          1           0        0.258956   -2.146823    1.060215
     23          1           0       -2.520383   -0.280760   -1.400050
     24          1           0       -2.602684   -1.999652   -1.109708
     25          1           0       -3.558110    0.208237    0.796188
     26          1           0       -4.508082   -1.040262   -0.009259
     27          1           0       -3.403279   -1.484561    1.300763
     28          1           0       -0.516814   -0.526901    2.496990
     29          1           0       -0.316594    1.228553    2.329090
     30          1           0       -1.880209    0.488781    2.011501
     31          1           0        0.875542   -0.520688   -1.824158
     32          1           0        3.315678   -0.716710   -2.257283
     33          1           0        4.939404   -0.293289   -0.416743
     34          1           0        4.098836    0.340908    1.836050
     35          1           0        1.686237    0.545019    2.249148
     36          1           0       -0.141543    3.816492   -1.187453
     37          1           0       -1.895812    3.727352   -0.905224
     38          1           0       -0.838192    4.517837    0.312685
 ---------------------------------------------------------------------

 SCF Done:  E(UB3LYP) =  -751.592885594     A.U. after   33 cycles
 SCF Done:  E(UB3LYP) =  -751.592885594     a.u. after    1 cycles

 The electronic state is 2-A.
 Alpha  occ. eigenvalues --  -19.06821 -19.00859 -14.20160 -10.19712 -10.13049
 Alpha  occ. eigenvalues --  -10.12427 -10.09464 -10.08886 -10.08258 -10.07581
 Alpha  occ. eigenvalues --  -10.07573 -10.07401 -10.07379 -10.06934 -10.06448
 Alpha  occ. eigenvalues --  -10.05908 -10.05874  -1.00961  -0.92031  -0.82857
 Alpha  occ. eigenvalues --   -0.75833  -0.69912  -0.66259  -0.64823  -0.63949
 Alpha  occ. eigenvalues --   -0.62789  -0.60894  -0.55567  -0.53848  -0.50561
 Alpha  occ. eigenvalues --   -0.49542  -0.48381  -0.45055  -0.42686  -0.40824
 Alpha  occ. eigenvalues --   -0.39067  -0.38245  -0.37478  -0.37261  -0.35467
 Alpha  occ. eigenvalues --   -0.34925  -0.33739  -0.32993  -0.32444  -0.32113
 Alpha  occ. eigenvalues --   -0.31413  -0.29849  -0.29686  -0.29112  -0.28756
 Alpha  occ. eigenvalues --   -0.27507  -0.27127  -0.26717  -0.26523  -0.25820
 Alpha  occ. eigenvalues --   -0.24672  -0.24605  -0.23825  -0.22794  -0.20904
 Alpha  occ. eigenvalues --   -0.17916  -0.15711  -0.15185  -0.10975   0.04422
 Alpha virt. eigenvalues --    0.06334   0.06424   0.06732   0.07431   0.07851
 Alpha virt. eigenvalues --    0.08423   0.08571   0.09127   0.09839   0.09930
 Alpha virt. eigenvalues --    0.10698   0.10861   0.11222   0.11547   0.11854

  Beta  occ. eigenvalues --  -19.06799 -19.00811 -14.20148 -10.19660 -10.13055
  Beta  occ. eigenvalues --  -10.12393 -10.09450 -10.08880 -10.08206 -10.07574
  Beta  occ. eigenvalues --  -10.07569 -10.07356 -10.07337 -10.06920 -10.06440
  Beta  occ. eigenvalues --  -10.05876 -10.05852  -1.00896  -0.91956  -0.82824
  Beta  occ. eigenvalues --   -0.75763  -0.69852  -0.66229  -0.64767  -0.63858
  Beta  occ. eigenvalues --   -0.62736  -0.60848  -0.55506  -0.53798  -0.50511
  Beta  occ. eigenvalues --   -0.49445  -0.48303  -0.45012  -0.42624  -0.40774
  Beta  occ. eigenvalues --   -0.38975  -0.38161  -0.37443  -0.37209  -0.35420
  Beta  occ. eigenvalues --   -0.34877  -0.33697  -0.32955  -0.32418  -0.32082
  Beta  occ. eigenvalues --   -0.31372  -0.29796  -0.29598  -0.29058  -0.28715
  Beta  occ. eigenvalues --   -0.27468  -0.27047  -0.26679  -0.26407  -0.25761
  Beta  occ. eigenvalues --   -0.24646  -0.24571  -0.23788  -0.22747  -0.20749
  Beta  occ. eigenvalues --   -0.17825  -0.15585  -0.14942  -0.10943
  Beta virt. eigenvalues --    0.06339   0.06938   0.07033   0.07418   0.07793
  Beta virt. eigenvalues --    0.08199   0.08476   0.08882   0.09394   0.10190
  Beta virt. eigenvalues --    0.10419   0.10911   0.11141   0.11545   0.11805

 Mulliken charges and spin densities:
               1          2
     1  C   -0.138480  -0.434841
     2  C   -0.045715  -0.111189
     3  N    0.450683  -0.111203
     4  C   -0.800738   0.744967
     5  C    0.836626  -1.389098
     6  C   -0.068096  -0.216087
     7  C    0.400708  -0.715088
     8  C    0.920523  -0.348111
     9  C   -0.730516   0.327140
    10  C   -0.727427   0.278901
    11  C    0.659069  -0.974777
    12  C   -0.245839  -0.110226
    13  C   -0.190444   0.214327
    14  C   -0.595471   0.235598
    15  O   -0.153754   0.017411
    16  O   -0.022375   0.064739
    17  C    0.724585  -0.935457
    18  H    0.073348   0.049475
    19  H   -0.035871   0.161213
    20  H    0.121575   0.014666
    21  H   -0.109439   0.230687
    22  H    0.301004  -0.156185
    23  H    0.101537   0.078559
    24  H   -0.018306   0.131458
    25  H   -0.172654   0.333835
    26  H   -0.246221   0.383710
    27  H   -0.078323   0.216455
    28  H   -0.154818   0.310682
    29  H   -0.111956   0.287780
    30  H    0.156653  -0.014154
    31  H    0.165661   0.050938
    32  H   -0.003651   0.168076
    33  H   -0.100213   0.228177
    34  H   -0.470125   0.650959
    35  H   -0.044644   0.196196
    36  H   -0.022404   0.196329
    37  H   -0.174386   0.344430
    38  H   -0.450109   0.599709
 Sum of Mulliken charges =  -1.00000   1.00000

 Dipole moment (field-independent basis, Debye):
    X=              1.0239    Y=             -3.0813    Z=             -2.1192  Tot=              3.8773
 Quadrupole moment (field-independent basis, Debye-Ang):
   XX=           -170.1077   YY=           -158.5031   ZZ=           -140.1346
   XY=              0.4437   XZ=             -1.6875   YZ=             -0.9204

 Summary of Natural Population Analysis:

                                       Natural Population
                Natural  -----------------------------------------------
    Atom  No    Charge         Core      Valence    Rydberg      Total
 -----------------------------------------------------------------------
      C    1   -0.28559      0.99966     2.28154    0.00440     3.28559
      C    2   -0.08775      0.99961     2.07731    0.01082     3.08775
      N    3   -0.28609      0.99969     2.77213    0.01427     3.78609
      C    4   -0.08737      0.99960     2.07682    0.01095     3.08737
      C    5   -0.29766      0.99966     2.29330    0.00470     3.29766
      C    6    0.03159      0.99948     1.95198    0.01695     2.96841
      C    7   -0.29695      0.99963     2.28959    0.00773     3.29695
      C    8   -0.01177      0.99947     1.99899    0.01331     3.01177
      C    9   -0.09277      0.99949     2.08316    0.01012     3.09277
      C   10   -0.10259      0.99956     2.09408    0.00895     3.10259
      C   11   -0.09524      0.99956     2.08554    0.01014     3.09524
      C   12   -0.10114      0.99956     2.09173    0.00984     3.10114
      C   13   -0.09853      0.99949     2.08915    0.00990     3.09853
      C   14    0.42673      0.99961     1.54685    0.02680     2.57327
      O   15   -0.30491      0.99987     3.29953    0.00551     4.30491
      O   16   -0.27735      0.99986     3.26761    0.00988     4.27735
      C   17   -0.10251      0.99959     2.09400    0.00892     3.10251
      H   18    0.09376      0.00000     0.40514    0.00110     0.40624
      H   19    0.09499      0.00000     0.40416    0.00085     0.40501
      H   20    0.10112      0.00000     0.39782    0.00106     0.39888
      H   21    0.08417      0.00000     0.41436    0.00147     0.41583
      H   22    0.10071      0.00000     0.39779    0.00150     0.39929
      H   23    0.10611      0.00000     0.39245    0.00144     0.39389
      H   24    0.09063      0.00000     0.40820    0.00117     0.40937
      H   25    0.09639      0.00000     0.40224    0.00137     0.40361
      H   26    0.09845      0.00000     0.40041    0.00114     0.40155
      H   27    0.09685      0.00000     0.40200    0.00115     0.40315
      H   28    0.10031      0.00000     0.39845    0.00124     0.39969
      H   29    0.11007      0.00000     0.38811    0.00182     0.38993
      H   30    0.10649      0.00000     0.39198    0.00153     0.39351
      H   31    0.11401      0.00000     0.38436    0.00164     0.38599
      H   32    0.09778      0.00000     0.40147    0.00076     0.40222
      H   33    0.09796      0.00000     0.40123    0.00081     0.40204
      H   34    0.09990      0.00000     0.39907    0.00103     0.40010
      H   35    0.10409      0.00000     0.39413    0.00178     0.39591
      H   36    0.09089      0.00000     0.40801    0.00110     0.40911
      H   37    0.09213      0.00000     0.40639    0.00148     0.40787
      H   38    0.09311      0.00000     0.40542    0.00147     0.40689
 =======================================================================
   * Total *    0.00000     16.99338    46.79650    0.21012    64.00000

 Normal termination of Gaussian 16 at Fri Dec 11 14:19:09 2020.
