 Gaussian 16, Revision A.03,

 -----------------------------------------------------------
 # opt freq B3LYP/6-31G(d) empiricaldispersion=gd3bj scf=xqc
 -----------------------------------------------------------

 -------------------------------
 CID_148845188_JID_1954_neutraal
 -------------------------------
 Symbolic Z-matrix:
 Charge =  0 Multiplicity = 1

 SCF Done:  E(RB3LYP) =  -448.465924968     A.U. after   13 cycles
 SCF Done:  E(RB3LYP) =  -448.476210891     A.U. after   11 cycles
 SCF Done:  E(RB3LYP) =  -448.472769844     A.U. after   11 cycles
 SCF Done:  E(RB3LYP) =  -448.477588500     A.U. after   10 cycles
 SCF Done:  E(RB3LYP) =  -448.478271274     A.U. after   10 cycles
 SCF Done:  E(RB3LYP) =  -448.478429804     A.U. after   10 cycles
 SCF Done:  E(RB3LYP) =  -448.478449218     A.U. after    9 cycles
 SCF Done:  E(RB3LYP) =  -448.478472766     A.U. after    8 cycles
 SCF Done:  E(RB3LYP) =  -448.478475517     A.U. after    8 cycles
 SCF Done:  E(RB3LYP) =  -448.478476983     A.U. after    7 cycles
 SCF Done:  E(RB3LYP) =  -448.478477358     A.U. after    7 cycles
 SCF Done:  E(RB3LYP) =  -448.478477544     A.U. after    7 cycles
 SCF Done:  E(RB3LYP) =  -448.478477593     A.U. after    6 cycles
 Optimization completed.
    -- Stationary point found.
 Normal termination of Gaussian 16 at Tue Dec  8 21:44:36 2020.

 --------------------------------------------------------------------
 #N Geom=AllCheck Guess=TCheck SCRF=Check GenChk RB3LYP/6-31G(d) Freq
 --------------------------------------------------------------------

 Structure from the checkpoint file:  "JID_1954.chk"
 -------------------------------
 CID_148845188_JID_1954_neutraal
 -------------------------------
 Charge =  0 Multiplicity = 1

 SCF Done:  E(RB3LYP) =  -448.478477593     A.U. after    1 cycles

  Exact polarizability: 119.279   1.669 110.978   0.645  -0.475  98.652
 Approx polarizability: 153.009   1.544 149.988   2.357  -1.319 147.567

                      1                      2                      3
                      A                      A                      A
 Frequencies --     50.0353                86.1099               134.1106
 Red. masses --      2.1333                 2.3016                 2.2842
 Frc consts  --      0.0031                 0.0101                 0.0242
 IR Inten    --      0.0282                 0.2989                 0.0239

                      4                      5                      6
                      A                      A                      A
 Frequencies --    138.6451               158.6374               201.5258
 Red. masses --      1.7829                 2.4459                 1.4926
 Frc consts  --      0.0202                 0.0363                 0.0357
 IR Inten    --      0.0969                 0.4966                 0.2646

                      7                      8                      9
                      A                      A                      A
 Frequencies --    235.2935               254.6973               260.9813
 Red. masses --      1.8400                 1.2289                 1.6649
 Frc consts  --      0.0600                 0.0470                 0.0668
 IR Inten    --      2.5484                 0.3338                 0.0366

                     10                     11                     12
                      A                      A                      A
 Frequencies --    281.5707               293.6036               316.9324
 Red. masses --      1.6014                 2.1854                 1.2465
 Frc consts  --      0.0748                 0.1110                 0.0738
 IR Inten    --      0.9523                 0.0706                 0.3306

                     13                     14                     15
                      A                      A                      A
 Frequencies --    322.7721               347.0196               377.3809
 Red. masses --      1.9503                 2.0237                 2.4887
 Frc consts  --      0.1197                 0.1436                 0.2088
 IR Inten    --      0.0914                 0.0152                 0.0275

                     16                     17                     18
                      A                      A                      A
 Frequencies --    428.3043               431.5028               516.2244
 Red. masses --      2.4661                 2.7108                 2.5523
 Frc consts  --      0.2665                 0.2974                 0.4007
 IR Inten    --      0.5298                 1.5047                 2.1632

                     19                     20                     21
                      A                      A                      A
 Frequencies --    546.6028               600.9589               715.8158
 Red. masses --      2.9054                 3.0929                 1.7114
 Frc consts  --      0.5115                 0.6581                 0.5167
 IR Inten    --      8.6504                 2.1567                 6.7364

                     22                     23                     24
                      A                      A                      A
 Frequencies --    769.2078               810.1254               836.1690
 Red. masses --      1.3189                 1.1715                 1.8316
 Frc consts  --      0.4598                 0.4530                 0.7545
 IR Inten    --      2.0125                 3.9218                 0.7941

                     25                     26                     27
                      A                      A                      A
 Frequencies --    847.0277               897.6579               915.2788
 Red. masses --      2.0471                 1.9325                 1.8701
 Frc consts  --      0.8653                 0.9175                 0.9230
 IR Inten    --      5.5305                 1.2843                 2.2706

                     28                     29                     30
                      A                      A                      A
 Frequencies --    933.7011               957.4194               972.5747
 Red. masses --      1.8691                 2.0470                 2.1522
 Frc consts  --      0.9600                 1.1056                 1.1995
 IR Inten    --      2.8206                 8.5013                 0.2092

                     31                     32                     33
                      A                      A                      A
 Frequencies --   1011.4019              1019.8911              1039.3806
 Red. masses --      2.6938                 1.5012                 1.6740
 Frc consts  --      1.6236                 0.9200                 1.0655
 IR Inten    --      0.1768                 6.8417                19.4070

                     34                     35                     36
                      A                      A                      A
 Frequencies --   1073.7295              1082.1756              1092.6240
 Red. masses --      1.5175                 1.9461                 2.0845
 Frc consts  --      1.0308                 1.3428                 1.4662
 IR Inten    --      2.6115                 5.9149                 0.5173

                     37                     38                     39
                      A                      A                      A
 Frequencies --   1122.4057              1161.7184              1167.1228
 Red. masses --      1.4856                 1.4611                 2.1599
 Frc consts  --      1.1027                 1.1618                 1.7335
 IR Inten    --     13.4662                10.7849                 6.1536

                     40                     41                     42
                      A                      A                      A
 Frequencies --   1192.7826              1198.9459              1210.8061
 Red. masses --      2.0771                 2.0030                 1.8459
 Frc consts  --      1.7411                 1.6964                 1.5944
 IR Inten    --     10.8377                 5.4883                21.3404

                     43                     44                     45
                      A                      A                      A
 Frequencies --   1220.9764              1263.2767              1278.6467
 Red. masses --      1.6068                 1.6975                 1.6249
 Frc consts  --      1.4113                 1.5961                 1.5652
 IR Inten    --      6.2279                18.6842                 8.2349

                     46                     47                     48
                      A                      A                      A
 Frequencies --   1289.6517              1294.3589              1310.6306
 Red. masses --      1.6734                 1.8214                 1.8106
 Frc consts  --      1.6398                 1.7979                 1.8324
 IR Inten    --      5.9421                 6.9837                22.8881

                     49                     50                     51
                      A                      A                      A
 Frequencies --   1319.2395              1373.6755              1392.5521
 Red. masses --      1.3490                 1.2490                 1.3796
 Frc consts  --      1.3833                 1.3886                 1.5762
 IR Inten    --     10.1152                 4.1825                11.7694

                     52                     53                     54
                      A                      A                      A
 Frequencies --   1409.7774              1413.1527              1431.6472
 Red. masses --      1.2694                 1.4875                 1.2504
 Frc consts  --      1.4865                 1.7502                 1.5100
 IR Inten    --     10.0899                 2.8037                10.7470

                     55                     56                     57
                      A                      A                      A
 Frequencies --   1434.8009              1439.7230              1485.3556
 Red. masses --      1.2430                 1.2495                 1.1508
 Frc consts  --      1.5077                 1.5259                 1.4960
 IR Inten    --     11.4634                 7.6752                 0.7939

                     58                     59                     60
                      A                      A                      A
 Frequencies --   1504.3203              1509.4830              1511.7719
 Red. masses --      1.0790                 1.0725                 1.0645
 Frc consts  --      1.4386                 1.4399                 1.4335
 IR Inten    --      1.6167                 4.2611                 1.9056

                     61                     62                     63
                      A                      A                      A
 Frequencies --   1518.9208              1522.0862              1527.4142
 Red. masses --      1.0612                 1.0564                 1.0475
 Frc consts  --      1.4425                 1.4420                 1.4399
 IR Inten    --      2.9141                 5.0289                 2.8666

                     64                     65                     66
                      A                      A                      A
 Frequencies --   1531.2415              1532.0981              1536.9989
 Red. masses --      1.0936                 1.0614                 1.0717
 Frc consts  --      1.5108                 1.4679                 1.4917
 IR Inten    --      1.1730                 6.4162                 8.9729

                     67                     68                     69
                      A                      A                      A
 Frequencies --   1542.6467              1546.7314              1551.5967
 Red. masses --      1.0505                 1.0565                 1.0561
 Frc consts  --      1.4729                 1.4892                 1.4980
 IR Inten    --      1.7167                 3.5042                 3.3273

                     70                     71                     72
                      A                      A                      A
 Frequencies --   2959.5337              3008.9933              3024.8475
 Red. masses --      1.0612                 1.0726                 1.0673
 Frc consts  --      5.4764                 5.7215                 5.7538
 IR Inten    --     84.1282                51.3024                35.2365

                     73                     74                     75
                      A                      A                      A
 Frequencies --   3037.8877              3046.4300              3049.4695
 Red. masses --      1.0827                 1.0445                 1.0365
 Frc consts  --      5.8874                 5.7112                 5.6790
 IR Inten    --     18.4845                36.8437                18.5851

                     76                     77                     78
                      A                      A                      A
 Frequencies --   3058.1118              3069.5400              3071.6799
 Red. masses --      1.0389                 1.0628                 1.0724
 Frc consts  --      5.7242                 5.9001                 5.9613
 IR Inten    --     36.7174                14.3286                54.7138

                     79                     80                     81
                      A                      A                      A
 Frequencies --   3078.3025              3079.5320              3099.3804
 Red. masses --      1.0660                 1.0877                 1.0933
 Frc consts  --      5.9514                 6.0778                 6.1881
 IR Inten    --     23.7191                42.1444                 9.2472

                     82                     83                     84
                      A                      A                      A
 Frequencies --   3102.2227              3112.9710              3117.1935
 Red. masses --      1.0999                 1.1059                 1.1046
 Frc consts  --      6.2368                 6.3140                 6.3236
 IR Inten    --     45.9302                34.6627                12.6384

                     85                     86                     87
                      A                      A                      A
 Frequencies --   3120.0998              3121.4568              3130.7437
 Red. masses --      1.0997                 1.1004                 1.1005
 Frc consts  --      6.3075                 6.3171                 6.3554
 IR Inten    --     18.6718                63.4634                39.6919

                     88                     89                     90
                      A                      A                      A
 Frequencies --   3136.3179              3147.3180              3163.8127
 Red. masses --      1.1025                 1.1006                 1.0944
 Frc consts  --      6.3897                 6.4233                 6.4545
 IR Inten    --     50.8247                29.7314                22.5997

 - Thermochemistry -
 -------------------
 Temperature   298.150 Kelvin.  Pressure   1.00000 Atm.
 Atom     1 has atomic number  6 and mass  12.00000

 Molecular mass:   155.16740 amu.
 Principal axes and moments of inertia in atomic units:
                           1         2         3
     Eigenvalues --  1356.302821974.549302537.54077
           X            0.99987  -0.01544  -0.00548
           Y            0.01543   0.99988  -0.00201
           Z            0.00551   0.00192   0.99998
 This molecule is an asymmetric top.
 Rotational symmetry number  1.
 Warning -- assumption of classical behavior for rotation
           may cause significant error
 Rotational temperatures (Kelvin)      0.06386     0.04387     0.03413
 Rotational constants (GHZ):           1.33063     0.91400     0.71122
 Zero-point vibrational energy     786182.7 (Joules/Mol)
                                  187.90218 (Kcal/Mol)
 Warning -- explicit consideration of  20 degrees of freedom as
           vibrations may cause significant error
 Vibrational temperatures:     71.99   123.89   192.96   199.48   228.24
          (Kelvin)            289.95   338.53   366.45   375.49   405.12
                              422.43   456.00   464.40   499.28   542.97
                              616.23   620.84   742.73   786.44   864.65
                             1029.90  1106.72  1165.59  1203.06  1218.68
                             1291.53  1316.88  1343.39  1377.51  1399.32
                             1455.18  1467.40  1495.44  1544.86  1557.01
                             1572.04  1614.89  1671.45  1679.23  1716.15
                             1725.02  1742.08  1756.71  1817.57  1839.69
                             1855.52  1862.29  1885.71  1898.09  1976.41
                             2003.57  2028.36  2033.21  2059.82  2064.36
                             2071.44  2137.10  2164.38  2171.81  2175.10
                             2185.39  2189.94  2197.61  2203.12  2204.35
                             2211.40  2219.52  2225.40  2232.40  4258.11
                             4329.27  4352.08  4370.84  4383.13  4387.51
                             4399.94  4416.38  4419.46  4428.99  4430.76
                             4459.32  4463.41  4478.87  4484.95  4489.13
                             4491.08  4504.44  4512.46  4528.29  4552.02

 Zero-point correction=                           0.299441 (Hartree/Particle)
 Thermal correction to Energy=                    0.312463
 Thermal correction to Enthalpy=                  0.313407
 Thermal correction to Gibbs Free Energy=         0.261372
 Sum of electronic and zero-point Energies=           -448.179036
 Sum of electronic and thermal Energies=              -448.166014
 Sum of electronic and thermal Enthalpies=            -448.165070
 Sum of electronic and thermal Free Energies=         -448.217106

                     E (Thermal)             CV                S
                      KCal/Mol        Cal/Mol-Kelvin    Cal/Mol-Kelvin
 Total                  196.074             50.277            109.518
 Electronic               0.000              0.000              0.000
 Translational            0.889              2.981             41.028
 Rotational               0.889              2.981             30.298
 Vibrational            194.296             44.316             38.192
 Vibration     1          0.595              1.978              4.816
 Vibration     2          0.601              1.959              3.747
 Vibration     3          0.613              1.919              2.886
 Vibration     4          0.614              1.915              2.822
 Vibration     5          0.621              1.893              2.566
 Vibration     6          0.638              1.838              2.119
 Vibration     7          0.655              1.787              1.838
 Vibration     8          0.665              1.755              1.698
 Vibration     9          0.669              1.744              1.655
 Vibration    10          0.681              1.708              1.524
 Vibration    11          0.688              1.686              1.453
 Vibration    12          0.704              1.641              1.326
 Vibration    13          0.708              1.630              1.296
 Vibration    14          0.725              1.581              1.180
 Vibration    15          0.748              1.518              1.050
 Vibration    16          0.790              1.409              0.864
 Vibration    17          0.793              1.402              0.854
 Vibration    18          0.871              1.214              0.619
 Vibration    19          0.902              1.147              0.551
 Vibration    20          0.959              1.030              0.448

 Optimization completed.
    -- Stationary point found.
 Normal termination of Gaussian 16 at Tue Dec  8 21:53:08 2020.

 ----------------------------------------------------------------------
 # B3LYP/6-311++G(d,p) empiricaldispersion=gd3bj scf=xqc pop=npa geom=c
 heck
 ----------------------------------------------------------------------

 ---------------------------------------
 CID_148845188_JID_1954_Energie_neutraal
 ---------------------------------------
 Structure from the checkpoint file:  "JID_1954.chk"
 Charge =  0 Multiplicity = 1

 SCF Done:  E(RB3LYP) =  -448.601284212     A.U. after   13 cycles
 Normal termination of Gaussian 16 at Tue Dec  8 21:56:17 2020.

 ----------------------------------------------------------------------
 # B3LYP/6-311++G(d,p) empiricaldispersion=gd3bj scf=xqc pop=npa geom=c
 heck
 ----------------------------------------------------------------------

 -------------------------------------
 CID_148845188_JID_1954_Energie_kation
 -------------------------------------
 Structure from the checkpoint file:  "JID_1954.chk"
 Charge =  1 Multiplicity = 2

 SCF Done:  E(UB3LYP) =  -448.326519405     A.U. after   16 cycles
 Normal termination of Gaussian 16 at Tue Dec  8 22:01:15 2020.
 Gaussian 16:  ES64L-G16RevA.03 25-Dec-2016

 ----------------------------------------------------------------------
 # B3LYP/6-311++G(d,p) empiricaldispersion=gd3bj scf=xqc pop=npa geom=c
 heck
 ----------------------------------------------------------------------

 ------------------------------------
 CID_148845188_JID_1954_Energie_anion
 ------------------------------------
 Structure from the checkpoint file:  "JID_1954.chk"
 Charge = -1 Multiplicity = 2

                         Standard orientation:
 ---------------------------------------------------------------------
 Center     Atomic      Atomic             Coordinates (Angstroms)
 Number     Number       Type             X           Y           Z
 ---------------------------------------------------------------------
      1          6           0       -1.434377    2.574176    0.004582
      2          6           0       -1.948419    1.176066    0.356868
      3          6           0       -1.478314    0.033932   -0.551290
      4          6           0       -2.210357   -1.294418   -0.205008
      5          6           0       -0.977646   -1.724823    0.622518
      6          6           0       -0.125518   -0.694036   -0.169162
      7          6           0        0.478124   -1.367701   -1.415485
      8          7           0        0.838905    0.062522    0.627663
      9          6           0        1.622382   -0.720377    1.568032
     10          6           0        1.634970    1.059363   -0.094695
     11          6           0        2.996622    0.627943   -0.668566
     12          1           0       -1.966270    3.336752    0.585429
     13          1           0       -1.594372    2.797854   -1.057981
     14          1           0       -0.369745    2.684894    0.216866
     15          1           0       -3.046416    1.191904    0.306291
     16          1           0       -1.687896    0.945182    1.396707
     17          1           0       -1.541311    0.345467   -1.602351
     18          1           0       -3.153727   -1.191863    0.340359
     19          1           0       -2.382498   -1.931929   -1.076713
     20          1           0       -0.658306   -2.771393    0.581527
     21          1           0       -1.092827   -1.428461    1.668241
     22          1           0        0.830762   -0.624649   -2.138054
     23          1           0        1.322231   -2.010142   -1.139784
     24          1           0       -0.261542   -1.992879   -1.926759
     25          1           0        2.321730   -1.438910    1.103591
     26          1           0        2.215887   -0.039129    2.189427
     27          1           0        0.963552   -1.282978    2.234021
     28          1           0        1.014027    1.452356   -0.905005
     29          1           0        1.815965    1.901017    0.590643
     30          1           0        2.908963   -0.184578   -1.394216
     31          1           0        3.463123    1.482383   -1.172994
     32          1           0        3.681532    0.300704    0.120345
 ---------------------------------------------------------------------

 SCF Done:  E(UB3LYP) =  -448.582987138     A.U. after   28 cycles

 The electronic state is 2-A.
 Alpha  occ. eigenvalues --  -14.19029 -10.09990 -10.08381 -10.07517 -10.06482
 Alpha  occ. eigenvalues --  -10.06158 -10.05982 -10.05951 -10.05237 -10.05033
 Alpha  occ. eigenvalues --  -10.04856  -0.81717  -0.73868  -0.66029  -0.63580
 Alpha  occ. eigenvalues --   -0.61412  -0.57149  -0.55739  -0.52656  -0.49207
 Alpha  occ. eigenvalues --   -0.47851  -0.40932  -0.39356  -0.37477  -0.35881
 Alpha  occ. eigenvalues --   -0.34467  -0.32930  -0.32305  -0.31041  -0.29919
 Alpha  occ. eigenvalues --   -0.29445  -0.28294  -0.27935  -0.27123  -0.26693
 Alpha  occ. eigenvalues --   -0.25727  -0.24943  -0.24651  -0.23493  -0.21749
 Alpha  occ. eigenvalues --   -0.20998  -0.19409  -0.18790  -0.09844   0.04764
 Alpha virt. eigenvalues --    0.07004   0.07228   0.07538   0.08965   0.09367
 Alpha virt. eigenvalues --    0.09589   0.09748   0.10131   0.11699   0.11779
 Alpha virt. eigenvalues --    0.12363   0.12490   0.12895   0.13050   0.13527

  Beta  occ. eigenvalues --  -14.19029 -10.09989 -10.08364 -10.07482 -10.06474
  Beta  occ. eigenvalues --  -10.06145 -10.05964 -10.05939 -10.05220 -10.05005
  Beta  occ. eigenvalues --  -10.04821  -0.81707  -0.73850  -0.66003  -0.63540
  Beta  occ. eigenvalues --   -0.61373  -0.57093  -0.55696  -0.52602  -0.49152
  Beta  occ. eigenvalues --   -0.47795  -0.40889  -0.39325  -0.37440  -0.35851
  Beta  occ. eigenvalues --   -0.34436  -0.32902  -0.32278  -0.31011  -0.29881
  Beta  occ. eigenvalues --   -0.29412  -0.28259  -0.27902  -0.27086  -0.26653
  Beta  occ. eigenvalues --   -0.25694  -0.24913  -0.24619  -0.23465  -0.21718
  Beta  occ. eigenvalues --   -0.20973  -0.19383  -0.18770  -0.09825
  Beta virt. eigenvalues --    0.06870   0.07737   0.07881   0.08258   0.09423
  Beta virt. eigenvalues --    0.09915   0.10170   0.10272   0.10623   0.12132
  Beta virt. eigenvalues --    0.12154   0.12849   0.12976   0.13296   0.13439

 Mulliken charges and spin densities:
               1          2
     1  C    0.542435  -1.148172
     2  C   -0.696824   0.348999
     3  C   -0.340908   1.075331
     4  C    0.864742  -1.537887
     5  C   -0.632930   0.413582
     6  C   -1.702675   0.867004
     7  C    2.052545  -2.666724
     8  N    0.299769   0.116098
     9  C    0.970694  -1.258577
    10  C   -0.950756   0.775738
    11  C    1.300797  -1.821896
    12  H   -0.183533   0.310262
    13  H   -0.065663   0.189114
    14  H   -0.180982   0.328946
    15  H   -0.158578   0.301538
    16  H    0.088333   0.081832
    17  H   -0.212137   0.441173
    18  H   -0.042536   0.181472
    19  H   -0.121452   0.256645
    20  H   -0.225618   0.395467
    21  H   -0.002289   0.120593
    22  H   -0.245792   0.399005
    23  H   -0.089084   0.261580
    24  H    0.050116   0.087939
    25  H   -0.196225   0.338669
    26  H   -0.261646   0.415600
    27  H   -0.214000   0.342790
    28  H    0.276077  -0.127991
    29  H   -0.056451   0.223299
    30  H   -0.142822   0.283811
    31  H   -0.522986   0.665513
    32  H   -0.199622   0.339247
 Sum of Mulliken charges =  -1.00000   1.00000

 Dipole moment (field-independent basis, Debye):
    X=             -3.1587    Y=             -0.1894    Z=              0.4822  Tot=              3.2009
 Quadrupole moment (field-independent basis, Debye-Ang):
   XX=           -131.0744   YY=           -120.3328   ZZ=           -113.8689
   XY=             -0.4312   XZ=             -0.8200   YZ=              0.9873

 Summary of Natural Population Analysis:

                                       Natural Population
                Natural  -----------------------------------------------
    Atom  No    Charge         Core      Valence    Rydberg      Total
 -----------------------------------------------------------------------
      C    1   -0.28196      0.99966     2.27800    0.00430     3.28196
      C    2   -0.19093      0.99961     2.18162    0.00970     3.19093
      C    3   -0.10422      0.99955     2.09289    0.01179     3.10422
      C    4   -0.18798      0.99963     2.17974    0.00861     3.18798
      C    5   -0.19257      0.99959     2.18418    0.00881     3.19257
      C    6    0.08086      0.99952     1.90203    0.01759     2.91914
      C    7   -0.29784      0.99960     2.29072    0.00752     3.29784
      N    8   -0.29115      0.99968     2.77686    0.01462     3.79115
      C    9   -0.17752      0.99963     2.16858    0.00930     3.17752
      C   10   -0.08649      0.99962     2.07436    0.01252     3.08649
      C   11   -0.29610      0.99966     2.29170    0.00474     3.29610
      H   12    0.09490      0.00000     0.40417    0.00093     0.40510
      H   13    0.09327      0.00000     0.40549    0.00124     0.40673
      H   14    0.10086      0.00000     0.39747    0.00166     0.39914
      H   15    0.09154      0.00000     0.40729    0.00117     0.40846
      H   16    0.10024      0.00000     0.39805    0.00171     0.39976
      H   17    0.09357      0.00000     0.40489    0.00155     0.40643
      H   18    0.09471      0.00000     0.40413    0.00116     0.40529
      H   19    0.09726      0.00000     0.40148    0.00126     0.40274
      H   20    0.09818      0.00000     0.40065    0.00117     0.40182
      H   21    0.10133      0.00000     0.39713    0.00154     0.39867
      H   22    0.10099      0.00000     0.39772    0.00128     0.39901
      H   23    0.10199      0.00000     0.39687    0.00114     0.39801
      H   24    0.10025      0.00000     0.39841    0.00135     0.39975
      H   25    0.08217      0.00000     0.41626    0.00157     0.41783
      H   26    0.09572      0.00000     0.40325    0.00103     0.40428
      H   27    0.09630      0.00000     0.40244    0.00126     0.40370
      H   28    0.09592      0.00000     0.40243    0.00165     0.40408
      H   29    0.09063      0.00000     0.40811    0.00126     0.40937
      H   30    0.09819      0.00000     0.40053    0.00128     0.40181
      H   31    0.09980      0.00000     0.39884    0.00136     0.40020
      H   32    0.09809      0.00000     0.40059    0.00131     0.40191
 =======================================================================
   * Total *   -0.00000     10.99575    32.86689    0.13736    44.00000

 Normal termination of Gaussian 16 at Tue Dec  8 22:09:39 2020.
