 Gaussian 16, Revision A.03,

 -----------------------------------------------------------
 # opt freq B3LYP/6-31G(d) empiricaldispersion=gd3bj scf=xqc
 -----------------------------------------------------------

 -------------------------------
 CID_116850080_JID_8362_neutraal
 -------------------------------
 Symbolic Z-matrix:
 Charge =  0 Multiplicity = 1

 SCF Done:  E(RB3LYP) =  -786.877161227     A.U. after   15 cycles
 SCF Done:  E(RB3LYP) =  -786.877134839     A.U. after   13 cycles
 SCF Done:  E(RB3LYP) =  -786.882683475     A.U. after   12 cycles
 SCF Done:  E(RB3LYP) =  -786.883479906     A.U. after   12 cycles
 SCF Done:  E(RB3LYP) =  -786.883877278     A.U. after   12 cycles
 SCF Done:  E(RB3LYP) =  -786.883954726     A.U. after   12 cycles
 SCF Done:  E(RB3LYP) =  -786.884174765     A.U. after   12 cycles
 SCF Done:  E(RB3LYP) =  -786.884302187     A.U. after   11 cycles
 SCF Done:  E(RB3LYP) =  -786.884434951     A.U. after   12 cycles
 SCF Done:  E(RB3LYP) =  -786.884595268     A.U. after   11 cycles
 SCF Done:  E(RB3LYP) =  -786.885405727     A.U. after    9 cycles
 SCF Done:  E(RB3LYP) =  -786.885408909     A.U. after    9 cycles
 SCF Done:  E(RB3LYP) =  -786.885409032     A.U. after    7 cycles
 SCF Done:  E(RB3LYP) =  -786.885409044     A.U. after    7 cycles
 SCF Done:  E(RB3LYP) =  -786.885409109     A.U. after    7 cycles
 Optimization completed.
    -- Stationary point found.
 Normal termination of Gaussian 16 at Fri Dec 11 20:34:44 2020.

 --------------------------------------------------------------------
 #N Geom=AllCheck Guess=TCheck SCRF=Check GenChk RB3LYP/6-31G(d) Freq
 --------------------------------------------------------------------

 Structure from the checkpoint file:  "JID_8362.chk"
 -------------------------------
 CID_116850080_JID_8362_neutraal
 -------------------------------
 Charge =  0 Multiplicity = 1

 SCF Done:  E(RB3LYP) =  -786.885409109     A.U. after    1 cycles

  Exact polarizability: 179.448  25.174 157.946  -9.888  11.108 158.476
 Approx polarizability: 250.525  49.102 236.031 -11.063  31.433 260.044

                      1                      2                      3
                      A                      A                      A
 Frequencies --     34.1631                47.0336                58.2593
 Red. masses --      4.0542                 3.3735                 4.5745
 Frc consts  --      0.0028                 0.0044                 0.0091
 IR Inten    --      1.7378                 0.1914                 0.0609

                      4                      5                      6
                      A                      A                      A
 Frequencies --     74.6377                85.8774               111.5238
 Red. masses --      5.4335                 3.4590                 2.4261
 Frc consts  --      0.0178                 0.0150                 0.0178
 IR Inten    --      0.6260                 0.3026                 1.0140

                      7                      8                      9
                      A                      A                      A
 Frequencies --    120.7170               145.5576               151.8657
 Red. masses --      1.6319                 2.5308                 1.4756
 Frc consts  --      0.0140                 0.0316                 0.0201
 IR Inten    --      0.7383                 0.3561                 0.1072

                     10                     11                     12
                      A                      A                      A
 Frequencies --    173.3466               196.8655               213.7392
 Red. masses --      1.2980                 1.0836                 3.0220
 Frc consts  --      0.0230                 0.0247                 0.0813
 IR Inten    --      0.4886                 0.4426                 2.2916

                     13                     14                     15
                      A                      A                      A
 Frequencies --    223.1234               249.1742               259.0921
 Red. masses --      4.7448                 1.1066                 1.8274
 Frc consts  --      0.1392                 0.0405                 0.0723
 IR Inten    --      2.0192                 0.5536                 0.9879

                     16                     17                     18
                      A                      A                      A
 Frequencies --    269.1949               298.2774               313.4742
 Red. masses --      2.2606                 2.2596                 1.0993
 Frc consts  --      0.0965                 0.1184                 0.0636
 IR Inten    --      3.4152                 4.1815                47.0452

                     19                     20                     21
                      A                      A                      A
 Frequencies --    316.5720               344.3583               367.8215
 Red. masses --      2.4128                 2.6636                 2.7415
 Frc consts  --      0.1425                 0.1861                 0.2185
 IR Inten    --      6.6325                 0.3107                 0.7241

                     22                     23                     24
                      A                      A                      A
 Frequencies --    385.6440               398.7115               400.8969
 Red. masses --      2.5408                 2.6996                 3.3397
 Frc consts  --      0.2226                 0.2529                 0.3162
 IR Inten    --      1.5281                12.6278                 1.2935

                     25                     26                     27
                      A                      A                      A
 Frequencies --    468.5694               482.8897               485.5524
 Red. masses --      2.7437                 3.2541                 3.7007
 Frc consts  --      0.3549                 0.4471                 0.5141
 IR Inten    --      4.9452                 5.0680                 0.7547

                     28                     29                     30
                      A                      A                      A
 Frequencies --    512.8386               522.7131               534.6373
 Red. masses --      4.0041                 3.2085                 2.7490
 Frc consts  --      0.6205                 0.5165                 0.4630
 IR Inten    --      0.5970                 1.5627                34.2631

                     31                     32                     33
                      A                      A                      A
 Frequencies --    553.6689               574.9262               597.7008
 Red. masses --      2.9170                 2.8544                 2.8278
 Frc consts  --      0.5268                 0.5559                 0.5952
 IR Inten    --     12.1930                 7.0662                 9.6403

                     34                     35                     36
                      A                      A                      A
 Frequencies --    630.6891               682.6852               720.5979
 Red. masses --      2.0693                 4.1415                 3.9643
 Frc consts  --      0.4850                 1.1372                 1.2128
 IR Inten    --     64.1709                 5.1108                 1.3476

                     37                     38                     39
                      A                      A                      A
 Frequencies --    730.1138               759.9828               831.6722
 Red. masses --      4.0841                 3.0659                 1.5457
 Frc consts  --      1.2827                 1.0433                 0.6299
 IR Inten    --     20.8673                 2.2420                23.5847

                     40                     41                     42
                      A                      A                      A
 Frequencies --    848.9660               876.3751               911.4085
 Red. masses --      3.2859                 3.1129                 3.0045
 Frc consts  --      1.3954                 1.4086                 1.4704
 IR Inten    --      3.9661                 2.7117                11.9609

                     43                     44                     45
                      A                      A                      A
 Frequencies --    932.3471               950.7811               954.5204
 Red. masses --      2.9965                 1.4420                 2.1017
 Frc consts  --      1.5347                 0.7680                 1.1282
 IR Inten    --     48.2017                31.7360                 2.0154

                     46                     47                     48
                      A                      A                      A
 Frequencies --    979.1585              1016.1750              1028.1657
 Red. masses --      1.5917                 2.1818                 1.4749
 Frc consts  --      0.8991                 1.3274                 0.9186
 IR Inten    --     66.2387                80.5475                25.0301

                     49                     50                     51
                      A                      A                      A
 Frequencies --   1042.7890              1044.8583              1060.6311
 Red. masses --      1.6823                 1.4093                 1.7170
 Frc consts  --      1.0778                 0.9065                 1.1380
 IR Inten    --     16.4635                 7.9446                 4.7540

                     52                     53                     54
                      A                      A                      A
 Frequencies --   1071.7094              1083.4537              1095.5979
 Red. masses --      1.5050                 1.6266                 2.0709
 Frc consts  --      1.0185                 1.1250                 1.4646
 IR Inten    --      0.9745                 1.1491                22.1275

                     55                     56                     57
                      A                      A                      A
 Frequencies --   1105.4837              1130.4703              1133.7530
 Red. masses --      1.8740                 1.5233                 1.3559
 Frc consts  --      1.3493                 1.1470                 1.0268
 IR Inten    --      4.7581                 8.6107                 0.5968

                     58                     59                     60
                      A                      A                      A
 Frequencies --   1189.4303              1205.3615              1219.4701
 Red. masses --      1.4722                 1.5138                 1.2473
 Frc consts  --      1.2271                 1.2959                 1.0929
 IR Inten    --     23.7282                 8.1553                 6.1621

                     61                     62                     63
                      A                      A                      A
 Frequencies --   1225.3348              1230.6917              1260.3505
 Red. masses --      2.4939                 1.7802                 3.2102
 Frc consts  --      2.2062                 1.5886                 3.0045
 IR Inten    --      1.9105                 5.9317                 4.9400

                     64                     65                     66
                      A                      A                      A
 Frequencies --   1289.8476              1292.9277              1294.5528
 Red. masses --      2.9586                 2.1220                 1.7687
 Frc consts  --      2.9001                 2.0899                 1.7464
 IR Inten    --      3.1052                 2.1376                 1.4032

                     67                     68                     69
                      A                      A                      A
 Frequencies --   1308.5747              1342.2265              1349.3516
 Red. masses --      2.0206                 2.0700                 2.5528
 Frc consts  --      2.0386                 2.1972                 2.7386
 IR Inten    --     34.8769                31.1110                26.3508

                     70                     71                     72
                      A                      A                      A
 Frequencies --   1417.4519              1435.1249              1440.6170
 Red. masses --      1.7532                 1.2966                 1.2494
 Frc consts  --      2.0754                 1.5734                 1.5277
 IR Inten    --     94.4313                 0.2157                 0.9622

                     73                     74                     75
                      A                      A                      A
 Frequencies --   1449.5133              1452.3215              1461.7235
 Red. masses --      1.2587                 1.8508                 1.1628
 Frc consts  --      1.5582                 2.3001                 1.4638
 IR Inten    --      2.1171                 3.3942                 0.5462

                     76                     77                     78
                      A                      A                      A
 Frequencies --   1467.6888              1472.6584              1497.5709
 Red. masses --      1.7018                 1.5808                 1.3888
 Frc consts  --      2.1599                 2.0199                 1.8351
 IR Inten    --     17.2495                 9.2102                 3.4811

                     79                     80                     81
                      A                      A                      A
 Frequencies --   1499.1870              1505.4801              1507.6111
 Red. masses --      1.2869                 1.2111                 1.0613
 Frc consts  --      1.7041                 1.6172                 1.4212
 IR Inten    --     13.7805                20.5890                10.0427

                     82                     83                     84
                      A                      A                      A
 Frequencies --   1510.8840              1521.4973              1523.0452
 Red. masses --      1.0543                 1.0481                 1.0626
 Frc consts  --      1.4180                 1.4295                 1.4523
 IR Inten    --      9.8011                 1.5100                 6.1987

                     85                     86                     87
                      A                      A                      A
 Frequencies --   1529.7547              1531.4511              1536.6157
 Red. masses --      1.1470                 1.1553                 1.0649
 Frc consts  --      1.5815                 1.5965                 1.4815
 IR Inten    --      8.0751                 2.9524                 8.2378

                     88                     89                     90
                      A                      A                      A
 Frequencies --   1538.0929              1542.8702              1545.6592
 Red. masses --      1.1002                 1.1253                 1.4572
 Frc consts  --      1.5336                 1.5783                 2.0511
 IR Inten    --      5.1466                 1.2668                18.5757

                     91                     92                     93
                      A                      A                      A
 Frequencies --   1638.2579              1657.4880              1722.9962
 Red. masses --      5.5809                 6.2311                 1.1100
 Frc consts  --      8.8250                10.0860                 1.9415
 IR Inten    --      0.2220                 0.4817                61.8553

                     94                     95                     96
                      A                      A                      A
 Frequencies --   1763.6308              2958.8973              2974.2442
 Red. masses --      6.3722                 1.0601                 1.0582
 Frc consts  --     11.6777                 5.4685                 5.5153
 IR Inten    --    230.5814                49.1545               114.5019

                     97                     98                     99
                      A                      A                      A
 Frequencies --   3038.6032              3039.9175              3041.7213
 Red. masses --      1.0427                 1.0415                 1.0487
 Frc consts  --      5.6724                 5.6708                 5.7169
 IR Inten    --     20.1062                39.0437                22.8568

                    100                    101                    102
                      A                      A                      A
 Frequencies --   3060.8738              3071.1813              3083.3056
 Red. masses --      1.0803                 1.0729                 1.0981
 Frc consts  --      5.9633                 5.9621                 6.1510
 IR Inten    --     21.8848                34.5203                30.0404

                    103                    104                    105
                      A                      A                      A
 Frequencies --   3089.8127              3099.7201              3105.4389
 Red. masses --      1.1001                 1.0766                 1.0902
 Frc consts  --      6.1878                 6.0946                 6.1942
 IR Inten    --     18.0736                14.3057                25.1356

                    106                    107                    108
                      A                      A                      A
 Frequencies --   3107.8148              3124.2634              3151.5355
 Red. masses --      1.0777                 1.0998                 1.0968
 Frc consts  --      6.1328                 6.3250                 6.4181
 IR Inten    --     26.2214                20.2319                19.0806

                    109                    110                    111
                      A                      A                      A
 Frequencies --   3152.3905              3157.6187              3164.3138
 Red. masses --      1.1036                 1.0941                 1.0941
 Frc consts  --      6.4616                 6.4272                 6.4544
 IR Inten    --     29.3899                13.6773                 5.7934

                    112                    113                    114
                      A                      A                      A
 Frequencies --   3179.0597              3194.3388              3234.4702
 Red. masses --      1.0894                 1.0984                 1.0911
 Frc consts  --      6.4871                 6.6037                 6.7257
 IR Inten    --     23.2276                 2.7415                 4.0940

                    115                    116                    117
                      A                      A                      A
 Frequencies --   3452.6513              3454.1338              3537.9213
 Red. masses --      1.0584                 1.0681                 1.0900
 Frc consts  --      7.4338                 7.5081                 8.0384
 IR Inten    --     20.9058                 6.9195                11.6720

 - Thermochemistry -
 -------------------
 Temperature   298.150 Kelvin.  Pressure   1.00000 Atm.
 Atom     1 has atomic number  6 and mass  12.00000

 Molecular mass:   249.18411 amu.
 Principal axes and moments of inertia in atomic units:
                           1         2         3
     Eigenvalues --  3365.141655135.683226206.62550
           X            0.99981   0.01195  -0.01508
           Y           -0.01195   0.99993   0.00000
           Z            0.01508   0.00018   0.99989
 This molecule is an asymmetric top.
 Rotational symmetry number  1.
 Warning -- assumption of classical behavior for rotation
           may cause significant error
 Rotational temperatures (Kelvin)      0.02574     0.01687     0.01396
 Rotational constants (GHZ):           0.53630     0.35141     0.29078
 Zero-point vibrational energy     947725.6 (Joules/Mol)
                                  226.51185 (Kcal/Mol)
 Warning -- explicit consideration of  33 degrees of freedom as
           vibrations may cause significant error
 Vibrational temperatures:     49.15    67.67    83.82   107.39   123.56
          (Kelvin)            160.46   173.68   209.42   218.50   249.41
                              283.25   307.52   321.02   358.51   372.78
                              387.31   429.15   451.02   455.48   495.45
                              529.21   554.86   573.66   576.80   674.17
                              694.77   698.60   737.86   752.07   769.22
                              796.61   827.19   859.96   907.42   982.23
                             1036.78  1050.47  1093.45  1196.59  1221.47
                             1260.91  1311.31  1341.44  1367.96  1373.34
                             1408.79  1462.05  1479.30  1500.34  1503.32
                             1526.01  1541.95  1558.85  1576.32  1590.54
                             1626.49  1631.22  1711.32  1734.25  1754.55
                             1762.98  1770.69  1813.36  1855.80  1860.23
                             1862.57  1882.75  1931.16  1941.42  2039.40
                             2064.82  2072.73  2085.53  2089.57  2103.09
                             2111.68  2118.83  2154.67  2157.00  2166.05
                             2169.12  2173.83  2189.10  2191.32  2200.98
                             2203.42  2210.85  2212.97  2219.85  2223.86
                             2357.09  2384.76  2479.01  2537.47  4257.19
                             4279.27  4371.87  4373.76  4376.36  4403.91
                             4418.74  4436.19  4445.55  4459.81  4468.03
                             4471.45  4495.12  4534.36  4535.59  4543.11
                             4552.74  4573.96  4595.94  4653.68  4967.60
                             4969.73  5090.28

 Zero-point correction=                           0.360970 (Hartree/Particle)
 Thermal correction to Energy=                    0.380537
 Thermal correction to Enthalpy=                  0.381481
 Thermal correction to Gibbs Free Energy=         0.313866
 Sum of electronic and zero-point Energies=           -786.524439
 Sum of electronic and thermal Energies=              -786.504873
 Sum of electronic and thermal Enthalpies=            -786.503928
 Sum of electronic and thermal Free Energies=         -786.571543

                     E (Thermal)             CV                S
                      KCal/Mol        Cal/Mol-Kelvin    Cal/Mol-Kelvin
 Total                  238.790             74.512            142.307
 Electronic               0.000              0.000              0.000
 Translational            0.889              2.981             42.440
 Rotational               0.889              2.981             33.039
 Vibrational            237.013             68.550             66.828
 Vibration     1          0.594              1.983              5.572
 Vibration     2          0.595              1.979              4.938
 Vibration     3          0.596              1.974              4.515
 Vibration     4          0.599              1.966              4.027
 Vibration     5          0.601              1.959              3.752
 Vibration     6          0.607              1.940              3.242
 Vibration     7          0.609              1.932              3.089
 Vibration     8          0.617              1.907              2.730
 Vibration     9          0.619              1.901              2.649
 Vibration    10          0.627              1.875              2.399
 Vibration    11          0.636              1.844              2.162
 Vibration    12          0.644              1.820              2.012
 Vibration    13          0.649              1.806              1.934
 Vibration    14          0.662              1.764              1.736
 Vibration    15          0.668              1.747              1.668
 Vibration    16          0.674              1.730              1.601
 Vibration    17          0.691              1.677              1.427
 Vibration    18          0.701              1.648              1.344
 Vibration    19          0.703              1.642              1.328
 Vibration    20          0.723              1.587              1.192
 Vibration    21          0.740              1.538              1.089
 Vibration    22          0.754              1.501              1.017
 Vibration    23          0.765              1.473              0.967
 Vibration    24          0.767              1.468              0.959
 Vibration    25          0.826              1.320              0.742
 Vibration    26          0.839              1.288              0.702
 Vibration    27          0.842              1.282              0.695
 Vibration    28          0.868              1.222              0.627
 Vibration    29          0.878              1.200              0.604
 Vibration    30          0.890              1.173              0.577
 Vibration    31          0.909              1.132              0.537
 Vibration    32          0.931              1.085              0.495
 Vibration    33          0.956              1.037              0.454

                           ! Non-Optimized Parameters !
 Normal termination of Gaussian 16 at Fri Dec 11 20:57:12 2020.

 ----------------------------------------------------------------------
 # B3LYP/6-311++G(d,p) empiricaldispersion=gd3bj scf=xqc pop=npa geom=c
 heck
 ----------------------------------------------------------------------

 ---------------------------------------
 CID_116850080_JID_8362_Energie_neutraal
 ---------------------------------------
 Structure from the checkpoint file:  "JID_8362.chk"
 Charge =  0 Multiplicity = 1

 SCF Done:  E(RB3LYP) =  -787.109361960     A.U. after   16 cycles
 Normal termination of Gaussian 16 at Fri Dec 11 21:06:50 2020.

 ----------------------------------------------------------------------
 # B3LYP/6-311++G(d,p) empiricaldispersion=gd3bj scf=xqc pop=npa geom=c
 heck
 ----------------------------------------------------------------------

 -------------------------------------
 CID_116850080_JID_8362_Energie_kation
 -------------------------------------
 Structure from the checkpoint file:  "JID_8362.chk"
 Charge =  1 Multiplicity = 2

 SCF Done:  E(UB3LYP) =  -786.816551043     A.U. after   33 cycles
 SCF Done:  E(UB3LYP) =  -786.816552254     a.u. after    3 cycles
 Normal termination of Gaussian 16 at Fri Dec 11 22:20:24 2020.
 Gaussian 16:  ES64L-G16RevA.03 25-Dec-2016

 ----------------------------------------------------------------------
 # B3LYP/6-311++G(d,p) empiricaldispersion=gd3bj scf=xqc pop=npa geom=c
 heck
 ----------------------------------------------------------------------

 ------------------------------------
 CID_116850080_JID_8362_Energie_anion
 ------------------------------------
 Structure from the checkpoint file:  "JID_8362.chk"
 Charge = -1 Multiplicity = 2

                         Standard orientation:
 ---------------------------------------------------------------------
 Center     Atomic      Atomic             Coordinates (Angstroms)
 Number     Number       Type             X           Y           Z
 ---------------------------------------------------------------------
      1          6           0        3.911108    0.118668   -1.463727
      2          6           0        2.636817   -0.353109   -0.800636
      3          6           0        2.272060    0.056357    0.495990
      4          6           0        1.073867   -0.409004    1.079290
      5          6           0        0.231550   -1.282999    0.362563
      6          6           0        0.608358   -1.682895   -0.920681
      7          6           0        1.789249   -1.222695   -1.491690
      8          6           0       -1.099651   -1.765812    0.932981
      9          6           0       -2.140238   -0.600692    0.924753
     10          6           0       -2.464762   -0.168099   -0.490118
     11          8           0       -3.004851   -0.916157   -1.304391
     12          7           0       -2.169484    1.120613   -0.852109
     13          7           0       -1.336063    1.978724   -0.122835
     14          6           0       -0.090219    2.215791   -0.851501
     15          6           0       -2.040275    3.217594    0.199203
     16          7           0       -1.578095   -2.974773    0.256142
     17          6           0        0.714888    0.076657    2.466342
     18          6           0        3.147189    1.015924    1.271831
     19          1           0        4.018339   -0.335734   -2.453142
     20          1           0        4.801621   -0.145920   -0.880846
     21          1           0        3.928794    1.207651   -1.598882
     22          1           0       -0.019942   -2.380249   -1.461403
     23          1           0        2.064128   -1.549611   -2.491610
     24          1           0       -0.944801   -2.038922    1.982356
     25          1           0       -3.072894   -0.969286    1.367758
     26          1           0       -1.783034    0.246926    1.508888
     27          1           0       -2.354849    1.340350   -1.832367
     28          1           0       -0.257930    2.777082   -1.789811
     29          1           0        0.587035    2.796484   -0.218068
     30          1           0        0.377891    1.260019   -1.082899
     31          1           0       -2.325367    3.792500   -0.700377
     32          1           0       -2.943898    2.979383    0.764865
     33          1           0       -1.387843    3.843022    0.816354
     34          1           0       -2.261277   -3.430391    0.858480
     35          1           0       -2.099683   -2.692424   -0.575279
     36          1           0       -0.042424   -0.545065    2.946372
     37          1           0        1.588036    0.089602    3.125840
     38          1           0        0.319447    1.101007    2.432573
     39          1           0        2.569341    1.866018    1.654330
     40          1           0        3.606900    0.532399    2.144231
     41          1           0        3.957052    1.418357    0.661786
 ---------------------------------------------------------------------

 SCF Done:  E(UB3LYP) =  -787.100505846     A.U. after   30 cycles

 The electronic state is 2-A.
 Alpha  occ. eigenvalues --  -18.99944 -14.26738 -14.25833 -14.19475 -10.18293
 Alpha  occ. eigenvalues --  -10.11700 -10.09731 -10.09462 -10.08436 -10.08429
 Alpha  occ. eigenvalues --  -10.08264 -10.08041 -10.07928 -10.07761 -10.07252
 Alpha  occ. eigenvalues --  -10.06933 -10.06875 -10.06717  -0.95625  -0.90362
 Alpha  occ. eigenvalues --   -0.80203  -0.76507  -0.74597  -0.69426  -0.68184
 Alpha  occ. eigenvalues --   -0.65662  -0.62195  -0.61960  -0.59616  -0.57522
 Alpha  occ. eigenvalues --   -0.55600  -0.54020  -0.48805  -0.48294  -0.45778
 Alpha  occ. eigenvalues --   -0.42874  -0.42288  -0.39777  -0.38663  -0.38482
 Alpha  occ. eigenvalues --   -0.37106  -0.35452  -0.34875  -0.34025  -0.33788
 Alpha  occ. eigenvalues --   -0.32866  -0.32406  -0.32002  -0.31667  -0.31018
 Alpha  occ. eigenvalues --   -0.30456  -0.30209  -0.30100  -0.29801  -0.29147
 Alpha  occ. eigenvalues --   -0.28450  -0.28132  -0.27338  -0.27204  -0.23942
 Alpha  occ. eigenvalues --   -0.23543  -0.23147  -0.17867  -0.17291  -0.15326
 Alpha  occ. eigenvalues --   -0.15143  -0.14182  -0.14051   0.03897
 Alpha virt. eigenvalues --    0.05944   0.06436   0.07052   0.08117   0.08347
 Alpha virt. eigenvalues --    0.08524   0.08804   0.08925   0.09133   0.09567
 Alpha virt. eigenvalues --    0.10030   0.10804   0.10942   0.11174   0.11615

  Beta  occ. eigenvalues --  -18.99936 -14.26730 -14.25824 -14.19469 -10.18279
  Beta  occ. eigenvalues --  -10.11692 -10.09681 -10.09433 -10.08432 -10.08425
  Beta  occ. eigenvalues --  -10.08263 -10.08027 -10.07926 -10.07740 -10.07247
  Beta  occ. eigenvalues --  -10.06933 -10.06842 -10.06688  -0.95605  -0.90344
  Beta  occ. eigenvalues --   -0.80188  -0.76493  -0.74570  -0.69406  -0.68165
  Beta  occ. eigenvalues --   -0.65632  -0.62135  -0.61919  -0.59583  -0.57478
  Beta  occ. eigenvalues --   -0.55534  -0.53986  -0.48771  -0.48264  -0.45754
  Beta  occ. eigenvalues --   -0.42838  -0.42255  -0.39759  -0.38635  -0.38429
  Beta  occ. eigenvalues --   -0.37074  -0.35420  -0.34841  -0.33992  -0.33760
  Beta  occ. eigenvalues --   -0.32839  -0.32377  -0.31981  -0.31634  -0.30987
  Beta  occ. eigenvalues --   -0.30420  -0.30176  -0.30064  -0.29768  -0.29123
  Beta  occ. eigenvalues --   -0.28411  -0.28107  -0.27307  -0.27168  -0.23919
  Beta  occ. eigenvalues --   -0.23526  -0.23129  -0.17852  -0.17260  -0.15293
  Beta  occ. eigenvalues --   -0.15111  -0.14158  -0.14025
  Beta virt. eigenvalues --    0.06026   0.06495   0.07142   0.07472   0.08320
  Beta virt. eigenvalues --    0.08518   0.08768   0.09134   0.09376   0.09393
  Beta virt. eigenvalues --    0.09901   0.10282   0.11075   0.11223   0.11497

 Mulliken charges and spin densities:
               1          2
     1  C    0.771277  -1.339040
     2  C   -0.197418   0.484195
     3  C   -1.410860   1.654633
     4  C   -0.599253   0.523714
     5  C    0.774696  -0.088865
     6  C   -0.714880   0.165029
     7  C   -0.874922   0.044153
     8  C    0.496871  -0.976216
     9  C   -0.198159   0.074313
    10  C   -0.224824   0.093022
    11  O   -0.307573   0.004613
    12  N   -0.436963   0.101620
    13  N    0.047930   0.157327
    14  C    0.027683  -0.558589
    15  C    0.989143  -1.327062
    16  N   -0.397951   0.062305
    17  C    0.486625  -1.051163
    18  C    1.444791  -1.888114
    19  H    0.024684   0.120636
    20  H   -0.020644   0.186431
    21  H   -0.062895   0.229832
    22  H    0.139091   0.035233
    23  H    0.064735   0.061228
    24  H    0.125911   0.105173
    25  H   -0.263881   0.483184
    26  H    0.178207   0.015051
    27  H    0.202323   0.053226
    28  H   -0.092966   0.229641
    29  H   -0.154285   0.312953
    30  H    0.478600  -0.184349
    31  H   -0.256088   0.381127
    32  H   -0.290835   0.446000
    33  H   -0.436414   0.606504
    34  H    0.207129   0.045538
    35  H    0.247470  -0.009704
    36  H   -0.317530   0.442624
    37  H   -0.019307   0.166243
    38  H    0.033747   0.177275
    39  H   -0.243009   0.410013
    40  H   -0.043647   0.222913
    41  H   -0.176610   0.327358
 Sum of Mulliken charges =  -1.00000   1.00000

 Dipole moment (field-independent basis, Debye):
    X=              0.4030    Y=             -4.1838    Z=             -2.5646  Tot=              4.9238
 Quadrupole moment (field-independent basis, Debye-Ang):
   XX=           -174.9904   YY=           -174.1298   ZZ=           -151.0750
   XY=             -0.7965   XZ=             -3.7728   YZ=             -6.5507

 Summary of Natural Population Analysis:

                                       Natural Population
                Natural  -----------------------------------------------
    Atom  No    Charge         Core      Valence    Rydberg      Total
 -----------------------------------------------------------------------
      C    1   -0.29476      0.99964     2.28938    0.00574     3.29476
      C    2   -0.02050      0.99946     2.01137    0.00967     3.02050
      C    3   -0.01535      0.99943     2.00544    0.01048     3.01535
      C    4   -0.00777      0.99944     1.99804    0.01029     3.00777
      C    5   -0.01980      0.99944     2.00881    0.01155     3.01980
      C    6   -0.09831      0.99950     2.09083    0.00797     3.09831
      C    7   -0.10265      0.99951     2.09509    0.00805     3.10265
      C    8   -0.01372      0.99956     2.00134    0.01282     3.01372
      C    9   -0.23893      0.99956     2.23035    0.00903     3.23893
      C   10    0.34812      0.99966     1.62891    0.02330     2.65188
      O   11   -0.33620      0.99987     3.33093    0.00540     4.33620
      N   12   -0.22500      0.99964     2.71354    0.01182     3.72500
      N   13   -0.18358      0.99973     2.66900    0.01485     3.68358
      C   14   -0.17959      0.99962     2.17134    0.00862     3.17959
      C   15   -0.17557      0.99963     2.16749    0.00845     3.17557
      N   16   -0.42657      0.99977     2.91744    0.00936     3.92657
      C   17   -0.29961      0.99963     2.29358    0.00640     3.29961
      C   18   -0.29789      0.99964     2.29234    0.00591     3.29789
      H   19    0.10018      0.00000     0.39903    0.00079     0.39982
      H   20    0.10366      0.00000     0.39547    0.00086     0.39634
      H   21    0.10458      0.00000     0.39440    0.00102     0.39542
      H   22    0.10763      0.00000     0.39101    0.00135     0.39237
      H   23    0.09534      0.00000     0.40356    0.00110     0.40466
      H   24    0.09836      0.00000     0.40006    0.00159     0.40164
      H   25    0.10956      0.00000     0.38916    0.00128     0.39044
      H   26    0.11778      0.00000     0.37996    0.00226     0.38222
      H   27    0.18156      0.00000     0.31612    0.00232     0.31844
      H   28    0.08041      0.00000     0.41832    0.00127     0.41959
      H   29    0.10141      0.00000     0.39696    0.00163     0.39859
      H   30    0.10717      0.00000     0.39041    0.00242     0.39283
      H   31    0.08270      0.00000     0.41552    0.00178     0.41730
      H   32    0.09980      0.00000     0.39872    0.00148     0.40020
      H   33    0.10199      0.00000     0.39581    0.00219     0.39801
      H   34    0.17318      0.00000     0.32541    0.00140     0.32682
      H   35    0.18739      0.00000     0.31068    0.00193     0.31261
      H   36    0.10181      0.00000     0.39690    0.00129     0.39819
      H   37    0.10496      0.00000     0.39407    0.00097     0.39504
      H   38    0.11120      0.00000     0.38692    0.00188     0.38880
      H   39    0.10809      0.00000     0.39050    0.00141     0.39191
      H   40    0.10456      0.00000     0.39442    0.00102     0.39544
      H   41    0.10434      0.00000     0.39457    0.00109     0.39566
 =======================================================================
   * Total *   -0.00000     17.99276    49.79319    0.21406    68.00000

 Normal termination of Gaussian 16 at Fri Dec 11 22:45:07 2020.
