 Gaussian 16, Revision A.03,

 -----------------------------------------------------------
 # opt freq B3LYP/6-31G(d) empiricaldispersion=gd3bj scf=xqc
 -----------------------------------------------------------

 -------------------------------
 CID_145710978_JID_3339_neutraal
 -------------------------------
 Symbolic Z-matrix:
 Charge =  0 Multiplicity = 1

 SCF Done:  E(RB3LYP) =  -987.419469767     A.U. after   15 cycles
 SCF Done:  E(RB3LYP) =  -987.425433313     A.U. after   12 cycles
 SCF Done:  E(RB3LYP) =  -987.426001081     A.U. after   12 cycles
 SCF Done:  E(RB3LYP) =  -987.426178044     A.U. after   11 cycles
 SCF Done:  E(RB3LYP) =  -987.426256924     A.U. after   11 cycles
 SCF Done:  E(RB3LYP) =  -987.426305850     A.U. after   11 cycles
 SCF Done:  E(RB3LYP) =  -987.426335802     A.U. after   11 cycles
 SCF Done:  E(RB3LYP) =  -987.426371431     A.U. after   10 cycles
 SCF Done:  E(RB3LYP) =  -987.426439113     A.U. after   12 cycles
 SCF Done:  E(RB3LYP) =  -987.426484202     A.U. after   10 cycles
 SCF Done:  E(RB3LYP) =  -987.426570021     A.U. after   10 cycles
 SCF Done:  E(RB3LYP) =  -987.426572453     A.U. after   10 cycles
 SCF Done:  E(RB3LYP) =  -987.426572950     A.U. after    8 cycles
 SCF Done:  E(RB3LYP) =  -987.426573036     A.U. after    7 cycles
 Optimization completed.
    -- Stationary point found.
 Normal termination of Gaussian 16 at Wed Dec  9 22:59:33 2020.

 --------------------------------------------------------------------
 #N Geom=AllCheck Guess=TCheck SCRF=Check GenChk RB3LYP/6-31G(d) Freq
 --------------------------------------------------------------------

 Structure from the checkpoint file:  "JID_3339.chk"
 -------------------------------
 CID_145710978_JID_3339_neutraal
 -------------------------------
 Charge =  0 Multiplicity = 1

 SCF Done:  E(RB3LYP) =  -987.426573036     A.U. after    1 cycles

  Exact polarizability: 128.234  -2.244 119.082  -7.741   4.006  85.606
 Approx polarizability: 178.917   1.148 185.947 -16.481   8.576 141.341

                      1                      2                      3
                      A                      A                      A
 Frequencies --     30.4314                51.6522                73.7688
 Red. masses --      5.1357                 2.9440                 4.0440
 Frc consts  --      0.0028                 0.0046                 0.0130
 IR Inten    --      4.5354                 1.1959                 0.6489

                      4                      5                      6
                      A                      A                      A
 Frequencies --     90.3484               128.1215               175.3939
 Red. masses --      3.9065                 4.5382                 3.9711
 Frc consts  --      0.0188                 0.0439                 0.0720
 IR Inten    --      1.9291                 2.2193                 6.2362

                      7                      8                      9
                      A                      A                      A
 Frequencies --    213.6516               231.0605               246.4321
 Red. masses --      1.5780                 1.0935                 2.1409
 Frc consts  --      0.0424                 0.0344                 0.0766
 IR Inten    --     29.2658                 0.3655                 2.5161

                     10                     11                     12
                      A                      A                      A
 Frequencies --    264.1672               279.4527               310.6396
 Red. masses --      1.4504                 3.2536                 3.3920
 Frc consts  --      0.0596                 0.1497                 0.1928
 IR Inten    --      0.0228                 4.3552                 1.7152

                     13                     14                     15
                      A                      A                      A
 Frequencies --    345.4840               360.4993               404.0821
 Red. masses --      3.7913                 3.1453                 3.0764
 Frc consts  --      0.2666                 0.2408                 0.2960
 IR Inten    --      5.4461                 4.0521                 0.9337

                     16                     17                     18
                      A                      A                      A
 Frequencies --    419.5772               433.9540               447.5740
 Red. masses --      2.2677                 3.6747                 3.6919
 Frc consts  --      0.2352                 0.4077                 0.4357
 IR Inten    --      1.1331                 8.7908                 5.8470

                     19                     20                     21
                      A                      A                      A
 Frequencies --    517.0008               578.5619               654.5648
 Red. masses --      6.5509                 4.8820                 4.5952
 Frc consts  --      1.0317                 0.9628                 1.1600
 IR Inten    --      6.8747               151.0007                 3.6383

                     22                     23                     24
                      A                      A                      A
 Frequencies --    673.8020               676.0832               774.7607
 Red. masses --      7.1278                 2.7937                 4.2399
 Frc consts  --      1.9066                 0.7524                 1.4995
 IR Inten    --     21.1827               196.3920                 8.4556

                     25                     26                     27
                      A                      A                      A
 Frequencies --    803.9619               828.5734               880.3917
 Red. masses --      1.2361                 2.6607                 2.3071
 Frc consts  --      0.4707                 1.0762                 1.0536
 IR Inten    --     29.7658                 4.3165               124.1465

                     28                     29                     30
                      A                      A                      A
 Frequencies --    884.4841               911.2174               947.7784
 Red. masses --      1.3029                 1.4125                 1.1952
 Frc consts  --      0.6005                 0.6910                 0.6325
 IR Inten    --      1.6592                 6.6933                 4.6246

                     31                     32                     33
                      A                      A                      A
 Frequencies --    951.3173               968.4843               984.6335
 Red. masses --      4.7577                 2.0218                 1.4663
 Frc consts  --      2.5369                 1.1173                 0.8376
 IR Inten    --     17.7373                 3.5425                 0.0328

                     34                     35                     36
                      A                      A                      A
 Frequencies --   1050.4804              1088.5862              1108.9382
 Red. masses --      1.6910                 2.3105                 1.5381
 Frc consts  --      1.0995                 1.6132                 1.1144
 IR Inten    --      8.8146                29.3202                20.7843

                     37                     38                     39
                      A                      A                      A
 Frequencies --   1125.5053              1158.4073              1175.6966
 Red. masses --      3.2155                 2.2561                 3.0958
 Frc consts  --      2.3999                 1.7837                 2.5212
 IR Inten    --     93.5741                 1.1508                39.7603

                     40                     41                     42
                      A                      A                      A
 Frequencies --   1209.8472              1227.2427              1262.5651
 Red. masses --      1.7615                 1.7315                 2.0301
 Frc consts  --      1.5191                 1.5365                 1.9066
 IR Inten    --      5.1561                16.3996                 6.1193

                     43                     44                     45
                      A                      A                      A
 Frequencies --   1332.3724              1338.3384              1346.5656
 Red. masses --      4.8893                 4.0574                 1.5623
 Frc consts  --      5.1138                 4.2818                 1.6690
 IR Inten    --    129.7555                93.6329                 8.5257

                     46                     47                     48
                      A                      A                      A
 Frequencies --   1354.7138              1394.9051              1415.2291
 Red. masses --      2.4205                 1.4118                 1.4233
 Frc consts  --      2.6173                 1.6185                 1.6796
 IR Inten    --      7.0593                 9.0858                 3.0572

                     49                     50                     51
                      A                      A                      A
 Frequencies --   1433.7756              1450.8654              1456.5665
 Red. masses --      1.2694                 2.8774                 1.3458
 Frc consts  --      1.5375                 3.5686                 1.6822
 IR Inten    --      2.3824                14.5257                10.3401

                     52                     53                     54
                      A                      A                      A
 Frequencies --   1479.5955              1515.7705              1522.8462
 Red. masses --      4.2526                 1.0569                 1.0651
 Frc consts  --      5.4851                 1.4307                 1.4553
 IR Inten    --     15.1826                 2.1117                 1.8369

                     55                     56                     57
                      A                      A                      A
 Frequencies --   1529.4177              1535.9875              1541.5822
 Red. masses --      1.1166                 1.0655                 1.0651
 Frc consts  --      1.5389                 1.4811                 1.4913
 IR Inten    --      1.5494                 5.2335                18.8372

                     58                     59                     60
                      A                      A                      A
 Frequencies --   1546.8841              1620.5485              3042.2440
 Red. masses --      3.6506                 1.1068                 1.0368
 Frc consts  --      5.1467                 1.7126                 5.6538
 IR Inten    --      7.3270                39.1324                26.2534

                     61                     62                     63
                      A                      A                      A
 Frequencies --   3053.7704              3055.9885              3093.3640
 Red. masses --      1.0800                 1.0392                 1.0640
 Frc consts  --      5.9342                 5.7183                 5.9988
 IR Inten    --      7.3086                15.3965                18.6880

                     64                     65                     66
                      A                      A                      A
 Frequencies --   3106.4391              3118.4201              3123.5013
 Red. masses --      1.1015                 1.1020                 1.1017
 Frc consts  --      6.2625                 6.3142                 6.3330
 IR Inten    --     32.4262                 8.1558                57.0487

                     67                     68                     69
                      A                      A                      A
 Frequencies --   3131.3653              3158.7071              3266.4697
 Red. masses --      1.1020                 1.1023                 1.0952
 Frc consts  --      6.3663                 6.4799                 6.8847
 IR Inten    --     21.9381                 4.3395                 6.1694

                     70                     71                     72
                      A                      A                      A
 Frequencies --   3311.6834              3499.6980              3611.9706
 Red. masses --      1.0994                 1.0465                 1.0987
 Frc consts  --      7.1039                 7.5521                 8.4456
 IR Inten    --      0.7662                48.7560                44.0225

 - Thermochemistry -
 -------------------
 Temperature   298.150 Kelvin.  Pressure   1.00000 Atm.
 Atom     1 has atomic number  6 and mass  12.00000

 Molecular mass:   203.07285 amu.
 Principal axes and moments of inertia in atomic units:
                           1         2         3
     Eigenvalues --  1808.366833052.103374028.06799
           X            0.99860  -0.05297  -0.00067
           Y            0.05297   0.99858   0.00470
           Z            0.00042  -0.00473   0.99999
 This molecule is an asymmetric top.
 Rotational symmetry number  1.
 Warning -- assumption of classical behavior for rotation
           may cause significant error
 Rotational temperatures (Kelvin)      0.04790     0.02838     0.02150
 Rotational constants (GHZ):           0.99800     0.59131     0.44804
 Zero-point vibrational energy     558289.8 (Joules/Mol)
                                  133.43446 (Kcal/Mol)
 Warning -- explicit consideration of  20 degrees of freedom as
           vibrations may cause significant error
 Vibrational temperatures:     43.78    74.32   106.14   129.99   184.34
          (Kelvin)            252.35   307.40   332.44   354.56   380.08
                              402.07   446.94   497.07   518.68   581.38
                              603.68   624.36   643.96   743.85   832.42
                              941.77   969.45   972.73  1114.71  1156.72
                             1192.13  1266.69  1272.58  1311.04  1363.64
                             1368.73  1393.43  1416.67  1511.41  1566.23
                             1595.51  1619.35  1666.69  1691.57  1740.70
                             1765.73  1816.55  1916.99  1925.57  1937.41
                             1949.13  2006.96  2036.20  2062.88  2087.47
                             2095.67  2128.81  2180.86  2191.04  2200.49
                             2209.94  2217.99  2225.62  2331.61  4377.11
                             4393.69  4396.89  4450.66  4469.47  4486.71
                             4494.02  4505.34  4544.68  4699.72  4764.77
                             5035.28  5196.82

 Zero-point correction=                           0.212641 (Hartree/Particle)
 Thermal correction to Energy=                    0.226349
 Thermal correction to Enthalpy=                  0.227293
 Thermal correction to Gibbs Free Energy=         0.171597
 Sum of electronic and zero-point Energies=           -987.213932
 Sum of electronic and thermal Energies=              -987.200224
 Sum of electronic and thermal Enthalpies=            -987.199280
 Sum of electronic and thermal Free Energies=         -987.254976

                     E (Thermal)             CV                S
                      KCal/Mol        Cal/Mol-Kelvin    Cal/Mol-Kelvin
 Total                  142.036             50.717            117.222
 Electronic               0.000              0.000              0.000
 Translational            0.889              2.981             41.830
 Rotational               0.889              2.981             31.475
 Vibrational            140.258             44.755             43.917
 Vibration     1          0.594              1.984              5.801
 Vibration     2          0.596              1.977              4.753
 Vibration     3          0.599              1.966              4.050
 Vibration     4          0.602              1.956              3.653
 Vibration     5          0.611              1.925              2.974
 Vibration     6          0.627              1.873              2.377
 Vibration     7          0.644              1.820              2.012
 Vibration     8          0.653              1.794              1.871
 Vibration     9          0.661              1.769              1.756
 Vibration    10          0.671              1.739              1.634
 Vibration    11          0.680              1.712              1.537
 Vibration    12          0.699              1.653              1.359
 Vibration    13          0.724              1.584              1.187
 Vibration    14          0.735              1.554              1.120
 Vibration    15          0.769              1.461              0.948
 Vibration    16          0.782              1.428              0.893
 Vibration    17          0.795              1.396              0.846
 Vibration    18          0.807              1.366              0.803
 Vibration    19          0.872              1.212              0.617
 Vibration    20          0.935              1.078              0.488

 Optimization completed.
    -- Stationary point found.
 Normal termination of Gaussian 16 at Wed Dec  9 23:06:03 2020.

 ----------------------------------------------------------------------
 # B3LYP/6-311++G(d,p) empiricaldispersion=gd3bj scf=xqc pop=npa geom=c
 heck
 ----------------------------------------------------------------------

 ---------------------------------------
 CID_145710978_JID_3339_Energie_neutraal
 ---------------------------------------
 Structure from the checkpoint file:  "JID_3339.chk"
 Charge =  0 Multiplicity = 1

 SCF Done:  E(RB3LYP) =  -987.624924247     A.U. after   16 cycles
 Normal termination of Gaussian 16 at Wed Dec  9 23:08:40 2020.

 ----------------------------------------------------------------------
 # B3LYP/6-311++G(d,p) empiricaldispersion=gd3bj scf=xqc pop=npa geom=c
 heck
 ----------------------------------------------------------------------

 -------------------------------------
 CID_145710978_JID_3339_Energie_kation
 -------------------------------------
 Structure from the checkpoint file:  "JID_3339.chk"
 Charge =  1 Multiplicity = 2

 SCF Done:  E(UB3LYP) =  -987.282893550     A.U. after   33 cycles
 SCF Done:  E(UB3LYP) =  -987.282893553     a.u. after    2 cycles
 Normal termination of Gaussian 16 at Wed Dec  9 23:21:11 2020.
 Gaussian 16:  ES64L-G16RevA.03 25-Dec-2016

 ----------------------------------------------------------------------
 # B3LYP/6-311++G(d,p) empiricaldispersion=gd3bj scf=xqc pop=npa geom=c
 heck
 ----------------------------------------------------------------------

 ------------------------------------
 CID_145710978_JID_3339_Energie_anion
 ------------------------------------
 Structure from the checkpoint file:  "JID_3339.chk"
 Charge = -1 Multiplicity = 2

                         Standard orientation:
 ---------------------------------------------------------------------
 Center     Atomic      Atomic             Coordinates (Angstroms)
 Number     Number       Type             X           Y           Z
 ---------------------------------------------------------------------
      1          6           0        2.055151   -0.662893    1.491280
      2          6           0        2.615757   -0.181989    0.149593
      3          6           0        3.653834   -1.159426   -0.412847
      4          6           0        1.507385    0.020006   -0.894270
      5          7           0        0.480990    0.959594   -0.444919
      6          6           0       -0.806529    0.728375   -0.053359
      7          6           0       -1.337789    1.934736    0.375044
      8          6           0       -0.282599    2.848041    0.198437
      9          7           0        0.810042    2.254755   -0.291461
     10         16           0       -1.551223   -0.875141   -0.065053
     11          8           0       -1.307825   -1.471702   -1.383335
     12          8           0       -1.200086   -1.602730    1.156490
     13          7           0       -3.178795   -0.454629    0.083093
     14          1           0        1.517282   -1.611135    1.382685
     15          1           0        1.356915    0.063738    1.918354
     16          1           0        2.867299   -0.810755    2.211634
     17          1           0        3.093977    0.794226    0.299963
     18          1           0        3.210816   -2.150067   -0.575174
     19          1           0        4.061602   -0.811055   -1.369201
     20          1           0        4.489194   -1.279169    0.285060
     21          1           0        1.923757    0.424497   -1.821212
     22          1           0        1.008763   -0.921408   -1.131365
     23          1           0       -2.339543    2.102623    0.735879
     24          1           0       -0.270852    3.911164    0.396849
     25          1           0       -3.648764   -0.540725   -0.815765
     26          1           0       -3.604521   -1.053357    0.787633
 ---------------------------------------------------------------------

 SCF Done:  E(UB3LYP) =  -987.615337002     A.U. after   33 cycles
 SCF Done:  E(UB3LYP) =  -987.615337002     a.u. after    1 cycles

 The electronic state is 2-A.
 Alpha  occ. eigenvalues --  -88.97148 -19.01916 -19.01853 -14.30088 -14.23780
 Alpha  occ. eigenvalues --  -14.23427 -10.13221 -10.11655 -10.09953 -10.08763
 Alpha  occ. eigenvalues --  -10.07949 -10.07380 -10.06162  -8.03241  -5.99523
 Alpha  occ. eigenvalues --   -5.99464  -5.99381  -1.02378  -0.96376  -0.91203
 Alpha  occ. eigenvalues --   -0.80777  -0.76123  -0.71654  -0.69449  -0.60342
 Alpha  occ. eigenvalues --   -0.59587  -0.58353  -0.51988  -0.49154  -0.46180
 Alpha  occ. eigenvalues --   -0.44392  -0.42388  -0.40692  -0.39143  -0.37250
 Alpha  occ. eigenvalues --   -0.36957  -0.35322  -0.34730  -0.33635  -0.32281
 Alpha  occ. eigenvalues --   -0.30599  -0.29915  -0.29120  -0.26263  -0.25666
 Alpha  occ. eigenvalues --   -0.24927  -0.24099  -0.23502  -0.23315  -0.21459
 Alpha  occ. eigenvalues --   -0.20298  -0.19177  -0.16502  -0.16158   0.04498
 Alpha virt. eigenvalues --    0.06094   0.07069   0.07665   0.08454   0.09475
 Alpha virt. eigenvalues --    0.09956   0.10283   0.10520   0.11568   0.12025
 Alpha virt. eigenvalues --    0.12807   0.13148   0.13667   0.13745   0.14903

  Beta  occ. eigenvalues --  -88.97136 -19.01891 -19.01814 -14.30013 -14.23701
  Beta  occ. eigenvalues --  -14.23305 -10.13165 -10.11650 -10.09956 -10.08758
  Beta  occ. eigenvalues --  -10.07927 -10.07359 -10.06154  -8.03228  -5.99506
  Beta  occ. eigenvalues --   -5.99445  -5.99374  -1.02309  -0.96252  -0.91135
  Beta  occ. eigenvalues --   -0.80569  -0.76045  -0.71543  -0.69391  -0.60290
  Beta  occ. eigenvalues --   -0.59555  -0.58207  -0.51937  -0.49091  -0.46094
  Beta  occ. eigenvalues --   -0.44312  -0.42237  -0.40625  -0.39007  -0.37173
  Beta  occ. eigenvalues --   -0.36894  -0.35262  -0.34685  -0.33592  -0.32152
  Beta  occ. eigenvalues --   -0.30567  -0.29893  -0.29096  -0.26184  -0.25621
  Beta  occ. eigenvalues --   -0.24896  -0.24065  -0.23407  -0.23219  -0.21377
  Beta  occ. eigenvalues --   -0.20193  -0.19047  -0.16255  -0.15852
  Beta virt. eigenvalues --    0.06392   0.07518   0.07669   0.08572   0.08751
  Beta virt. eigenvalues --    0.09575   0.10096   0.10992   0.11202   0.12098
  Beta virt. eigenvalues --    0.12385   0.12859   0.13178   0.13572   0.13755

 Mulliken charges and spin densities:
               1          2
     1  C   -0.238408  -0.484657
     2  C   -0.654774   1.290608
     3  C   -0.011209  -0.653915
     4  C    0.234825  -0.972011
     5  N    0.478749   0.128958
     6  C   -2.595218   0.950820
     7  C    0.805296  -0.018457
     8  C   -0.175692  -0.210550
     9  N   -0.244059   0.028419
    10  S    3.165176  -2.530966
    11  O   -0.092684  -0.040757
    12  O   -0.162761   0.015778
    13  N   -0.353486  -0.099002
    14  H    0.144709   0.040275
    15  H    0.092153   0.056098
    16  H    0.095168   0.037424
    17  H    0.163363   0.030525
    18  H    0.068538   0.069340
    19  H   -0.122241   0.254913
    20  H   -0.154452   0.289937
    21  H   -0.002409   0.203390
    22  H    0.176451   0.007726
    23  H   -0.482736   0.725807
    24  H   -0.129619   0.282419
    25  H   -0.556354   0.854341
    26  H   -0.448328   0.743536
 Sum of Mulliken charges =  -1.00000   1.00000

 Dipole moment (field-independent basis, Debye):
    X=              6.6386    Y=              1.4494    Z=              0.3845  Tot=              6.8059
 Quadrupole moment (field-independent basis, Debye-Ang):
   XX=           -162.9665   YY=           -119.3918   ZZ=           -114.1445
   XY=             -5.8511   XZ=              4.0612   YZ=              0.1760

 Summary of Natural Population Analysis:

                                       Natural Population
                Natural  -----------------------------------------------
    Atom  No    Charge         Core      Valence    Rydberg      Total
 -----------------------------------------------------------------------
      C    1   -0.28953      0.99965     2.28474    0.00514     3.28953
      C    2   -0.12026      0.99961     2.11104    0.00961     3.12026
      C    3   -0.28309      0.99965     2.27881    0.00462     3.28309
      C    4   -0.08647      0.99958     2.07453    0.01237     3.08647
      N    5   -0.09666      0.99961     2.58243    0.01462     3.59666
      C    6   -0.04059      0.99937     2.02306    0.01816     3.04059
      C    7   -0.14310      0.99949     2.13390    0.00971     3.14310
      C    8   -0.01947      0.99963     2.00583    0.01400     3.01947
      N    9   -0.13612      0.99973     2.62489    0.01149     3.63612
      S   10    1.09698      4.99922     1.80115    0.10265     6.90302
      O   11   -0.45990      0.99991     3.45429    0.00571     4.45990
      O   12   -0.45746      0.99990     3.45178    0.00577     4.45746
      N   13   -0.51286      0.99979     3.00111    0.01196     4.01286
      H   14    0.10570      0.00000     0.39326    0.00103     0.39430
      H   15    0.10550      0.00000     0.39360    0.00090     0.39450
      H   16    0.09593      0.00000     0.40332    0.00074     0.40407
      H   17    0.09902      0.00000     0.39896    0.00202     0.40098
      H   18    0.09777      0.00000     0.40120    0.00103     0.40223
      H   19    0.09940      0.00000     0.39951    0.00109     0.40060
      H   20    0.09925      0.00000     0.39986    0.00089     0.40075
      H   21    0.10569      0.00000     0.39307    0.00125     0.39431
      H   22    0.11234      0.00000     0.38619    0.00147     0.38766
      H   23    0.12193      0.00000     0.37675    0.00131     0.37807
      H   24    0.09793      0.00000     0.40122    0.00086     0.40207
      H   25    0.20225      0.00000     0.28736    0.01039     0.29775
      H   26    0.20580      0.00000     0.27974    0.01446     0.29420
 =======================================================================
   * Total *   -0.00000     16.99514    36.74160    0.26326    54.00000

 Normal termination of Gaussian 16 at Wed Dec  9 23:28:30 2020.
