 Gaussian 16, Revision A.03,

 -----------------------------------------------------------
 # opt freq B3LYP/6-31G(d) empiricaldispersion=gd3bj scf=xqc
 -----------------------------------------------------------

 ------------------------------
 CID_60960351_JID_9243_neutraal
 ------------------------------
 Symbolic Z-matrix:
 Charge =  0 Multiplicity = 1

 SCF Done:  E(RB3LYP) =  -1202.48680911     A.U. after   15 cycles
 SCF Done:  E(RB3LYP) =  -1202.49247875     A.U. after   12 cycles
 SCF Done:  E(RB3LYP) =  -1202.49319090     A.U. after   12 cycles
 SCF Done:  E(RB3LYP) =  -1202.49340866     A.U. after   11 cycles
 SCF Done:  E(RB3LYP) =  -1202.49362539     A.U. after   11 cycles
 SCF Done:  E(RB3LYP) =  -1202.49391906     A.U. after   13 cycles
 SCF Done:  E(RB3LYP) =  -1202.49407256     A.U. after   12 cycles
 SCF Done:  E(RB3LYP) =  -1202.49414033     A.U. after   12 cycles
 SCF Done:  E(RB3LYP) =  -1202.49429345     A.U. after   13 cycles
 SCF Done:  E(RB3LYP) =  -1202.49533531     A.U. after   12 cycles
 SCF Done:  E(RB3LYP) =  -1202.49920854     A.U. after   10 cycles
 SCF Done:  E(RB3LYP) =  -1202.49921166     A.U. after    9 cycles
 SCF Done:  E(RB3LYP) =  -1202.49921263     A.U. after    8 cycles
 SCF Done:  E(RB3LYP) =  -1202.49921283     A.U. after    8 cycles
 SCF Done:  E(RB3LYP) =  -1202.49921286     A.U. after    6 cycles
 Optimization completed.
    -- Stationary point found.
 Normal termination of Gaussian 16 at Mon Dec 14 17:02:26 2020.

 --------------------------------------------------------------------
 #N Geom=AllCheck Guess=TCheck SCRF=Check GenChk RB3LYP/6-31G(d) Freq
 --------------------------------------------------------------------

 Structure from the checkpoint file:  "JID_9243.chk"
 ------------------------------
 CID_60960351_JID_9243_neutraal
 ------------------------------
 Charge =  0 Multiplicity = 1

 SCF Done:  E(RB3LYP) =  -1202.49921286     A.U. after    1 cycles

  Exact polarizability: 233.408  -1.701 198.496 -15.260  -3.389 107.336
 Approx polarizability: 333.965 -14.741 319.162 -30.325  -9.371 171.819

                      1                      2                      3
                      A                      A                      A
 Frequencies --     16.9467                27.4393                38.6235
 Red. masses --      5.3911                 6.5447                 5.6421
 Frc consts  --      0.0009                 0.0029                 0.0050
 IR Inten    --      0.1206                 0.2804                 0.5818

                      4                      5                      6
                      A                      A                      A
 Frequencies --     54.3777                58.2613                85.6806
 Red. masses --      3.6390                 4.2244                 4.5037
 Frc consts  --      0.0063                 0.0084                 0.0195
 IR Inten    --      0.5713                 1.0140                 0.9447

                      7                      8                      9
                      A                      A                      A
 Frequencies --     87.5407               108.7719               149.3102
 Red. masses --      2.3581                 2.8108                 2.2031
 Frc consts  --      0.0106                 0.0196                 0.0289
 IR Inten    --      2.5191                 0.1218                 0.7551

                     10                     11                     12
                      A                      A                      A
 Frequencies --    168.7869               185.0873               206.5192
 Red. masses --      1.6992                 1.6886                 3.6827
 Frc consts  --      0.0285                 0.0341                 0.0925
 IR Inten    --      1.6281                 0.4847                 2.0170

                     13                     14                     15
                      A                      A                      A
 Frequencies --    218.0012               234.6466               254.7031
 Red. masses --      3.6375                 2.0518                 2.5984
 Frc consts  --      0.1019                 0.0666                 0.0993
 IR Inten    --      3.7473                 0.2086                 6.9773

                     16                     17                     18
                      A                      A                      A
 Frequencies --    275.7259               288.3035               324.6551
 Red. masses --      5.0122                 2.4714                 3.3126
 Frc consts  --      0.2245                 0.1210                 0.2057
 IR Inten    --      2.0272                 4.6672                 0.5586

                     19                     20                     21
                      A                      A                      A
 Frequencies --    357.3233               397.4324               430.3988
 Red. masses --      2.5850                 4.7113                 3.4186
 Frc consts  --      0.1945                 0.4384                 0.3731
 IR Inten    --      1.3646                 7.3850                 5.2044

                     22                     23                     24
                      A                      A                      A
 Frequencies --    454.6368               493.0757               500.2275
 Red. masses --      3.9243                 4.5031                 4.2208
 Frc consts  --      0.4779                 0.6450                 0.6223
 IR Inten    --      3.9279                 1.4115                 2.3089

                     25                     26                     27
                      A                      A                      A
 Frequencies --    522.7989               565.7564               572.3062
 Red. masses --      4.2458                 5.9017                 4.1856
 Frc consts  --      0.6837                 1.1130                 0.8077
 IR Inten    --      0.5481                 5.1542                 5.0415

                     28                     29                     30
                      A                      A                      A
 Frequencies --    582.2106               613.0903               658.4180
 Red. masses --      5.6430                 4.1167                 4.0026
 Frc consts  --      1.1270                 0.9117                 1.0224
 IR Inten    --      0.4944                12.4440                 4.9527

                     31                     32                     33
                      A                      A                      A
 Frequencies --    715.9150               730.1431               737.8596
 Red. masses --      3.3201                 1.4577                 2.6789
 Frc consts  --      1.0026                 0.4579                 0.8593
 IR Inten    --     30.7241                21.3418                 3.6195

                     34                     35                     36
                      A                      A                      A
 Frequencies --    757.8809               762.8740               790.6951
 Red. masses --      5.7500                 4.1284                 3.6251
 Frc consts  --      1.9459                 1.4156                 1.3353
 IR Inten    --      2.0128                13.7512                19.9271

                     37                     38                     39
                      A                      A                      A
 Frequencies --    812.3126               830.2604               841.4252
 Red. masses --      2.3782                 1.2134                 1.4693
 Frc consts  --      0.9246                 0.4928                 0.6129
 IR Inten    --    127.0261                 1.8754                15.8154

                     40                     41                     42
                      A                      A                      A
 Frequencies --    886.4706               890.4376               894.3162
 Red. masses --      3.5967                 1.5398                 1.4188
 Frc consts  --      1.6653                 0.7193                 0.6686
 IR Inten    --      6.5133                 2.6615                10.4956

                     43                     44                     45
                      A                      A                      A
 Frequencies --    903.8676               932.1282               941.3257
 Red. masses --      2.1760                 2.0740                 1.3307
 Frc consts  --      1.0474                 1.0617                 0.6947
 IR Inten    --      3.7344                 3.7580                 2.9868

                     46                     47                     48
                      A                      A                      A
 Frequencies --    982.0685              1026.7456              1052.9464
 Red. masses --      2.6805                 1.8704                 7.7367
 Frc consts  --      1.5232                 1.1617                 5.0538
 IR Inten    --      9.5169                 6.0548                70.9849

                     49                     50                     51
                      A                      A                      A
 Frequencies --   1063.7958              1076.9984              1093.6239
 Red. masses --      3.4469                 3.8123                 1.4025
 Frc consts  --      2.2982                 2.6054                 0.9883
 IR Inten    --     54.2395                41.6737                 0.2019

                     52                     53                     54
                      A                      A                      A
 Frequencies --   1121.1510              1126.4822              1153.1430
 Red. masses --      2.7788                 2.0532                 1.4788
 Frc consts  --      2.0579                 1.5351                 1.1586
 IR Inten    --     74.9431                36.9886                22.5660

                     55                     56                     57
                      A                      A                      A
 Frequencies --   1167.3333              1186.3630              1194.7639
 Red. masses --      3.5004                 1.2583                 2.1210
 Frc consts  --      2.8104                 1.0434                 1.7838
 IR Inten    --     26.1314                 4.0148                83.7788

                     58                     59                     60
                      A                      A                      A
 Frequencies --   1214.0732              1214.7681              1224.2275
 Red. masses --      2.0856                 1.7082                 1.5123
 Frc consts  --      1.8112                 1.4852                 1.3354
 IR Inten    --     16.7755                12.6656                24.4531

                     61                     62                     63
                      A                      A                      A
 Frequencies --   1243.9506              1268.1016              1296.8153
 Red. masses --      1.1751                 2.4865                 1.1962
 Frc consts  --      1.0713                 2.3559                 1.1853
 IR Inten    --      0.7658                82.6721                 5.2330

                     64                     65                     66
                      A                      A                      A
 Frequencies --   1310.2497              1322.7361              1338.0416
 Red. masses --      2.2759                 1.8056                 1.3284
 Frc consts  --      2.3021                 1.8613                 1.4012
 IR Inten    --    134.6825                83.7723                30.1144

                     67                     68                     69
                      A                      A                      A
 Frequencies --   1351.6637              1374.3488              1377.5925
 Red. masses --      1.8857                 3.3170                 1.4724
 Frc consts  --      2.0299                 3.6914                 1.6463
 IR Inten    --      1.6956                38.0496                16.6025

                     70                     71                     72
                      A                      A                      A
 Frequencies --   1413.2105              1421.6892              1443.9993
 Red. masses --      1.3536                 1.3460                 1.2904
 Frc consts  --      1.5928                 1.6029                 1.5853
 IR Inten    --     14.2492                 5.4689                26.3357

                     73                     74                     75
                      A                      A                      A
 Frequencies --   1471.6509              1488.9409              1495.8951
 Red. masses --      2.3957                 1.6982                 1.3396
 Frc consts  --      3.0569                 2.2181                 1.7661
 IR Inten    --     21.7458                15.0336                28.3559

                     76                     77                     78
                      A                      A                      A
 Frequencies --   1506.4181              1514.5902              1518.8110
 Red. masses --      2.0245                 1.0560                 1.0524
 Frc consts  --      2.7068                 1.4273                 1.4303
 IR Inten    --      0.5859                 2.6662                 2.9019

                     79                     80                     81
                      A                      A                      A
 Frequencies --   1528.2683              1530.4463              1542.9104
 Red. masses --      1.1550                 1.0640                 1.0504
 Frc consts  --      1.5895                 1.4684                 1.4733
 IR Inten    --     72.3636                 6.6366                 5.9901

                     82                     83                     84
                      A                      A                      A
 Frequencies --   1545.7194              1547.3302              1564.0989
 Red. masses --      1.1014                 1.1411                 3.0753
 Frc consts  --      1.5505                 1.6097                 4.4327
 IR Inten    --      7.9043                 1.3923               171.4747

                     85                     86                     87
                      A                      A                      A
 Frequencies --   1568.5786              1643.0896              1665.8658
 Red. masses --      4.4057                 7.0038                 5.7219
 Frc consts  --      6.3867                11.1406                 9.3556
 IR Inten    --      3.8487                12.4451                14.0193

                     88                     89                     90
                      A                      A                      A
 Frequencies --   2985.6812              3032.5046              3042.7061
 Red. masses --      1.0702                 1.0400                 1.0637
 Frc consts  --      5.6207                 5.6351                 5.8020
 IR Inten    --     41.2188                72.9712                30.1082

                     91                     92                     93
                      A                      A                      A
 Frequencies --   3047.2536              3056.7522              3060.7881
 Red. masses --      1.0664                 1.0391                 1.0919
 Frc consts  --      5.8345                 5.7203                 6.0267
 IR Inten    --     35.4302                19.0461                43.6152

                     94                     95                     96
                      A                      A                      A
 Frequencies --   3088.6622              3111.5272              3113.2392
 Red. masses --      1.1003                 1.0990                 1.0943
 Frc consts  --      6.1846                 6.2691                 6.2493
 IR Inten    --     12.8963                20.1417                42.1555

                     97                     98                     99
                      A                      A                      A
 Frequencies --   3121.7475              3152.4884              3154.0202
 Red. masses --      1.0994                 1.1056                 1.1022
 Frc consts  --      6.3127                 6.4740                 6.4602
 IR Inten    --     33.7550                31.5295                24.6049

                    100                    101                    102
                      A                      A                      A
 Frequencies --   3193.6195              3213.7417              3232.1927
 Red. masses --      1.0882                 1.0939                 1.0894
 Frc consts  --      6.5394                 6.6567                 6.7053
 IR Inten    --     10.3986                14.0225                 3.5541

                    103                    104                    105
                      A                      A                      A
 Frequencies --   3233.8564              3282.2762              3514.1613
 Red. masses --      1.0912                 1.0981                 1.0738
 Frc consts  --      6.7236                 6.9702                 7.8130
 IR Inten    --      7.8057                 1.3666                 2.3300

 - Thermochemistry -
 -------------------
 Temperature   298.150 Kelvin.  Pressure   1.00000 Atm.
 Atom     1 has atomic number  6 and mass  12.00000

 Molecular mass:   278.10890 amu.
 Principal axes and moments of inertia in atomic units:
                           1         2         3
     Eigenvalues --  2847.940089673.44399**********
           X            0.99997  -0.00538  -0.00579
           Y            0.00541   0.99997   0.00590
           Z            0.00576  -0.00593   0.99997
 This molecule is an asymmetric top.
 Rotational symmetry number  1.
 Warning -- assumption of classical behavior for rotation
           may cause significant error
 Rotational temperatures (Kelvin)      0.03041     0.00895     0.00731
 Rotational constants (GHZ):           0.63370     0.18657     0.15237
 Zero-point vibrational energy     802632.5 (Joules/Mol)
                                  191.83378 (Kcal/Mol)
 Warning -- explicit consideration of  29 degrees of freedom as
           vibrations may cause significant error
 Vibrational temperatures:     24.38    39.48    55.57    78.24    83.83
          (Kelvin)            123.28   125.95   156.50   214.82   242.85
                              266.30   297.14   313.66   337.60   366.46
                              396.71   414.80   467.11   514.11   571.82
                              619.25   654.12   709.43   719.72   752.19
                              814.00   823.42   837.67   882.10   947.32
                             1030.04  1050.51  1061.62  1090.42  1097.61
                             1137.63  1168.74  1194.56  1210.62  1275.43
                             1281.14  1286.72  1300.46  1341.12  1354.36
                             1412.98  1477.26  1514.96  1530.56  1549.56
                             1573.48  1613.09  1620.76  1659.12  1679.53
                             1706.91  1719.00  1746.78  1747.78  1761.39
                             1789.77  1824.52  1865.83  1885.16  1903.12
                             1925.14  1944.74  1977.38  1982.05  2033.29
                             2045.49  2077.59  2117.38  2142.25  2152.26
                             2167.40  2179.16  2185.23  2198.84  2201.97
                             2219.90  2223.95  2226.26  2250.39  2256.83
                             2364.04  2396.81  4295.73  4363.10  4377.78
                             4384.32  4397.98  4403.79  4443.90  4476.79
                             4479.26  4491.50  4535.73  4537.93  4594.91
                             4623.86  4650.40  4652.80  4722.46  5056.09

 Zero-point correction=                           0.305707 (Hartree/Particle)
 Thermal correction to Energy=                    0.324558
 Thermal correction to Enthalpy=                  0.325503
 Thermal correction to Gibbs Free Energy=         0.255835
 Sum of electronic and zero-point Energies=          -1202.193506
 Sum of electronic and thermal Energies=             -1202.174655
 Sum of electronic and thermal Enthalpies=           -1202.173710
 Sum of electronic and thermal Free Energies=        -1202.243378

                     E (Thermal)             CV                S
                      KCal/Mol        Cal/Mol-Kelvin    Cal/Mol-Kelvin
 Total                  203.663             69.957            146.628
 Electronic               0.000              0.000              0.000
 Translational            0.889              2.981             42.767
 Rotational               0.889              2.981             34.144
 Vibrational            201.886             63.995             69.717
 Vibration     1          0.593              1.986              6.963
 Vibration     2          0.593              1.984              6.006
 Vibration     3          0.594              1.981              5.328
 Vibration     4          0.596              1.976              4.651
 Vibration     5          0.596              1.974              4.515
 Vibration     6          0.601              1.959              3.756
 Vibration     7          0.601              1.958              3.714
 Vibration     8          0.606              1.942              3.291
 Vibration     9          0.618              1.903              2.681
 Vibration    10          0.625              1.881              2.449
 Vibration    11          0.631              1.860              2.276
 Vibration    12          0.641              1.831              2.074
 Vibration    13          0.646              1.814              1.976
 Vibration    14          0.654              1.788              1.843
 Vibration    15          0.665              1.755              1.698
 Vibration    16          0.677              1.718              1.560
 Vibration    17          0.685              1.695              1.484
 Vibration    18          0.709              1.626              1.287
 Vibration    19          0.732              1.560              1.134
 Vibration    20          0.764              1.476              0.972
 Vibration    21          0.792              1.404              0.857
 Vibration    22          0.813              1.351              0.782
 Vibration    23          0.849              1.265              0.676
 Vibration    24          0.856              1.250              0.658
 Vibration    25          0.878              1.200              0.604
 Vibration    26          0.922              1.105              0.512
 Vibration    27          0.929              1.091              0.500
 Vibration    28          0.939              1.070              0.481
 Vibration    29          0.972              1.004              0.428

 Optimization completed.
    -- Stationary point found.
 Normal termination of Gaussian 16 at Mon Dec 14 17:22:47 2020.

 ----------------------------------------------------------------------
 # B3LYP/6-311++G(d,p) empiricaldispersion=gd3bj scf=xqc pop=npa geom=c
 heck
 ----------------------------------------------------------------------

 --------------------------------------
 CID_60960351_JID_9243_Energie_neutraal
 --------------------------------------
 Structure from the checkpoint file:  "JID_9243.chk"
 Charge =  0 Multiplicity = 1

 SCF Done:  E(RB3LYP) =  -1202.74686551     A.U. after   16 cycles
 Normal termination of Gaussian 16 at Mon Dec 14 17:32:41 2020.

 ----------------------------------------------------------------------
 # B3LYP/6-311++G(d,p) empiricaldispersion=gd3bj scf=xqc pop=npa geom=c
 heck
 ----------------------------------------------------------------------

 ------------------------------------
 CID_60960351_JID_9243_Energie_kation
 ------------------------------------
 Structure from the checkpoint file:  "JID_9243.chk"
 Charge =  1 Multiplicity = 2

 SCF Done:  E(UB3LYP) =  -1202.46766681     A.U. after   29 cycles
 Normal termination of Gaussian 16 at Mon Dec 14 17:58:26 2020.
 Gaussian 16:  ES64L-G16RevA.03 25-Dec-2016

 ----------------------------------------------------------------------
 # B3LYP/6-311++G(d,p) empiricaldispersion=gd3bj scf=xqc pop=npa geom=c
 heck
 ----------------------------------------------------------------------

 -----------------------------------
 CID_60960351_JID_9243_Energie_anion
 -----------------------------------
 Structure from the checkpoint file:  "JID_9243.chk"
 Charge = -1 Multiplicity = 2

                         Standard orientation:
 ---------------------------------------------------------------------
 Center     Atomic      Atomic             Coordinates (Angstroms)
 Number     Number       Type             X           Y           Z
 ---------------------------------------------------------------------
      1          6           0       -0.744532    2.814222    0.879798
      2          6           0       -1.433994    2.591956   -0.462114
      3          8           0       -2.504311    1.647531   -0.392419
      4          6           0       -2.213844    0.312751   -0.365162
      5          6           0       -3.322478   -0.562656   -0.316470
      6          6           0       -3.111992   -1.936940   -0.322340
      7          6           0       -1.819318   -2.466595   -0.367662
      8          6           0       -0.721963   -1.610670   -0.404709
      9          6           0       -0.928174   -0.222700   -0.403926
     10          6           0        0.699099   -2.116204   -0.381094
     11          7           0        1.275460   -1.979804    0.972134
     12          6           0        2.703885   -1.728507    0.969693
     13          6           0        3.096597   -0.375325    0.401394
     14          7           0        2.335450    0.682011    0.462790
     15          6           0        2.953273    1.784253   -0.087414
     16          6           0        4.208356    1.579227   -0.579022
     17         16           0        4.658212   -0.083167   -0.356758
     18          8           0       -4.611664   -0.087250   -0.324795
     19          6           0       -5.007919    0.610746    0.856124
     20          1           0       -1.484645    3.072663    1.644064
     21          1           0       -0.035719    3.646928    0.796127
     22          1           0       -0.190761    1.932013    1.210752
     23          1           0       -1.916354    3.514001   -0.798114
     24          1           0       -0.717610    2.288831   -1.236535
     25          1           0       -3.985068   -2.581380   -0.293816
     26          1           0       -1.670119   -3.542426   -0.360113
     27          1           0       -0.057554    0.421314   -0.421932
     28          1           0        0.736293   -3.172739   -0.673926
     29          1           0        1.287049   -1.551860   -1.123288
     30          1           0        0.814347   -1.202131    1.439068
     31          1           0        3.072818   -1.787576    2.002447
     32          1           0        3.212397   -2.523600    0.412162
     33          1           0        2.425098    2.730543   -0.101193
     34          1           0        4.873837    2.288058   -1.051158
     35          1           0       -4.911549   -0.035091    1.739422
     36          1           0       -4.415994    1.519375    1.000725
     37          1           0       -6.058414    0.874696    0.714097
 ---------------------------------------------------------------------

 SCF Done:  E(UB3LYP) =  -1202.73888869     A.U. after   33 cycles
 SCF Done:  E(UB3LYP) =  -1202.73888869     a.u. after    1 cycles

 The electronic state is 2-A.
 Alpha  occ. eigenvalues --  -88.75910 -19.05798 -19.04602 -14.19764 -14.19138
 Alpha  occ. eigenvalues --  -10.13961 -10.13233 -10.12984 -10.12091 -10.10395
 Alpha  occ. eigenvalues --  -10.10258 -10.09738 -10.08522 -10.08396 -10.08021
 Alpha  occ. eigenvalues --  -10.07798 -10.07578 -10.07249 -10.06535  -7.84566
 Alpha  occ. eigenvalues --   -5.80836  -5.80497  -5.80193  -0.97883  -0.95534
 Alpha  occ. eigenvalues --   -0.84682  -0.80749  -0.75867  -0.68537  -0.67860
 Alpha  occ. eigenvalues --   -0.66960  -0.64380  -0.63848  -0.60825  -0.57586
 Alpha  occ. eigenvalues --   -0.55596  -0.53749  -0.50626  -0.48646  -0.47553
 Alpha  occ. eigenvalues --   -0.43912  -0.42970  -0.41660  -0.40803  -0.39238
 Alpha  occ. eigenvalues --   -0.38356  -0.37172  -0.36580  -0.35726  -0.35017
 Alpha  occ. eigenvalues --   -0.34589  -0.33777  -0.33271  -0.32380  -0.30377
 Alpha  occ. eigenvalues --   -0.30140  -0.29462  -0.29297  -0.28025  -0.27781
 Alpha  occ. eigenvalues --   -0.26942  -0.26595  -0.25771  -0.25043  -0.24874
 Alpha  occ. eigenvalues --   -0.23045  -0.22557  -0.18967  -0.17175  -0.16375
 Alpha  occ. eigenvalues --   -0.15458  -0.13436  -0.12924  -0.12564   0.04475
 Alpha virt. eigenvalues --    0.06087   0.06787   0.07408   0.07818   0.07913
 Alpha virt. eigenvalues --    0.08268   0.08934   0.09208   0.09650   0.09868
 Alpha virt. eigenvalues --    0.10231   0.10741   0.10912   0.11784   0.12042

  Beta  occ. eigenvalues --  -88.75876 -19.05798 -19.04603 -14.19748 -14.19096
  Beta  occ. eigenvalues --  -10.13955 -10.13221 -10.12966 -10.12062 -10.10280
  Beta  occ. eigenvalues --  -10.10053 -10.09734 -10.08520 -10.08383 -10.08022
  Beta  occ. eigenvalues --  -10.07600 -10.07567 -10.07248 -10.06512  -7.84535
  Beta  occ. eigenvalues --   -5.80826  -5.80486  -5.80071  -0.97876  -0.95525
  Beta  occ. eigenvalues --   -0.84435  -0.80705  -0.75843  -0.68497  -0.67619
  Beta  occ. eigenvalues --   -0.66911  -0.64271  -0.63664  -0.60733  -0.57530
  Beta  occ. eigenvalues --   -0.55553  -0.53687  -0.50605  -0.48611  -0.47233
  Beta  occ. eigenvalues --   -0.43886  -0.42748  -0.41605  -0.40776  -0.39106
  Beta  occ. eigenvalues --   -0.38240  -0.37134  -0.36549  -0.35674  -0.34985
  Beta  occ. eigenvalues --   -0.34516  -0.33722  -0.33227  -0.32256  -0.30246
  Beta  occ. eigenvalues --   -0.30049  -0.29376  -0.28917  -0.27973  -0.27707
  Beta  occ. eigenvalues --   -0.26855  -0.26440  -0.25705  -0.24906  -0.24768
  Beta  occ. eigenvalues --   -0.23028  -0.22521  -0.18951  -0.16485  -0.16268
  Beta  occ. eigenvalues --   -0.15406  -0.12871  -0.12623  -0.12181
  Beta virt. eigenvalues --    0.06468   0.07202   0.07430   0.07911   0.08124
  Beta virt. eigenvalues --    0.08178   0.08711   0.09190   0.09390   0.09941
  Beta virt. eigenvalues --    0.10164   0.10415   0.10880   0.10910   0.11839

 Mulliken charges and spin densities:
               1          2
     1  C    0.395168  -0.772650
     2  C   -0.178781  -0.073162
     3  O   -0.109844   0.001412
     4  C   -0.291117   0.173266
     5  C   -0.780079   0.045631
     6  C   -0.076038  -0.014567
     7  C   -0.738177   0.363406
     8  C    0.739722  -0.176322
     9  C    0.592190  -0.304495
    10  C   -0.308826  -0.211384
    11  N    0.059578   0.035703
    12  C    0.127338  -0.805538
    13  C   -0.005922   0.529715
    14  N   -0.002257   0.035423
    15  C   -0.310380  -0.196620
    16  C    0.187165  -0.005188
    17  S   -0.468789   0.186446
    18  O   -0.186735   0.024420
    19  C    0.243316  -0.538043
    20  H   -0.092348   0.249844
    21  H   -0.120111   0.243400
    22  H   -0.029819   0.220423
    23  H   -0.354678   0.551907
    24  H    0.061807   0.087118
    25  H    0.136682   0.037991
    26  H    0.077740   0.052110
    27  H    0.266927  -0.182701
    28  H    0.166747  -0.014477
    29  H    0.108051   0.035254
    30  H    0.205814   0.020076
    31  H   -0.154404   0.345361
    32  H    0.178953  -0.029964
    33  H   -0.096906   0.203553
    34  H   -0.121831   0.337067
    35  H   -0.077872   0.196527
    36  H    0.050736   0.116409
    37  H   -0.093019   0.232645
 Sum of Mulliken charges =  -1.00000   1.00000

 Dipole moment (field-independent basis, Debye):
    X=             -0.3224    Y=             -3.8217    Z=             -1.7809  Tot=              4.2286
 Quadrupole moment (field-independent basis, Debye-Ang):
   XX=           -204.7847   YY=           -160.4180   ZZ=           -148.1948
   XY=              3.0790   XZ=             -3.2537   YZ=              1.9418

 Summary of Natural Population Analysis:

                                       Natural Population
                Natural  -----------------------------------------------
    Atom  No    Charge         Core      Valence    Rydberg      Total
 -----------------------------------------------------------------------
      C    1   -0.30386      0.99966     2.29877    0.00544     3.30386
      C    2   -0.01177      0.99958     2.00042    0.01177     3.01177
      O    3   -0.27829      0.99986     3.26801    0.01042     4.27829
      C    4    0.14727      0.99934     1.84109    0.01230     2.85273
      C    5    0.13372      0.99934     1.85225    0.01470     2.86628
      C    6   -0.11445      0.99953     2.10594    0.00898     3.11445
      C    7   -0.10992      0.99952     2.10127    0.00914     3.10992
      C    8   -0.01553      0.99951     2.00775    0.00827     3.01553
      C    9   -0.14299      0.99947     2.13601    0.00750     3.14299
      C   10   -0.09324      0.99959     2.08336    0.01030     3.09324
      N   11   -0.33355      0.99976     2.82238    0.01141     3.83355
      C   12   -0.10928      0.99957     2.09725    0.01245     3.10928
      C   13    0.08236      0.99961     1.89999    0.01804     2.91764
      N   14   -0.26515      0.99964     2.75238    0.01314     3.76515
      C   15   -0.02726      0.99952     2.01199    0.01575     3.02726
      C   16   -0.18215      0.99954     2.17271    0.00991     3.18215
      S   17    0.17793      4.99943     2.80354    0.01910     7.82207
      O   18   -0.28837      0.99986     3.27822    0.01028     4.28837
      C   19   -0.09837      0.99959     2.08970    0.00907     3.09837
      H   20    0.09968      0.00000     0.39913    0.00118     0.40032
      H   21    0.10236      0.00000     0.39622    0.00142     0.39764
      H   22    0.10985      0.00000     0.38845    0.00169     0.39015
      H   23    0.09124      0.00000     0.40755    0.00122     0.40876
      H   24    0.08463      0.00000     0.41393    0.00144     0.41537
      H   25    0.10326      0.00000     0.39572    0.00101     0.39674
      H   26    0.09914      0.00000     0.39994    0.00092     0.40086
      H   27    0.11868      0.00000     0.37916    0.00216     0.38132
      H   28    0.08943      0.00000     0.40944    0.00113     0.41057
      H   29    0.09217      0.00000     0.40619    0.00164     0.40783
      H   30    0.17940      0.00000     0.31652    0.00408     0.32060
      H   31    0.10702      0.00000     0.39146    0.00152     0.39298
      H   32    0.09499      0.00000     0.40410    0.00091     0.40501
      H   33    0.09623      0.00000     0.40254    0.00123     0.40377
      H   34    0.10596      0.00000     0.39298    0.00106     0.39404
      H   35    0.07939      0.00000     0.41932    0.00129     0.42061
      H   36    0.09212      0.00000     0.40609    0.00179     0.40788
      H   37    0.08732      0.00000     0.41155    0.00113     0.41268
 =======================================================================
   * Total *   -0.00000     22.99190    50.76333    0.24477    74.00000

 Normal termination of Gaussian 16 at Mon Dec 14 18:29:03 2020.
