 Gaussian 16, Revision A.03,

 -----------------------------------------------------------
 # opt freq B3LYP/6-31G(d) empiricaldispersion=gd3bj scf=xqc
 -----------------------------------------------------------

 ------------------------------
 CID_140210669_JID_745_neutraal
 ------------------------------
 Symbolic Z-matrix:
 Charge =  0 Multiplicity = 1

 SCF Done:  E(RB3LYP) =  -518.040116322     A.U. after   13 cycles
 SCF Done:  E(RB3LYP) =  -518.041525925     A.U. after   11 cycles
 SCF Done:  E(RB3LYP) =  -518.037791641     A.U. after   12 cycles
 SCF Done:  E(RB3LYP) =  -518.039380210     A.U. after   11 cycles
 SCF Done:  E(RB3LYP) =  -518.042202971     A.U. after    9 cycles
 SCF Done:  E(RB3LYP) =  -518.043904889     A.U. after   11 cycles
 SCF Done:  E(RB3LYP) =  -518.044277786     A.U. after   11 cycles
 SCF Done:  E(RB3LYP) =  -518.044399552     A.U. after   11 cycles
 SCF Done:  E(RB3LYP) =  -518.044546146     A.U. after   11 cycles
 SCF Done:  E(RB3LYP) =  -518.044600926     A.U. after   10 cycles
 SCF Done:  E(RB3LYP) =  -518.044608996     A.U. after    9 cycles
 SCF Done:  E(RB3LYP) =  -518.044609862     A.U. after    8 cycles
 Optimization completed.
    -- Stationary point found.
 Normal termination of Gaussian 16 at Tue Dec  8 12:39:32 2020.

 --------------------------------------------------------------------
 #N Geom=AllCheck Guess=TCheck SCRF=Check GenChk RB3LYP/6-31G(d) Freq
 --------------------------------------------------------------------

 Structure from the checkpoint file:  "JID_745.chk"
 ------------------------------
 CID_140210669_JID_745_neutraal
 ------------------------------
 Charge =  0 Multiplicity = 1

 SCF Done:  E(RB3LYP) =  -518.044609862     A.U. after    1 cycles

  Exact polarizability:  89.848   0.724  79.099   3.096  -0.555  74.290
 Approx polarizability: 119.719  -0.101 108.254   5.103  -2.334 110.028

                      1                      2                      3
                      A                      A                      A
 Frequencies --     88.7270               122.0864               157.2747
 Red. masses --      4.6728                 5.0465                 3.1842
 Frc consts  --      0.0217                 0.0443                 0.0464
 IR Inten    --      0.7906                 2.9691                 7.3234

                      4                      5                      6
                      A                      A                      A
 Frequencies --    202.7830               224.1175               229.5251
 Red. masses --      3.4606                 3.0285                 3.3468
 Frc consts  --      0.0838                 0.0896                 0.1039
 IR Inten    --      3.0124                 0.6546                 4.5781

                      7                      8                      9
                      A                      A                      A
 Frequencies --    261.0520               271.9222               289.8557
 Red. masses --      1.7023                 1.4908                 1.9202
 Frc consts  --      0.0684                 0.0649                 0.0951
 IR Inten    --      0.2785                 6.0030                 0.1383

                     10                     11                     12
                      A                      A                      A
 Frequencies --    298.7602               307.2136               339.8796
 Red. masses --      1.3071                 1.6334                 2.0484
 Frc consts  --      0.0687                 0.0908                 0.1394
 IR Inten    --     90.5753                 2.9107                18.2345

                     13                     14                     15
                      A                      A                      A
 Frequencies --    351.4711               358.5750               396.1858
 Red. masses --      2.3222                 2.4432                 1.1967
 Frc consts  --      0.1690                 0.1851                 0.1107
 IR Inten    --      0.6329                 2.1607               118.2353

                     16                     17                     18
                      A                      A                      A
 Frequencies --    420.1863               507.0593               562.9129
 Red. masses --      3.1099                 2.6261                 3.4174
 Frc consts  --      0.3235                 0.3978                 0.6380
 IR Inten    --      3.7343                 2.4408                 7.1403

                     19                     20                     21
                      A                      A                      A
 Frequencies --    667.6264               715.4902               788.3596
 Red. masses --      2.1255                 1.3543                 3.2174
 Frc consts  --      0.5582                 0.4085                 1.1782
 IR Inten    --     29.2977               133.9829                18.6052

                     22                     23                     24
                      A                      A                      A
 Frequencies --    848.0546               898.8155               920.3968
 Red. masses --      2.8268                 2.7072                 1.7618
 Frc consts  --      1.1978                 1.2886                 0.8793
 IR Inten    --     17.3151                13.5679                10.1693

                     25                     26                     27
                      A                      A                      A
 Frequencies --    949.0389               963.3706               988.1518
 Red. masses --      2.6875                 1.5100                 1.9225
 Frc consts  --      1.4262                 0.8257                 1.1060
 IR Inten    --     34.3542                 9.2304                36.7601

                     28                     29                     30
                      A                      A                      A
 Frequencies --   1028.3621              1034.0508              1048.0505
 Red. masses --      1.5727                 3.1299                 1.4936
 Frc consts  --      0.9799                 1.9718                 0.9666
 IR Inten    --     23.4915                 8.3433                13.3854

                     31                     32                     33
                      A                      A                      A
 Frequencies --   1065.5836              1126.1437              1154.6237
 Red. masses --      2.9279                 3.2113                 1.7011
 Frc consts  --      1.9588                 2.3995                 1.3362
 IR Inten    --     99.5445                47.7473                11.3721

                     34                     35                     36
                      A                      A                      A
 Frequencies --   1181.1732              1209.2525              1259.0522
 Red. masses --      1.3503                 2.0123                 1.7153
 Frc consts  --      1.1099                 1.7337                 1.6020
 IR Inten    --     37.7472                13.0083                 8.1530

                     37                     38                     39
                      A                      A                      A
 Frequencies --   1276.8265              1311.3185              1333.2865
 Red. masses --      1.4690                 2.0079                 1.3034
 Frc consts  --      1.4110                 2.0343                 1.3651
 IR Inten    --     16.9129                 2.2048                24.7406

                     40                     41                     42
                      A                      A                      A
 Frequencies --   1358.9252              1404.0560              1405.7515
 Red. masses --      1.4891                 1.2553                 1.2781
 Frc consts  --      1.6202                 1.4580                 1.4881
 IR Inten    --      8.6338                25.3771                 8.3302

                     43                     44                     45
                      A                      A                      A
 Frequencies --   1418.3222              1420.8115              1428.8885
 Red. masses --      1.2406                 1.2195                 1.2689
 Frc consts  --      1.4704                 1.4505                 1.5265
 IR Inten    --     19.4629                16.1439                10.9967

                     46                     47                     48
                      A                      A                      A
 Frequencies --   1450.9958              1475.5303              1515.8723
 Red. masses --      1.2553                 1.1796                 1.0543
 Frc consts  --      1.5571                 1.5131                 1.4273
 IR Inten    --     17.3171                53.3587                 0.6130

                     49                     50                     51
                      A                      A                      A
 Frequencies --   1519.1948              1524.0914              1533.7898
 Red. masses --      1.0814                 1.0782                 1.0536
 Frc consts  --      1.4705                 1.4756                 1.4604
 IR Inten    --      7.7422                 6.5298                 3.0712

                     52                     53                     54
                      A                      A                      A
 Frequencies --   1536.4059              1541.9080              1563.8955
 Red. masses --      1.0545                 1.0747                 1.0522
 Frc consts  --      1.4666                 1.5054                 1.5163
 IR Inten    --      5.9195                 3.0199                 5.5459

                     55                     56                     57
                      A                      A                      A
 Frequencies --   3022.8865              3028.8733              3039.2329
 Red. masses --      1.0699                 1.0663                 1.0428
 Frc consts  --      5.7603                 5.7636                 5.6751
 IR Inten    --     38.4499                33.0387                23.8479

                     58                     59                     60
                      A                      A                      A
 Frequencies --   3043.7920              3053.8000              3100.9538
 Red. masses --      1.0481                 1.0803                 1.1012
 Frc consts  --      5.7213                 5.9359                 6.2387
 IR Inten    --     46.1404                42.9938                17.2160

                     61                     62                     63
                      A                      A                      A
 Frequencies --   3109.8082              3117.5381              3122.1351
 Red. masses --      1.0978                 1.0952                 1.0883
 Frc consts  --      6.2550                 6.2716                 6.2501
 IR Inten    --     54.3403                21.1712                15.4750

                     64                     65                     66
                      A                      A                      A
 Frequencies --   3137.5511              3153.0452              3443.6072
 Red. masses --      1.0998                 1.1023                 1.0747
 Frc consts  --      6.3791                 6.4568                 7.5084
 IR Inten    --     18.1180                12.1429                 2.0601

                     67                     68                     69
                      A                      A                      A
 Frequencies --   3643.4180              3748.4902              3755.8387
 Red. masses --      1.0647                 1.0683                 1.0661
 Frc consts  --      8.3269                 8.8445                 8.8608
 IR Inten    --    152.9214                27.3378                22.6776

 - Thermochemistry -
 -------------------
 Temperature   298.150 Kelvin.  Pressure   1.00000 Atm.
 Atom     1 has atomic number  6 and mass  12.00000

 Molecular mass:   149.10519 amu.
 Principal axes and moments of inertia in atomic units:
                           1         2         3
     Eigenvalues --  1105.442351652.637632213.61776
           X            0.99961   0.02646   0.00933
           Y           -0.02652   0.99963   0.00640
           Z           -0.00916  -0.00665   0.99994
 This molecule is an asymmetric top.
 Rotational symmetry number  1.
 Warning -- assumption of classical behavior for rotation
           may cause significant error
 Rotational temperatures (Kelvin)      0.07835     0.05241     0.03913
 Rotational constants (GHZ):           1.63260     1.09204     0.81529
 Zero-point vibrational energy     584830.5 (Joules/Mol)
                                  139.77784 (Kcal/Mol)
 Warning -- explicit consideration of  18 degrees of freedom as
           vibrations may cause significant error
 Vibrational temperatures:    127.66   175.66   226.28   291.76   322.46
          (Kelvin)            330.24   375.60   391.24   417.04   429.85
                              442.01   489.01   505.69   515.91   570.02
                              604.55   729.55   809.91   960.57  1029.43
                             1134.27  1220.16  1293.19  1324.25  1365.46
                             1386.08  1421.73  1479.58  1487.77  1507.91
                             1533.14  1620.27  1661.25  1699.44  1739.84
                             1811.50  1837.07  1886.69  1918.30  1955.19
                             2020.12  2022.56  2040.65  2044.23  2055.85
                             2087.66  2122.96  2181.00  2185.78  2192.83
                             2206.78  2210.55  2218.46  2250.10  4349.26
                             4357.87  4372.78  4379.34  4393.74  4461.58
                             4474.32  4485.44  4492.06  4514.24  4536.53
                             4954.58  5242.07  5393.24  5403.81

 Zero-point correction=                           0.222750 (Hartree/Particle)
 Thermal correction to Energy=                    0.234484
 Thermal correction to Enthalpy=                  0.235428
 Thermal correction to Gibbs Free Energy=         0.186764
 Sum of electronic and zero-point Energies=           -517.821860
 Sum of electronic and thermal Energies=              -517.810126
 Sum of electronic and thermal Enthalpies=            -517.809182
 Sum of electronic and thermal Free Energies=         -517.857846

                     E (Thermal)             CV                S
                      KCal/Mol        Cal/Mol-Kelvin    Cal/Mol-Kelvin
 Total                  147.141             44.916            102.421
 Electronic               0.000              0.000              0.000
 Translational            0.889              2.981             40.909
 Rotational               0.889              2.981             29.782
 Vibrational            145.363             38.954             31.730
 Vibration     1          0.602              1.957              3.688
 Vibration     2          0.610              1.931              3.067
 Vibration     3          0.621              1.895              2.582
 Vibration     4          0.639              1.836              2.108
 Vibration     5          0.649              1.804              1.926
 Vibration     6          0.652              1.796              1.883
 Vibration     7          0.669              1.744              1.655
 Vibration     8          0.675              1.725              1.584
 Vibration     9          0.686              1.693              1.475
 Vibration    10          0.692              1.676              1.424
 Vibration    11          0.697              1.660              1.377
 Vibration    12          0.720              1.596              1.213
 Vibration    13          0.728              1.572              1.160
 Vibration    14          0.733              1.558              1.128
 Vibration    15          0.763              1.478              0.977
 Vibration    16          0.783              1.426              0.891
 Vibration    17          0.862              1.234              0.641
 Vibration    18          0.919              1.112              0.518

 Optimization completed.
    -- Stationary point found.
 Normal termination of Gaussian 16 at Tue Dec  8 12:51:29 2020.

 ----------------------------------------------------------------------
 # B3LYP/6-311++G(d,p) empiricaldispersion=gd3bj scf=xqc pop=npa geom=c
 heck
 ----------------------------------------------------------------------

 --------------------------------------
 CID_140210669_JID_745_Energie_neutraal
 --------------------------------------
 Structure from the checkpoint file:  "JID_745.chk"
 Charge =  0 Multiplicity = 1

 SCF Done:  E(RB3LYP) =  -518.228175413     A.U. after   14 cycles
 Normal termination of Gaussian 16 at Tue Dec  8 13:04:42 2020.

 ----------------------------------------------------------------------
 # B3LYP/6-311++G(d,p) empiricaldispersion=gd3bj scf=xqc pop=npa geom=c
 heck
 ----------------------------------------------------------------------

 ------------------------------------
 CID_140210669_JID_745_Energie_kation
 ------------------------------------
 Structure from the checkpoint file:  "JID_745.chk"
 Charge =  1 Multiplicity = 2

 SCF Done:  E(UB3LYP) =  -517.907139841     A.U. after   22 cycles
 Normal termination of Gaussian 16 at Tue Dec  8 13:11:34 2020.
 Gaussian 16:  ES64L-G16RevA.03 25-Dec-2016

 ----------------------------------------------------------------------
 # B3LYP/6-311++G(d,p) empiricaldispersion=gd3bj scf=xqc pop=npa geom=c
 heck
 ----------------------------------------------------------------------

 -----------------------------------
 CID_140210669_JID_745_Energie_anion
 -----------------------------------
 Structure from the checkpoint file:  "JID_745.chk"
 Charge = -1 Multiplicity = 2

                         Standard orientation:
 ---------------------------------------------------------------------
 Center     Atomic      Atomic             Coordinates (Angstroms)
 Number     Number       Type             X           Y           Z
 ---------------------------------------------------------------------
      1          6           0        0.829484    0.747628    1.513869
      2          6           0        0.643197    0.785887   -0.016485
      3          6           0        0.574093    2.256793   -0.466063
      4          6           0        1.875578    0.156126   -0.695611
      5          8           0        2.286110   -1.109193   -0.150943
      6          6           0       -0.680074    0.086763   -0.475312
      7          6           0       -0.635306   -1.438389   -0.655826
      8          8           0       -0.235421   -2.126620    0.522011
      9          7           0       -1.755883    0.493913    0.450034
     10          8           0       -3.017839    0.124437   -0.161884
     11          1           0        1.798470    1.184990    1.790319
     12          1           0        0.774052   -0.269701    1.908156
     13          1           0        0.052298    1.339017    2.004744
     14          1           0        1.412129    2.836088   -0.060388
     15          1           0        0.602825    2.340739   -1.559805
     16          1           0       -0.358568    2.706510   -0.114087
     17          1           0        1.679441   -0.029486   -1.756133
     18          1           0        2.715084    0.862899   -0.635638
     19          1           0        2.736336   -0.925326    0.687587
     20          1           0       -0.952210    0.514254   -1.448773
     21          1           0       -1.649164   -1.770478   -0.897032
     22          1           0        0.010772   -1.705171   -1.504673
     23          1           0        0.737767   -2.054590    0.511562
     24          1           0       -1.706232   -0.146673    1.245816
     25          1           0       -3.466458    0.981695   -0.222795
 ---------------------------------------------------------------------

 SCF Done:  E(UB3LYP) =  -518.215929968     A.U. after   28 cycles

 The electronic state is 2-A.
 Alpha  occ. eigenvalues --  -19.04370 -19.02743 -19.00420 -14.24360 -10.11110
 Alpha  occ. eigenvalues --  -10.10230 -10.09203 -10.08210 -10.05062 -10.04759
 Alpha  occ. eigenvalues --   -0.95419  -0.92782  -0.90615  -0.75339  -0.68871
 Alpha  occ. eigenvalues --   -0.60631  -0.58043  -0.57093  -0.51731  -0.44322
 Alpha  occ. eigenvalues --   -0.42191  -0.41168  -0.38828  -0.37420  -0.35776
 Alpha  occ. eigenvalues --   -0.34314  -0.32437  -0.32190  -0.31698  -0.29724
 Alpha  occ. eigenvalues --   -0.27806  -0.27004  -0.26432  -0.24950  -0.22997
 Alpha  occ. eigenvalues --   -0.22299  -0.21882  -0.19316  -0.18115  -0.17164
 Alpha  occ. eigenvalues --   -0.13619   0.04692
 Alpha virt. eigenvalues --    0.06763   0.08113   0.08744   0.09875   0.10666
 Alpha virt. eigenvalues --    0.11005   0.11362   0.11796   0.13398   0.14039
 Alpha virt. eigenvalues --    0.14661   0.14807   0.15087   0.15451   0.16731

  Beta  occ. eigenvalues --  -19.04341 -19.02694 -19.00410 -14.24347 -10.11075
  Beta  occ. eigenvalues --  -10.10221 -10.09194 -10.08208 -10.05032 -10.04712
  Beta  occ. eigenvalues --   -0.95366  -0.92689  -0.90585  -0.75297  -0.68820
  Beta  occ. eigenvalues --   -0.60588  -0.57966  -0.56992  -0.51687  -0.44255
  Beta  occ. eigenvalues --   -0.42109  -0.41130  -0.38741  -0.37385  -0.35730
  Beta  occ. eigenvalues --   -0.34273  -0.32397  -0.32152  -0.31664  -0.29682
  Beta  occ. eigenvalues --   -0.27760  -0.26963  -0.26382  -0.24909  -0.22949
  Beta  occ. eigenvalues --   -0.22270  -0.21853  -0.19280  -0.18081  -0.17123
  Beta  occ. eigenvalues --   -0.13591
  Beta virt. eigenvalues --    0.07230   0.08328   0.08819   0.09188   0.10574
  Beta virt. eigenvalues --    0.11374   0.11462   0.11624   0.12009   0.13840
  Beta virt. eigenvalues --    0.14398   0.15130   0.15298   0.15332   0.15587

 Mulliken charges and spin densities:
               1          2
     1  C    1.288997  -2.051678
     2  C   -3.047642   3.824640
     3  C    1.000067  -1.613549
     4  C    1.661259  -2.225755
     5  O   -0.249440  -0.025221
     6  C    1.191308  -1.299437
     7  C   -0.545282  -0.178108
     8  O   -0.255897  -0.001191
     9  N   -0.442661   0.097967
    10  O   -0.111066  -0.032851
    11  H   -0.702997   0.883901
    12  H    0.063243   0.104843
    13  H   -0.080566   0.228713
    14  H   -0.214786   0.369412
    15  H   -0.233916   0.357804
    16  H   -0.098503   0.287761
    17  H    0.017093   0.162037
    18  H   -0.520971   0.705579
    19  H   -0.412428   0.691053
    20  H    0.101502   0.116045
    21  H    0.157299   0.038780
    22  H    0.002021   0.152242
    23  H    0.247876   0.027041
    24  H    0.193212   0.096557
    25  H   -0.007724   0.283413
 Sum of Mulliken charges =  -1.00000   1.00000

 Dipole moment (field-independent basis, Debye):
    X=             -4.0001    Y=             -1.7759    Z=             -1.9631  Tot=              4.7967
 Quadrupole moment (field-independent basis, Debye-Ang):
   XX=           -122.4366   YY=           -102.6345   ZZ=            -91.4636
   XY=             -2.8009   XZ=             -5.7653   YZ=              0.5946

 Summary of Natural Population Analysis:

                                       Natural Population
                Natural  -----------------------------------------------
    Atom  No    Charge         Core      Valence    Rydberg      Total
 -----------------------------------------------------------------------
      C    1   -0.29920      0.99961     2.29090    0.00868     3.29920
      C    2   -0.06128      0.99955     2.04568    0.01605     3.06128
      C    3   -0.28462      0.99962     2.27738    0.00762     3.28462
      C    4   -0.00755      0.99951     1.99364    0.01440     3.00755
      O    5   -0.38216      0.99990     3.37448    0.00779     4.38216
      C    6   -0.02347      0.99954     2.00758    0.01635     3.02347
      C    7   -0.02224      0.99955     2.01072    0.01196     3.02224
      O    8   -0.38614      0.99990     3.37914    0.00710     4.38614
      N    9   -0.18769      0.99972     2.67332    0.01464     3.68769
      O   10   -0.30536      0.99991     3.29867    0.00678     4.30536
      H   11    0.10457      0.00000     0.39321    0.00222     0.39543
      H   12    0.10501      0.00000     0.39356    0.00143     0.39499
      H   13    0.10726      0.00000     0.39120    0.00154     0.39274
      H   14    0.10222      0.00000     0.39641    0.00138     0.39778
      H   15    0.09712      0.00000     0.40163    0.00125     0.40288
      H   16    0.10781      0.00000     0.39055    0.00164     0.39219
      H   17    0.08746      0.00000     0.41118    0.00137     0.41254
      H   18    0.08962      0.00000     0.40756    0.00282     0.41038
      H   19    0.24070      0.00000     0.24901    0.01029     0.25930
      H   20    0.10009      0.00000     0.39839    0.00152     0.39991
      H   21    0.09336      0.00000     0.40521    0.00144     0.40664
      H   22    0.08102      0.00000     0.41781    0.00117     0.41898
      H   23    0.24155      0.00000     0.25494    0.00351     0.25845
      H   24    0.16932      0.00000     0.32746    0.00322     0.33068
      H   25    0.23261      0.00000     0.26306    0.00433     0.26739
 =======================================================================
   * Total *   -0.00000      9.99681    30.85269    0.15051    41.00000

 Normal termination of Gaussian 16 at Tue Dec  8 13:23:51 2020.
