 Gaussian 16, Revision A.03,

 -----------------------------------------------------------
 # opt freq B3LYP/6-31G(d) empiricaldispersion=gd3bj scf=xqc
 -----------------------------------------------------------

 ------------------------------
 CID_145609297_JID_676_neutraal
 ------------------------------
 Symbolic Z-matrix:
 Charge =  0 Multiplicity = 1

 SCF Done:  E(RB3LYP) =  -390.718619807     A.U. after   14 cycles
 SCF Done:  E(RB3LYP) =  -390.722114637     A.U. after   12 cycles
 SCF Done:  E(RB3LYP) =  -390.722324158     A.U. after   11 cycles
 SCF Done:  E(RB3LYP) =  -390.722548843     A.U. after   11 cycles
 SCF Done:  E(RB3LYP) =  -390.722639035     A.U. after   10 cycles
 SCF Done:  E(RB3LYP) =  -390.722677481     A.U. after   10 cycles
 SCF Done:  E(RB3LYP) =  -390.722681517     A.U. after    9 cycles
 SCF Done:  E(RB3LYP) =  -390.722682741     A.U. after    8 cycles
 SCF Done:  E(RB3LYP) =  -390.722683053     A.U. after    7 cycles
 Optimization completed.
    -- Stationary point found.
 Normal termination of Gaussian 16 at Tue Dec  8 12:18:57 2020.

 --------------------------------------------------------------------
 #N Geom=AllCheck Guess=TCheck SCRF=Check GenChk RB3LYP/6-31G(d) Freq
 --------------------------------------------------------------------

 Structure from the checkpoint file:  "JID_676.chk"
 ------------------------------
 CID_145609297_JID_676_neutraal
 ------------------------------
 Charge =  0 Multiplicity = 1

 SCF Done:  E(RB3LYP) =  -390.722683053     A.U. after    1 cycles

  Exact polarizability: 130.592  -1.938 105.095  -0.486   5.379  78.578
 Approx polarizability: 172.559  -5.525 155.677   0.137  12.369 119.669

                      1                      2                      3
                      A                      A                      A
 Frequencies --     80.1167                84.9748               127.5511
 Red. masses --      2.7884                 2.8514                 2.0907
 Frc consts  --      0.0105                 0.0121                 0.0200
 IR Inten    --      0.1254                 0.0227                 0.0522

                      4                      5                      6
                      A                      A                      A
 Frequencies --    162.4559               204.8753               219.3929
 Red. masses --      1.7448                 1.4686                 1.2034
 Frc consts  --      0.0271                 0.0363                 0.0341
 IR Inten    --      0.0539                 0.8422                 1.0551

                      7                      8                      9
                      A                      A                      A
 Frequencies --    223.9663               244.0380               300.0663
 Red. masses --      2.0536                 1.2304                 1.5836
 Frc consts  --      0.0607                 0.0432                 0.0840
 IR Inten    --      0.2388                 0.4192                 0.2209

                     10                     11                     12
                      A                      A                      A
 Frequencies --    310.0048               367.1693               405.1267
 Red. masses --      2.5324                 2.6563                 2.5023
 Frc consts  --      0.1434                 0.2110                 0.2420
 IR Inten    --      2.1802                 1.0811                 1.1792

                     13                     14                     15
                      A                      A                      A
 Frequencies --    470.6818               539.2160               561.3390
 Red. masses --      3.2299                 2.5349                 3.2718
 Frc consts  --      0.4216                 0.4342                 0.6074
 IR Inten    --      1.9447                 3.7618                 0.0406

                     16                     17                     18
                      A                      A                      A
 Frequencies --    577.7158               683.7131               724.2170
 Red. masses --      2.4968                 2.8530                 2.2615
 Frc consts  --      0.4910                 0.7858                 0.6988
 IR Inten    --      0.8673                 0.8493                13.0225

                     19                     20                     21
                      A                      A                      A
 Frequencies --    760.0952               833.4229               907.1250
 Red. masses --      1.7144                 1.6227                 2.1877
 Frc consts  --      0.5836                 0.6641                 1.0607
 IR Inten    --     16.5204                 1.8513                 0.8983

                     22                     23                     24
                      A                      A                      A
 Frequencies --    922.0615               943.3969               977.1138
 Red. masses --      2.0537                 2.0413                 1.3502
 Frc consts  --      1.0287                 1.0704                 0.7595
 IR Inten    --      0.0823                11.5963                 0.3275

                     25                     26                     27
                      A                      A                      A
 Frequencies --    999.1170              1007.0666              1025.8203
 Red. masses --      1.2041                 2.0913                 1.4295
 Frc consts  --      0.7082                 1.2496                 0.8863
 IR Inten    --      0.7780                 0.2307                 1.8052

                     28                     29                     30
                      A                      A                      A
 Frequencies --   1071.6309              1075.2539              1078.8756
 Red. masses --      1.7924                 1.7241                 1.7553
 Frc consts  --      1.2128                 1.1745                 1.2038
 IR Inten    --      1.6046                 3.9975                 1.6390

                     31                     32                     33
                      A                      A                      A
 Frequencies --   1106.0405              1131.8837              1143.4256
 Red. masses --      1.4865                 2.0501                 2.2539
 Frc consts  --      1.0714                 1.5475                 1.7362
 IR Inten    --      1.9599                 1.7897                 2.8378

                     34                     35                     36
                      A                      A                      A
 Frequencies --   1175.6892              1209.3263              1247.5759
 Red. masses --      2.1599                 1.5382                 1.4376
 Frc consts  --      1.7590                 1.3254                 1.3183
 IR Inten    --      0.3488                 6.1095                 7.3297

                     37                     38                     39
                      A                      A                      A
 Frequencies --   1271.0638              1290.9857              1329.1005
 Red. masses --      1.7373                 1.2190                 1.4326
 Frc consts  --      1.6537                 1.1970                 1.4911
 IR Inten    --      0.5444                 0.5375                 0.9831

                     40                     41                     42
                      A                      A                      A
 Frequencies --   1343.3146              1351.7352              1382.4843
 Red. masses --      1.4763                 1.7256                 1.5674
 Frc consts  --      1.5696                 1.8577                 1.7651
 IR Inten    --     11.3230                 0.7383                 6.2201

                     43                     44                     45
                      A                      A                      A
 Frequencies --   1425.3969              1434.8079              1441.5242
 Red. masses --      1.2482                 1.2640                 1.2821
 Frc consts  --      1.4942                 1.5331                 1.5697
 IR Inten    --      2.9107                 2.6271                 2.7712

                     46                     47                     48
                      A                      A                      A
 Frequencies --   1463.5564              1507.7459              1512.5762
 Red. masses --      1.5648                 1.0536                 1.0689
 Frc consts  --      1.9748                 1.4112                 1.4409
 IR Inten    --      6.5662                 9.5698                 0.5548

                     49                     50                     51
                      A                      A                      A
 Frequencies --   1513.6524              1520.2517              1523.9433
 Red. masses --      1.0852                 1.0543                 1.0542
 Frc consts  --      1.4650                 1.4356                 1.4424
 IR Inten    --      2.2216                14.8036                 1.9742

                     52                     53                     54
                      A                      A                      A
 Frequencies --   1529.2595              1531.1524              1535.9028
 Red. masses --      1.0608                 1.0834                 1.0525
 Frc consts  --      1.4617                 1.4966                 1.4629
 IR Inten    --      2.2511                 0.4131                 1.5389

                     55                     56                     57
                      A                      A                      A
 Frequencies --   1718.4934              1722.4130              2969.3258
 Red. masses --      7.1626                 7.0076                 1.0820
 Frc consts  --     12.4629                12.2488                 5.6208
 IR Inten    --      1.6292                 2.2125                33.7981

                     58                     59                     60
                      A                      A                      A
 Frequencies --   3017.4813              3027.2151              3033.3331
 Red. masses --      1.0676                 1.0455                 1.0412
 Frc consts  --      5.7272                 5.6448                 5.6445
 IR Inten    --     46.4775                22.7979                38.5580

                     61                     62                     63
                      A                      A                      A
 Frequencies --   3040.9638              3045.8400              3062.0282
 Red. masses --      1.0407                 1.0686                 1.0856
 Frc consts  --      5.6700                 5.8410                 5.9970
 IR Inten    --     14.2908                35.4607                49.1600

                     64                     65                     66
                      A                      A                      A
 Frequencies --   3078.1011              3079.0738              3103.0080
 Red. masses --      1.0972                 1.0932                 1.1013
 Frc consts  --      6.1248                 6.1063                 6.2477
 IR Inten    --      9.8268                44.7978                22.0801

                     67                     68                     69
                      A                      A                      A
 Frequencies --   3108.6023              3113.5955              3119.5870
 Red. masses --      1.1017                 1.1018                 1.0839
 Frc consts  --      6.2728                 6.2934                 6.2148
 IR Inten    --     65.4409                29.9757                16.5751

                     70                     71                     72
                      A                      A                      A
 Frequencies --   3136.9111              3140.0507              3157.1811
 Red. masses --      1.0965                 1.0977                 1.0933
 Frc consts  --      6.3572                 6.3769                 6.4211
 IR Inten    --      3.7141                13.8935                58.5740

 - Thermochemistry -
 -------------------
 Temperature   298.150 Kelvin.  Pressure   1.00000 Atm.
 Atom     1 has atomic number  6 and mass  12.00000

 Molecular mass:   136.12520 amu.
 Principal axes and moments of inertia in atomic units:
                           1         2         3
     Eigenvalues --   815.500851966.764622488.57049
           X            0.99996   0.00557   0.00694
           Y           -0.00559   0.99998   0.00237
           Z           -0.00692  -0.00241   0.99997
 This molecule is an asymmetric top.
 Rotational symmetry number  1.
 Warning -- assumption of classical behavior for rotation
           may cause significant error
 Rotational temperatures (Kelvin)      0.10621     0.04404     0.03480
 Rotational constants (GHZ):           2.21305     0.91762     0.72521
 Zero-point vibrational energy     618967.0 (Joules/Mol)
                                  147.93666 (Kcal/Mol)
 Warning -- explicit consideration of  16 degrees of freedom as
           vibrations may cause significant error
 Vibrational temperatures:    115.27   122.26   183.52   233.74   294.77
          (Kelvin)            315.66   322.24   351.12   431.73   446.03
                              528.27   582.89   677.21   775.81   807.64
                              831.20   983.71  1041.99  1093.61  1199.11
                             1305.15  1326.64  1357.34  1405.85  1437.51
                             1448.94  1475.93  1541.84  1547.05  1552.26
                             1591.35  1628.53  1645.13  1691.55  1739.95
                             1794.98  1828.78  1857.44  1912.28  1932.73
                             1944.85  1989.09  2050.83  2064.37  2074.03
                             2105.73  2169.31  2176.26  2177.81  2187.30
                             2192.61  2200.26  2202.99  2209.82  2472.53
                             2478.17  4272.20  4341.48  4355.49  4364.29
                             4375.27  4382.28  4405.58  4428.70  4430.10
                             4464.54  4472.59  4479.77  4488.39  4513.32
                             4517.83  4542.48

 Zero-point correction=                           0.235752 (Hartree/Particle)
 Thermal correction to Energy=                    0.246805
 Thermal correction to Enthalpy=                  0.247749
 Thermal correction to Gibbs Free Energy=         0.199746
 Sum of electronic and zero-point Energies=           -390.486931
 Sum of electronic and thermal Energies=              -390.475879
 Sum of electronic and thermal Enthalpies=            -390.474934
 Sum of electronic and thermal Free Energies=         -390.522937

                     E (Thermal)             CV                S
                      KCal/Mol        Cal/Mol-Kelvin    Cal/Mol-Kelvin
 Total                  154.872             41.868            101.030
 Electronic               0.000              0.000              0.000
 Translational            0.889              2.981             40.637
 Rotational               0.889              2.981             29.769
 Vibrational            153.095             35.906             30.624
 Vibration     1          0.600              1.963              3.888
 Vibration     2          0.601              1.960              3.773
 Vibration     3          0.611              1.926              2.983
 Vibration     4          0.623              1.888              2.521
 Vibration     5          0.640              1.833              2.089
 Vibration     6          0.647              1.812              1.964
 Vibration     7          0.649              1.805              1.927
 Vibration     8          0.659              1.773              1.773
 Vibration     9          0.693              1.674              1.417
 Vibration    10          0.699              1.655              1.362
 Vibration    11          0.740              1.540              1.092
 Vibration    12          0.770              1.459              0.944
 Vibration    13          0.828              1.315              0.736
 Vibration    14          0.894              1.163              0.567
 Vibration    15          0.917              1.115              0.521
 Vibration    16          0.934              1.079              0.490

 Optimization completed.
    -- Stationary point found.
 Normal termination of Gaussian 16 at Tue Dec  8 12:25:21 2020.

 ----------------------------------------------------------------------
 # B3LYP/6-311++G(d,p) empiricaldispersion=gd3bj scf=xqc pop=npa geom=c
 heck
 ----------------------------------------------------------------------

 --------------------------------------
 CID_145609297_JID_676_Energie_neutraal
 --------------------------------------
 Structure from the checkpoint file:  "JID_676.chk"
 Charge =  0 Multiplicity = 1

 SCF Done:  E(RB3LYP) =  -390.828068308     A.U. after   14 cycles
 Normal termination of Gaussian 16 at Tue Dec  8 12:29:00 2020.

 ----------------------------------------------------------------------
 # B3LYP/6-311++G(d,p) empiricaldispersion=gd3bj scf=xqc pop=npa geom=c
 heck
 ----------------------------------------------------------------------

 ------------------------------------
 CID_145609297_JID_676_Energie_kation
 ------------------------------------
 Structure from the checkpoint file:  "JID_676.chk"
 Charge =  1 Multiplicity = 2

 SCF Done:  E(UB3LYP) =  -390.541102327     A.U. after   18 cycles
 Normal termination of Gaussian 16 at Tue Dec  8 12:32:57 2020.
 Gaussian 16:  ES64L-G16RevA.03 25-Dec-2016

 ----------------------------------------------------------------------
 # B3LYP/6-311++G(d,p) empiricaldispersion=gd3bj scf=xqc pop=npa geom=c
 heck
 ----------------------------------------------------------------------

 -----------------------------------
 CID_145609297_JID_676_Energie_anion
 -----------------------------------
 Structure from the checkpoint file:  "JID_676.chk"
 Charge = -1 Multiplicity = 2

                         Standard orientation:
 ---------------------------------------------------------------------
 Center     Atomic      Atomic             Coordinates (Angstroms)
 Number     Number       Type             X           Y           Z
 ---------------------------------------------------------------------
      1          6           0        2.879197    0.705245    0.879008
      2          6           0        2.798955   -0.253287   -0.272739
      3          6           0        1.691411   -0.854027   -0.737397
      4          6           0        0.317316   -0.670593   -0.257727
      5          6           0       -0.369919    0.480308   -0.111474
      6          6           0       -1.756954    0.228583    0.466276
      7          6           0       -1.945508   -1.292649    0.254659
      8          6           0       -0.519180   -1.869026    0.156091
      9          6           0       -2.883048    1.067844   -0.143854
     10          6           0        0.105893    1.860718   -0.441124
     11          1           0        1.940000    0.737844    1.437227
     12          1           0        3.106584    1.726485    0.543225
     13          1           0        3.684086    0.413726    1.565834
     14          1           0        3.747377   -0.505488   -0.747299
     15          1           0        1.814420   -1.600019   -1.525321
     16          1           0       -1.724489    0.448817    1.547516
     17          1           0       -2.549842   -1.758822    1.039465
     18          1           0       -2.467628   -1.449822   -0.697810
     19          1           0       -0.166232   -2.258847    1.122732
     20          1           0       -0.442346   -2.701566   -0.555542
     21          1           0       -3.852977    0.771220    0.271802
     22          1           0       -2.750454    2.137128    0.054825
     23          1           0       -2.926438    0.927705   -1.231043
     24          1           0        0.249946    2.466877    0.465003
     25          1           0        1.055726    1.833051   -0.980794
     26          1           0       -0.626715    2.393017   -1.060129
 ---------------------------------------------------------------------

 SCF Done:  E(UB3LYP) =  -390.809963752     A.U. after   32 cycles

 The electronic state is 2-A.
 Alpha  occ. eigenvalues --  -10.06594 -10.06354 -10.06012 -10.06009 -10.05909
 Alpha  occ. eigenvalues --  -10.05746 -10.05685 -10.05378 -10.05363 -10.05213
 Alpha  occ. eigenvalues --   -0.74752  -0.68584  -0.64204  -0.63498  -0.58997
 Alpha  occ. eigenvalues --   -0.54883  -0.53679  -0.46892  -0.44485  -0.38228
 Alpha  occ. eigenvalues --   -0.37399  -0.35137  -0.34793  -0.32597  -0.31518
 Alpha  occ. eigenvalues --   -0.30574  -0.30076  -0.27784  -0.27270  -0.26563
 Alpha  occ. eigenvalues --   -0.26018  -0.24526  -0.23725  -0.22934  -0.21972
 Alpha  occ. eigenvalues --   -0.20871  -0.15810  -0.11193   0.04855
 Alpha virt. eigenvalues --    0.06910   0.07648   0.08210   0.09019   0.09249
 Alpha virt. eigenvalues --    0.09850   0.10087   0.10580   0.11069   0.11594
 Alpha virt. eigenvalues --    0.12344   0.12998   0.13371   0.14212   0.14649

  Beta  occ. eigenvalues --  -10.06582 -10.06323 -10.06000 -10.05996 -10.05902
  Beta  occ. eigenvalues --  -10.05729 -10.05664 -10.05353 -10.05327 -10.05180
  Beta  occ. eigenvalues --   -0.74713  -0.68528  -0.64164  -0.63452  -0.58939
  Beta  occ. eigenvalues --   -0.54824  -0.53610  -0.46817  -0.44425  -0.38172
  Beta  occ. eigenvalues --   -0.37349  -0.35086  -0.34740  -0.32560  -0.31478
  Beta  occ. eigenvalues --   -0.30530  -0.30034  -0.27747  -0.27210  -0.26521
  Beta  occ. eigenvalues --   -0.25977  -0.24477  -0.23667  -0.22899  -0.21939
  Beta  occ. eigenvalues --   -0.20836  -0.15736  -0.11094
  Beta virt. eigenvalues --    0.07069   0.07928   0.08273   0.08694   0.09505
  Beta virt. eigenvalues --    0.09727   0.10291   0.10559   0.10922   0.11453
  Beta virt. eigenvalues --    0.12158   0.12736   0.13430   0.13660   0.14595

 Mulliken charges and spin densities:
               1          2
     1  C    1.330443  -2.069682
     2  C    0.740933  -0.940822
     3  C   -0.909627   0.530363
     4  C    1.049330  -0.426020
     5  C   -0.588972   0.813618
     6  C   -1.655708   2.090152
     7  C    0.840839  -1.475258
     8  C   -0.828838   0.474110
     9  C    1.185422  -1.995715
    10  C    0.499846  -1.123980
    11  H    0.043051   0.093021
    12  H   -0.198024   0.349615
    13  H   -0.455002   0.605211
    14  H   -0.592813   0.754157
    15  H   -0.205616   0.400177
    16  H   -0.239734   0.431625
    17  H    0.026064   0.106853
    18  H   -0.069945   0.213348
    19  H    0.089708   0.070322
    20  H   -0.198537   0.337173
    21  H   -0.398115   0.541937
    22  H   -0.246317   0.390247
    23  H   -0.096563   0.238001
    24  H   -0.351343   0.523513
    25  H    0.105820   0.036487
    26  H    0.123700   0.031547
 Sum of Mulliken charges =  -1.00000   1.00000

 Dipole moment (field-independent basis, Debye):
    X=             -1.7108    Y=             -1.5554    Z=             -1.1035  Tot=              2.5620
 Quadrupole moment (field-independent basis, Debye-Ang):
   XX=           -136.2255   YY=           -101.8843   ZZ=            -95.0914
   XY=              3.3747   XZ=              1.1023   YZ=             -4.8388

 Summary of Natural Population Analysis:

                                       Natural Population
                Natural  -----------------------------------------------
    Atom  No    Charge         Core      Valence    Rydberg      Total
 -----------------------------------------------------------------------
      C    1   -0.30847      0.99965     2.30200    0.00682     3.30847
      C    2   -0.07392      0.99955     2.06463    0.00974     3.07392
      C    3   -0.11234      0.99949     2.10083    0.01202     3.11234
      C    4   -0.03057      0.99940     2.01929    0.01188     3.03057
      C    5    0.00520      0.99942     1.98415    0.01124     2.99480
      C    6   -0.11960      0.99957     2.10922    0.01081     3.11960
      C    7   -0.17938      0.99963     2.17271    0.00704     3.17938
      C    8   -0.19021      0.99961     2.18381    0.00679     3.19021
      C    9   -0.28435      0.99965     2.27820    0.00650     3.28435
      C   10   -0.30233      0.99962     2.29634    0.00637     3.30233
      H   11    0.10516      0.00000     0.39329    0.00155     0.39484
      H   12    0.10369      0.00000     0.39505    0.00125     0.39631
      H   13    0.10353      0.00000     0.39491    0.00156     0.39647
      H   14    0.09200      0.00000     0.40636    0.00164     0.40800
      H   15    0.09867      0.00000     0.39985    0.00148     0.40133
      H   16    0.09647      0.00000     0.40130    0.00223     0.40353
      H   17    0.09719      0.00000     0.40163    0.00118     0.40281
      H   18    0.09338      0.00000     0.40513    0.00149     0.40662
      H   19    0.09650      0.00000     0.40212    0.00138     0.40350
      H   20    0.09755      0.00000     0.40098    0.00147     0.40245
      H   21    0.10017      0.00000     0.39852    0.00131     0.39983
      H   22    0.10009      0.00000     0.39874    0.00116     0.39991
      H   23    0.09564      0.00000     0.40315    0.00121     0.40436
      H   24    0.10520      0.00000     0.39332    0.00148     0.39480
      H   25    0.10832      0.00000     0.39051    0.00117     0.39168
      H   26    0.10239      0.00000     0.39648    0.00112     0.39761
 =======================================================================
   * Total *   -0.00000      9.99559    27.89252    0.11190    38.00000

 Normal termination of Gaussian 16 at Tue Dec  8 12:50:04 2020.
