 Gaussian 16, Revision A.03,

 -----------------------------------------------------------
 # opt freq B3LYP/6-31G(d) empiricaldispersion=gd3bj scf=xqc
 -----------------------------------------------------------

 ------------------------------
 CID_63033933_JID_2886_neutraal
 ------------------------------
 Symbolic Z-matrix:
 Charge =  0 Multiplicity = 1

 SCF Done:  E(RB3LYP) =  -954.415442246     A.U. after   14 cycles
 SCF Done:  E(RB3LYP) =  -954.270397129     A.U. after   14 cycles
 SCF Done:  E(RB3LYP) =  -954.418668206     A.U. after   13 cycles
 SCF Done:  E(RB3LYP) =  -954.421180750     A.U. after   12 cycles
 SCF Done:  E(RB3LYP) =  -954.420860860     A.U. after   12 cycles
 SCF Done:  E(RB3LYP) =  -954.421803093     A.U. after   12 cycles
 SCF Done:  E(RB3LYP) =  -954.421243504     A.U. after   12 cycles
 SCF Done:  E(RB3LYP) =  -954.422035275     A.U. after   11 cycles
 SCF Done:  E(RB3LYP) =  -954.422045652     A.U. after   11 cycles
 SCF Done:  E(RB3LYP) =  -954.422115368     A.U. after   11 cycles
 SCF Done:  E(RB3LYP) =  -954.422131341     A.U. after   10 cycles
 SCF Done:  E(RB3LYP) =  -954.422134569     A.U. after    9 cycles
 SCF Done:  E(RB3LYP) =  -954.422135674     A.U. after    7 cycles
 SCF Done:  E(RB3LYP) =  -954.422136267     A.U. after    7 cycles
 SCF Done:  E(RB3LYP) =  -954.422136366     A.U. after    7 cycles
 SCF Done:  E(RB3LYP) =  -954.422136439     A.U. after    7 cycles
 Optimization completed.
    -- Stationary point found.
 Normal termination of Gaussian 16 at Wed Dec  9 18:15:29 2020.

 --------------------------------------------------------------------
 #N Geom=AllCheck Guess=TCheck SCRF=Check GenChk RB3LYP/6-31G(d) Freq
 --------------------------------------------------------------------

 Structure from the checkpoint file:  "JID_2886.chk"
 ------------------------------
 CID_63033933_JID_2886_neutraal
 ------------------------------
 Charge =  0 Multiplicity = 1

 SCF Done:  E(RB3LYP) =  -954.422136439     A.U. after    1 cycles

  Exact polarizability: 108.405   1.063 108.820  11.231   1.867  98.235
 Approx polarizability: 146.984   0.488 150.543  21.582   2.247 155.927

                      1                      2                      3
                      A                      A                      A
 Frequencies --     53.2157                67.6255                79.4196
 Red. masses --      5.4797                 6.6153                 3.6032
 Frc consts  --      0.0091                 0.0178                 0.0134
 IR Inten    --      0.6445                 3.4682                 2.8510

                      4                      5                      6
                      A                      A                      A
 Frequencies --     90.4290               110.1093               145.3297
 Red. masses --      4.7653                 3.3053                 5.9865
 Frc consts  --      0.0230                 0.0236                 0.0745
 IR Inten    --      1.5138                 2.0118                 5.4574

                      7                      8                      9
                      A                      A                      A
 Frequencies --    154.1538               199.3698               200.8832
 Red. masses --      3.1860                 2.0794                 3.2079
 Frc consts  --      0.0446                 0.0487                 0.0763
 IR Inten    --      1.6346                 1.6957                 1.3928

                     10                     11                     12
                      A                      A                      A
 Frequencies --    223.5561               243.0641               254.3048
 Red. masses --      4.3915                 1.4092                 1.4087
 Frc consts  --      0.1293                 0.0491                 0.0537
 IR Inten    --      7.4232                30.5307                53.9056

                     13                     14                     15
                      A                      A                      A
 Frequencies --    302.0174               317.6071               355.9492
 Red. masses --      2.1028                 2.3288                 2.7083
 Frc consts  --      0.1130                 0.1384                 0.2022
 IR Inten    --      9.0292                 9.5335                 0.5452

                     16                     17                     18
                      A                      A                      A
 Frequencies --    383.4225               445.7922               465.3098
 Red. masses --      3.9191                 3.4187                 2.2390
 Frc consts  --      0.3395                 0.4003                 0.2856
 IR Inten    --      6.9857                 9.2310                 8.7184

                     19                     20                     21
                      A                      A                      A
 Frequencies --    538.3912               590.3023               631.2238
 Red. masses --      2.1846                 2.6509                 3.5651
 Frc consts  --      0.3731                 0.5442                 0.8369
 IR Inten    --     17.2493                28.6462                11.4229

                     22                     23                     24
                      A                      A                      A
 Frequencies --    636.6191               676.1894               723.1578
 Red. masses --      1.9608                 4.6383                 2.8545
 Frc consts  --      0.4682                 1.2495                 0.8795
 IR Inten    --     39.5829                 9.6681                37.5144

                     25                     26                     27
                      A                      A                      A
 Frequencies --    765.5260               840.0872               856.7772
 Red. masses --      1.7640                 1.7159                 2.0402
 Frc consts  --      0.6091                 0.7135                 0.8824
 IR Inten    --    106.5901                41.0228                10.7635

                     28                     29                     30
                      A                      A                      A
 Frequencies --    896.0273               938.9937               969.8800
 Red. masses --      3.0511                 1.9272                 1.9962
 Frc consts  --      1.4433                 1.0011                 1.1064
 IR Inten    --     12.6889                 4.9450                 1.6499

                     31                     32                     33
                      A                      A                      A
 Frequencies --    981.1570              1047.4792              1053.0511
 Red. masses --      2.2283                 1.9521                 1.8299
 Frc consts  --      1.2639                 1.2620                 1.1956
 IR Inten    --      3.5224                24.7248                18.1460

                     34                     35                     36
                      A                      A                      A
 Frequencies --   1090.0573              1097.3059              1153.9378
 Red. masses --      2.8610                 3.3702                 1.8809
 Frc consts  --      2.0029                 2.3909                 1.4756
 IR Inten    --     24.6626                40.8363                39.8087

                     37                     38                     39
                      A                      A                      A
 Frequencies --   1161.5157              1185.0377              1192.9491
 Red. masses --      1.5847                 2.4878                 1.1914
 Frc consts  --      1.2596                 2.0584                 0.9989
 IR Inten    --     69.9609               162.0227                21.2442

                     40                     41                     42
                      A                      A                      A
 Frequencies --   1210.8165              1242.1332              1259.6934
 Red. masses --      1.1891                 1.1286                 1.1054
 Frc consts  --      1.0271                 1.0259                 1.0334
 IR Inten    --     53.2367                11.0826                 5.4760

                     43                     44                     45
                      A                      A                      A
 Frequencies --   1268.2795              1313.2795              1323.5153
 Red. masses --      1.9471                 1.2556                 1.3649
 Frc consts  --      1.8453                 1.2759                 1.4087
 IR Inten    --      5.5719                10.3540                14.2820

                     46                     47                     48
                      A                      A                      A
 Frequencies --   1339.3868              1343.5768              1364.0870
 Red. masses --      1.2109                 1.3025                 1.2599
 Frc consts  --      1.2799                 1.3854                 1.3812
 IR Inten    --      8.0565                 9.7289                 9.6559

                     49                     50                     51
                      A                      A                      A
 Frequencies --   1404.8512              1424.8216              1462.5168
 Red. masses --      1.4090                 1.9942                 1.3988
 Frc consts  --      1.6384                 2.3853                 1.7628
 IR Inten    --      4.6457                34.1972                 3.6238

                     52                     53                     54
                      A                      A                      A
 Frequencies --   1482.1561              1499.9213              1504.9813
 Red. masses --      1.1623                 1.0951                 1.0946
 Frc consts  --      1.5044                 1.4516                 1.4607
 IR Inten    --      1.1851                14.5104                 3.5671

                     55                     56                     57
                      A                      A                      A
 Frequencies --   1508.4720              1524.1083              1537.8123
 Red. masses --      1.0872                 1.0700                 1.1375
 Frc consts  --      1.4575                 1.4644                 1.5849
 IR Inten    --      4.1517                 8.0626                 4.5080

                     58                     59                     60
                      A                      A                      A
 Frequencies --   1542.4053              1560.5505              1838.6712
 Red. masses --      1.0846                 1.1141                 9.7002
 Frc consts  --      1.5203                 1.5985                19.3215
 IR Inten    --      2.8872                15.0946               241.7042

                     61                     62                     63
                      A                      A                      A
 Frequencies --   2960.9692              2999.2863              3022.2267
 Red. masses --      1.0600                 1.0618                 1.0813
 Frc consts  --      5.4756                 5.6275                 5.8189
 IR Inten    --     74.6236                79.3505                18.4534

                     64                     65                     66
                      A                      A                      A
 Frequencies --   3047.5973              3048.6331              3062.8543
 Red. masses --      1.0692                 1.1011                 1.0753
 Frc consts  --      5.8508                 6.0297                 5.9435
 IR Inten    --     41.0739                40.4358                52.3156

                     67                     68                     69
                      A                      A                      A
 Frequencies --   3082.4287              3083.8158              3108.6396
 Red. masses --      1.0653                 1.0673                 1.0957
 Frc consts  --      5.9637                 5.9802                 6.2385
 IR Inten    --      9.2689                35.5070                15.4801

                     70                     71                     72
                      A                      A                      A
 Frequencies --   3115.7059              3147.4804              3164.0738
 Red. masses --      1.1004                 1.1008                 1.0969
 Frc consts  --      6.2941                 6.4252                 6.4704
 IR Inten    --     30.2318                 5.9357                 0.8756

                     73                     74                     75
                      A                      A                      A
 Frequencies --   3529.3622              3693.6153              3759.9920
 Red. masses --      1.0744                 1.0640                 1.0664
 Frc consts  --      7.8854                 8.5529                 8.8830
 IR Inten    --     45.8430                51.0188                23.3943

 - Thermochemistry -
 -------------------
 Temperature   298.150 Kelvin.  Pressure   1.00000 Atm.
 Atom     1 has atomic number  6 and mass  12.00000

 Molecular mass:   193.07727 amu.
 Principal axes and moments of inertia in atomic units:
                           1         2         3
     Eigenvalues --  2024.064632657.395463255.34115
           X            0.99902   0.01947   0.03980
           Y           -0.02107   0.99898   0.04003
           Z           -0.03898  -0.04083   0.99841
 This molecule is an asymmetric top.
 Rotational symmetry number  1.
 Warning -- assumption of classical behavior for rotation
           may cause significant error
 Rotational temperatures (Kelvin)      0.04279     0.03259     0.02661
 Rotational constants (GHZ):           0.89164     0.67914     0.55439
 Zero-point vibrational energy     603515.7 (Joules/Mol)
                                  144.24371 (Kcal/Mol)
 Warning -- explicit consideration of  20 degrees of freedom as
           vibrations may cause significant error
 Vibrational temperatures:     76.57    97.30   114.27   130.11   158.42
          (Kelvin)            209.10   221.79   286.85   289.03   321.65
                              349.72   365.89   434.54   456.97   512.13
                              551.66   641.40   669.48   774.62   849.31
                              908.19   915.95   972.89  1040.46  1101.42
                             1208.70  1232.71  1289.18  1351.00  1395.44
                             1411.67  1507.09  1515.11  1568.35  1578.78
                             1660.26  1671.16  1705.00  1716.39  1742.09
                             1787.15  1812.42  1824.77  1889.52  1904.24
                             1927.08  1933.11  1962.62  2021.27  2050.00
                             2104.24  2132.49  2158.05  2165.33  2170.35
                             2192.85  2212.57  2219.18  2245.28  2645.44
                             4260.17  4315.30  4348.31  4384.81  4386.30
                             4406.76  4434.93  4436.92  4472.64  4482.81
                             4528.52  4552.40  5077.97  5314.29  5409.79

 Zero-point correction=                           0.229867 (Hartree/Particle)
 Thermal correction to Energy=                    0.244119
 Thermal correction to Enthalpy=                  0.245063
 Thermal correction to Gibbs Free Energy=         0.188768
 Sum of electronic and zero-point Energies=           -954.192269
 Sum of electronic and thermal Energies=              -954.178018
 Sum of electronic and thermal Enthalpies=            -954.177073
 Sum of electronic and thermal Free Energies=         -954.233368

                     E (Thermal)             CV                S
                      KCal/Mol        Cal/Mol-Kelvin    Cal/Mol-Kelvin
 Total                  153.187             51.437            118.483
 Electronic               0.000              0.000              0.000
 Translational            0.889              2.981             41.679
 Rotational               0.889              2.981             31.238
 Vibrational            151.409             45.475             45.566
 Vibration     1          0.596              1.976              4.694
 Vibration     2          0.598              1.970              4.221
 Vibration     3          0.600              1.963              3.905
 Vibration     4          0.602              1.956              3.651
 Vibration     5          0.606              1.941              3.267
 Vibration     6          0.617              1.908              2.732
 Vibration     7          0.620              1.898              2.620
 Vibration     8          0.637              1.841              2.139
 Vibration     9          0.638              1.839              2.125
 Vibration    10          0.649              1.805              1.930
 Vibration    11          0.659              1.774              1.780
 Vibration    12          0.665              1.756              1.701
 Vibration    13          0.694              1.670              1.406
 Vibration    14          0.704              1.640              1.322
 Vibration    15          0.731              1.563              1.140
 Vibration    16          0.753              1.506              1.026
 Vibration    17          0.805              1.370              0.809
 Vibration    18          0.823              1.327              0.751
 Vibration    19          0.893              1.165              0.569
 Vibration    20          0.948              1.052              0.467

 Optimization completed.
    -- Stationary point found.
 Normal termination of Gaussian 16 at Wed Dec  9 18:23:21 2020.

 ----------------------------------------------------------------------
 # B3LYP/6-311++G(d,p) empiricaldispersion=gd3bj scf=xqc pop=npa geom=c
 heck
 ----------------------------------------------------------------------

 --------------------------------------
 CID_63033933_JID_2886_Energie_neutraal
 --------------------------------------
 Structure from the checkpoint file:  "JID_2886.chk"
 Charge =  0 Multiplicity = 1

 SCF Done:  E(RB3LYP) =  -954.635653760     A.U. after   14 cycles
 Normal termination of Gaussian 16 at Wed Dec  9 18:26:48 2020.

 ----------------------------------------------------------------------
 # B3LYP/6-311++G(d,p) empiricaldispersion=gd3bj scf=xqc pop=npa geom=c
 heck
 ----------------------------------------------------------------------

 ------------------------------------
 CID_63033933_JID_2886_Energie_kation
 ------------------------------------
 Structure from the checkpoint file:  "JID_2886.chk"
 Charge =  1 Multiplicity = 2

 SCF Done:  E(UB3LYP) =  -954.345097314     A.U. after   25 cycles
 Normal termination of Gaussian 16 at Wed Dec  9 18:34:36 2020.
 Gaussian 16:  ES64L-G16RevA.03 25-Dec-2016

 ----------------------------------------------------------------------
 # B3LYP/6-311++G(d,p) empiricaldispersion=gd3bj scf=xqc pop=npa geom=c
 heck
 ----------------------------------------------------------------------

 -----------------------------------
 CID_63033933_JID_2886_Energie_anion
 -----------------------------------
 Structure from the checkpoint file:  "JID_2886.chk"
 Charge = -1 Multiplicity = 2

                         Standard orientation:
 ---------------------------------------------------------------------
 Center     Atomic      Atomic             Coordinates (Angstroms)
 Number     Number       Type             X           Y           Z
 ---------------------------------------------------------------------
      1          6           0        1.190729    2.811093    0.156933
      2          7           0        1.110964    1.556001   -0.570917
      3          6           0        1.686357    0.419068    0.121585
      4          6           0        1.125982    0.096119    1.536203
      5          6           0       -0.397672    0.035655    1.658203
      6         16           0       -1.219162   -1.446050    0.925915
      7          6           0       -1.878461   -0.895821   -0.698761
      8          6           0       -2.826041    0.291938   -0.689019
      9          8           0       -2.051972    1.490269   -0.566068
     10          6           0        1.643172   -0.798644   -0.790051
     11          8           0        1.047448   -0.891493   -1.841294
     12          8           0        2.398660   -1.808558   -0.294567
     13          1           0        2.242330    3.048642    0.361792
     14          1           0        0.650894    2.837252    1.120704
     15          1           0        0.787073    3.610276   -0.472881
     16          1           0        0.149801    1.369009   -0.846749
     17          1           0        2.756689    0.626607    0.267548
     18          1           0        1.575122   -0.836198    1.892368
     19          1           0        1.471333    0.888349    2.213380
     20          1           0       -0.662024   -0.006613    2.719479
     21          1           0       -0.872131    0.923056    1.238451
     22          1           0       -1.061274   -0.714946   -1.400601
     23          1           0       -2.424709   -1.778583   -1.048551
     24          1           0       -3.383377    0.301546   -1.638967
     25          1           0       -3.548506    0.203957    0.134360
     26          1           0       -2.653136    2.249053   -0.601937
     27          1           0        2.284271   -2.554799   -0.911745
 ---------------------------------------------------------------------

 SCF Done:  E(UB3LYP) =  -954.625348618     A.U. after   32 cycles

 The electronic state is 2-A.
 Alpha  occ. eigenvalues --  -88.73116 -19.07742 -19.01841 -19.01781 -14.18734
 Alpha  occ. eigenvalues --  -10.20697 -10.11422 -10.11376 -10.08941 -10.08826
 Alpha  occ. eigenvalues --  -10.07910 -10.07409  -7.81724  -5.78120  -5.77738
 Alpha  occ. eigenvalues --   -5.77107  -1.01689  -0.92596  -0.91761  -0.80562
 Alpha  occ. eigenvalues --   -0.70624  -0.67277  -0.63325  -0.58018  -0.55366
 Alpha  occ. eigenvalues --   -0.52494  -0.48706  -0.45788  -0.42393  -0.41664
 Alpha  occ. eigenvalues --   -0.39872  -0.37922  -0.37010  -0.34907  -0.34566
 Alpha  occ. eigenvalues --   -0.32556  -0.32516  -0.31552  -0.30679  -0.29791
 Alpha  occ. eigenvalues --   -0.28001  -0.27559  -0.26699  -0.25842  -0.24680
 Alpha  occ. eigenvalues --   -0.23928  -0.22691  -0.19882  -0.18504  -0.17167
 Alpha  occ. eigenvalues --   -0.12137  -0.11878   0.04452
 Alpha virt. eigenvalues --    0.06469   0.06929   0.08281   0.08618   0.09185
 Alpha virt. eigenvalues --    0.09915   0.10449   0.11049   0.11329   0.11664
 Alpha virt. eigenvalues --    0.12822   0.13113   0.13911   0.14694   0.14785

  Beta  occ. eigenvalues --  -88.73115 -19.07727 -19.01823 -19.01719 -14.18729
  Beta  occ. eigenvalues --  -10.20666 -10.11417 -10.11335 -10.08940 -10.08808
  Beta  occ. eigenvalues --  -10.07878 -10.07390  -7.81722  -5.78118  -5.77737
  Beta  occ. eigenvalues --   -5.77107  -1.01650  -0.92562  -0.91632  -0.80546
  Beta  occ. eigenvalues --   -0.70594  -0.67229  -0.63269  -0.57954  -0.55302
  Beta  occ. eigenvalues --   -0.52420  -0.48665  -0.45740  -0.42274  -0.41572
  Beta  occ. eigenvalues --   -0.39838  -0.37875  -0.36958  -0.34871  -0.34516
  Beta  occ. eigenvalues --   -0.32517  -0.32473  -0.31512  -0.30634  -0.29756
  Beta  occ. eigenvalues --   -0.27962  -0.27526  -0.26670  -0.25791  -0.24639
  Beta  occ. eigenvalues --   -0.23877  -0.22619  -0.19854  -0.18478  -0.17110
  Beta  occ. eigenvalues --   -0.12125  -0.11862
  Beta virt. eigenvalues --    0.06597   0.07360   0.07844   0.08813   0.09243
  Beta virt. eigenvalues --    0.09665   0.10307   0.10927   0.11345   0.11630
  Beta virt. eigenvalues --    0.12141   0.13013   0.13386   0.14058   0.14789

 Mulliken charges and spin densities:
               1          2
     1  C    0.639389  -1.009993
     2  N   -0.278706   0.142407
     3  C    0.241255  -0.363966
     4  C   -0.444094  -0.103426
     5  C   -0.148939  -0.217383
     6  S    0.561892  -0.369333
     7  C   -1.341098   0.906898
     8  C    1.547585  -2.010938
     9  O   -0.405098   0.080125
    10  C   -0.155007   0.022383
    11  O   -0.259641   0.003291
    12  O   -0.128711   0.022791
    13  H   -0.064872   0.201985
    14  H   -0.297663   0.434919
    15  H   -0.223430   0.370084
    16  H    0.422326  -0.116214
    17  H   -0.085077   0.288698
    18  H    0.116133   0.051334
    19  H   -0.139518   0.300764
    20  H   -0.165037   0.425388
    21  H    0.380615  -0.169036
    22  H    0.304037  -0.065676
    23  H   -0.045107   0.261415
    24  H   -0.492973   0.637342
    25  H   -0.324791   0.476710
    26  H   -0.333128   0.641754
    27  H    0.119658   0.157677
 Sum of Mulliken charges =  -1.00000   1.00000

 Dipole moment (field-independent basis, Debye):
    X=              4.7212    Y=             -5.6709    Z=              0.4913  Tot=              7.3953
 Quadrupole moment (field-independent basis, Debye-Ang):
   XX=           -135.3666   YY=           -124.7235   ZZ=           -116.2752
   XY=              8.1594   XZ=             -3.4134   YZ=              2.9934

 Summary of Natural Population Analysis:

                                       Natural Population
                Natural  -----------------------------------------------
    Atom  No    Charge         Core      Valence    Rydberg      Total
 -----------------------------------------------------------------------
      C    1   -0.17851      0.99966     2.17003    0.00882     3.17851
      N    2   -0.34646      0.99974     2.83534    0.01138     3.84646
      C    3   -0.05468      0.99954     2.04076    0.01438     3.05468
      C    4   -0.20236      0.99959     2.19236    0.01040     3.20236
      C    5   -0.26139      0.99956     2.25007    0.01175     3.26139
      S    6    0.07312      4.99963     2.91128    0.01597     7.92688
      C    7   -0.26514      0.99956     2.25460    0.01098     3.26514
      C    8   -0.01433      0.99958     2.00071    0.01404     3.01433
      O    9   -0.38259      0.99989     3.37391    0.00879     4.38259
      C   10    0.41486      0.99969     1.55790    0.02755     2.58514
      O   11   -0.30727      0.99986     3.30108    0.00632     4.30727
      O   12   -0.34822      0.99987     3.34228    0.00607     4.34822
      H   13    0.08760      0.00000     0.41136    0.00104     0.41240
      H   14    0.08078      0.00000     0.41757    0.00166     0.41922
      H   15    0.09850      0.00000     0.40049    0.00101     0.40150
      H   16    0.19286      0.00000     0.30217    0.00496     0.30714
      H   17    0.10703      0.00000     0.39145    0.00152     0.39297
      H   18    0.10586      0.00000     0.39254    0.00159     0.39414
      H   19    0.10328      0.00000     0.39532    0.00140     0.39672
      H   20    0.10501      0.00000     0.39383    0.00116     0.39499
      H   21    0.12244      0.00000     0.37487    0.00269     0.37756
      H   22    0.11757      0.00000     0.38007    0.00236     0.38243
      H   23    0.10604      0.00000     0.39291    0.00105     0.39396
      H   24    0.08204      0.00000     0.41585    0.00210     0.41796
      H   25    0.08138      0.00000     0.41616    0.00246     0.41862
      H   26    0.24424      0.00000     0.23407    0.02169     0.25576
      H   27    0.23832      0.00000     0.25807    0.00361     0.26168
 =======================================================================
   * Total *   -0.00000     15.99617    35.80705    0.19677    52.00000

 Normal termination of Gaussian 16 at Wed Dec  9 18:44:29 2020.
