 Gaussian 16, Revision A.03,

 -----------------------------------------------------------
 # opt freq B3LYP/6-31G(d) empiricaldispersion=gd3bj scf=xqc
 -----------------------------------------------------------

 -------------------------------
 CID_116280196_JID_6977_neutraal
 -------------------------------
 Symbolic Z-matrix:
 Charge =  0 Multiplicity = 1

 SCF Done:  E(RB3LYP) =  -732.951269590     A.U. after   14 cycles
 SCF Done:  E(RB3LYP) =  -732.953342579     A.U. after   12 cycles
 SCF Done:  E(RB3LYP) =  -732.952148079     A.U. after   12 cycles
 SCF Done:  E(RB3LYP) =  -732.953197112     A.U. after   12 cycles
 SCF Done:  E(RB3LYP) =  -732.954995810     A.U. after   10 cycles
 SCF Done:  E(RB3LYP) =  -732.956017519     A.U. after   12 cycles
 SCF Done:  E(RB3LYP) =  -732.955687311     A.U. after   11 cycles
 SCF Done:  E(RB3LYP) =  -732.956408840     A.U. after   11 cycles
 SCF Done:  E(RB3LYP) =  -732.956296343     A.U. after   11 cycles
 SCF Done:  E(RB3LYP) =  -732.956472996     A.U. after   11 cycles
 SCF Done:  E(RB3LYP) =  -732.956540358     A.U. after   10 cycles
 SCF Done:  E(RB3LYP) =  -732.956546555     A.U. after    9 cycles
 SCF Done:  E(RB3LYP) =  -732.956548839     A.U. after    9 cycles
 SCF Done:  E(RB3LYP) =  -732.956549468     A.U. after    8 cycles
 SCF Done:  E(RB3LYP) =  -732.956549635     A.U. after    7 cycles
 Optimization completed.
    -- Stationary point found.
 Normal termination of Gaussian 16 at Fri Dec 11 01:24:55 2020.

 --------------------------------------------------------------------
 #N Geom=AllCheck Guess=TCheck SCRF=Check GenChk RB3LYP/6-31G(d) Freq
 --------------------------------------------------------------------

 Structure from the checkpoint file:  "JID_6977.chk"
 -------------------------------
 CID_116280196_JID_6977_neutraal
 -------------------------------
 Charge =  0 Multiplicity = 1

 SCF Done:  E(RB3LYP) =  -732.956549635     A.U. after    1 cycles

  Exact polarizability: 172.836   2.349 143.628   1.087  -4.772 125.073
 Approx polarizability: 205.455  -2.539 213.251   1.465 -15.803 185.414

                      1                      2                      3
                      A                      A                      A
 Frequencies --     24.1948                32.2015                47.8472
 Red. masses --      3.8806                 3.4860                 3.5524
 Frc consts  --      0.0013                 0.0021                 0.0048
 IR Inten    --      0.3430                 0.0982                 0.1702

                      4                      5                      6
                      A                      A                      A
 Frequencies --     58.6831                86.9427                91.3484
 Red. masses --      4.2155                 3.1513                 3.1356
 Frc consts  --      0.0086                 0.0140                 0.0154
 IR Inten    --      2.1589                 0.3387                 0.8758

                      7                      8                      9
                      A                      A                      A
 Frequencies --    121.4365               123.7820               144.2812
 Red. masses --      3.0437                 2.1170                 3.4125
 Frc consts  --      0.0264                 0.0191                 0.0419
 IR Inten    --      1.7765                 0.9601                 0.1504

                     10                     11                     12
                      A                      A                      A
 Frequencies --    153.4528               193.3847               218.9435
 Red. masses --      2.9168                 1.8700                 1.2888
 Frc consts  --      0.0405                 0.0412                 0.0364
 IR Inten    --      0.1781                 0.1320                 0.9084

                     13                     14                     15
                      A                      A                      A
 Frequencies --    225.4111               234.6474               241.8891
 Red. masses --      1.4836                 1.1792                 1.9513
 Frc consts  --      0.0444                 0.0383                 0.0673
 IR Inten    --      0.7784                 0.2722                 1.2544

                     16                     17                     18
                      A                      A                      A
 Frequencies --    244.7694               247.6115               290.3432
 Red. masses --      1.5776                 1.9506                 2.2013
 Frc consts  --      0.0557                 0.0705                 0.1093
 IR Inten    --      0.4980                 1.1263                 1.0661

                     19                     20                     21
                      A                      A                      A
 Frequencies --    294.3125               313.6402               338.9795
 Red. masses --      2.4049                 1.7048                 1.3595
 Frc consts  --      0.1227                 0.0988                 0.0920
 IR Inten    --      8.5102                19.5021                70.8752

                     22                     23                     24
                      A                      A                      A
 Frequencies --    363.9010               370.9899               406.2379
 Red. masses --      3.8903                 3.1250                 3.0430
 Frc consts  --      0.3035                 0.2534                 0.2959
 IR Inten    --      4.6241                 2.6602                10.5253

                     25                     26                     27
                      A                      A                      A
 Frequencies --    417.2389               437.5640               466.6356
 Red. masses --      2.1241                 2.1336                 3.7018
 Frc consts  --      0.2179                 0.2407                 0.4749
 IR Inten    --      3.1896                 0.5556                 3.7190

                     28                     29                     30
                      A                      A                      A
 Frequencies --    477.2244               559.3444               609.4310
 Red. masses --      3.5637                 3.3369                 2.0433
 Frc consts  --      0.4782                 0.6151                 0.4471
 IR Inten    --      4.6480                16.4214                 2.9556

                     31                     32                     33
                      A                      A                      A
 Frequencies --    651.4786               703.3566               740.6220
 Red. masses --      3.7058                 2.8865                 3.7069
 Frc consts  --      0.9267                 0.8413                 1.1980
 IR Inten    --      9.6696                 4.3734                22.4955

                     34                     35                     36
                      A                      A                      A
 Frequencies --    763.0971               788.8914               798.6467
 Red. masses --      2.0967                 1.1788                 1.3659
 Frc consts  --      0.7193                 0.4322                 0.5133
 IR Inten    --      4.2155                 3.2716                43.6303

                     37                     38                     39
                      A                      A                      A
 Frequencies --    819.4360               853.8419               882.9533
 Red. masses --      1.4551                 1.4925                 1.5518
 Frc consts  --      0.5757                 0.6411                 0.7128
 IR Inten    --     12.0968                10.5993                 9.9002

                     40                     41                     42
                      A                      A                      A
 Frequencies --    897.7138               926.5020               948.8638
 Red. masses --      2.0197                 1.8256                 1.7370
 Frc consts  --      0.9590                 0.9233                 0.9214
 IR Inten    --     19.6212                 8.6543                19.1501

                     43                     44                     45
                      A                      A                      A
 Frequencies --    959.6165              1001.7910              1022.5708
 Red. masses --      2.1325                 2.5114                 1.6581
 Frc consts  --      1.1570                 1.4850                 1.0215
 IR Inten    --      1.6958                16.4749                 9.2351

                     46                     47                     48
                      A                      A                      A
 Frequencies --   1025.3762              1058.7015              1065.6557
 Red. masses --      2.0140                 2.1060                 2.5041
 Frc consts  --      1.2476                 1.3908                 1.6754
 IR Inten    --      2.1319                 3.7550                 6.0725

                     49                     50                     51
                      A                      A                      A
 Frequencies --   1079.1851              1091.9295              1103.3118
 Red. masses --      1.8632                 2.1790                 1.9886
 Frc consts  --      1.2785                 1.5307                 1.4263
 IR Inten    --     28.9731                 2.4007                 7.1255

                     52                     53                     54
                      A                      A                      A
 Frequencies --   1123.8455              1134.6665              1145.9583
 Red. masses --      1.7563                 1.6734                 2.0708
 Frc consts  --      1.3069                 1.2694                 1.6022
 IR Inten    --     18.0478                12.0378                24.0017

                     55                     56                     57
                      A                      A                      A
 Frequencies --   1150.1396              1171.0113              1196.7291
 Red. masses --      2.3049                 2.5615                 2.0647
 Frc consts  --      1.7964                 2.0695                 1.7422
 IR Inten    --     62.2865                53.5977                11.3243

                     58                     59                     60
                      A                      A                      A
 Frequencies --   1221.4686              1246.8492              1259.3711
 Red. masses --      2.2557                 1.1817                 1.4076
 Frc consts  --      1.9829                 1.0824                 1.3153
 IR Inten    --     39.7528                14.6042                17.3038

                     61                     62                     63
                      A                      A                      A
 Frequencies --   1268.8608              1301.5207              1311.0903
 Red. masses --      2.3105                 1.2108                 1.2125
 Frc consts  --      2.1917                 1.2084                 1.2280
 IR Inten    --     21.9959                 1.6654                 6.2545

                     64                     65                     66
                      A                      A                      A
 Frequencies --   1324.9852              1344.5981              1353.2676
 Red. masses --      1.4079                 1.2673                 1.2530
 Frc consts  --      1.4563                 1.3500                 1.3520
 IR Inten    --     46.1508                 7.6721                 6.2757

                     67                     68                     69
                      A                      A                      A
 Frequencies --   1364.9155              1384.2738              1397.8367
 Red. masses --      1.4023                 1.2584                 1.2729
 Frc consts  --      1.5392                 1.4208                 1.4654
 IR Inten    --     25.1907                17.9155                15.6448

                     70                     71                     72
                      A                      A                      A
 Frequencies --   1405.0314              1413.1733              1420.3958
 Red. masses --      1.3981                 1.3240                 1.4036
 Frc consts  --      1.6261                 1.5578                 1.6684
 IR Inten    --      1.0506                30.7483                13.9479

                     73                     74                     75
                      A                      A                      A
 Frequencies --   1426.3608              1428.7724              1432.1078
 Red. masses --      1.2364                 1.4092                 1.2937
 Frc consts  --      1.4820                 1.6950                 1.5633
 IR Inten    --      4.3796                 3.9095                18.3135

                     76                     77                     78
                      A                      A                      A
 Frequencies --   1437.9329              1441.6480              1461.4747
 Red. masses --      1.2858                 1.2685                 1.4617
 Frc consts  --      1.5664                 1.5533                 1.8395
 IR Inten    --     29.9782                 6.5495                16.0799

                     79                     80                     81
                      A                      A                      A
 Frequencies --   1475.0369              1498.8430              1506.1413
 Red. masses --      1.9792                 1.0934                 1.1178
 Frc consts  --      2.5372                 1.4472                 1.4940
 IR Inten    --     96.3288                10.4571                 4.8900

                     82                     83                     84
                      A                      A                      A
 Frequencies --   1514.2766              1519.5311              1521.1997
 Red. masses --      1.0512                 1.0633                 1.0618
 Frc consts  --      1.4202                 1.4465                 1.4476
 IR Inten    --      2.4414                 3.1543                 1.2392

                     85                     86                     87
                      A                      A                      A
 Frequencies --   1522.3699              1527.8683              1530.2867
 Red. masses --      1.0737                 1.0565                 1.1267
 Frc consts  --      1.4661                 1.4531                 1.5546
 IR Inten    --      0.4292                15.8944                62.2836

                     88                     89                     90
                      A                      A                      A
 Frequencies --   1531.3233              1538.9522              1539.4821
 Red. masses --      1.0552                 1.0763                 1.0627
 Frc consts  --      1.4578                 1.5019                 1.4839
 IR Inten    --      7.8016                 5.5978                 2.4625

                     91                     92                     93
                      A                      A                      A
 Frequencies --   1542.9446              1559.0967              1583.1292
 Red. masses --      1.0730                 1.0915                 1.1207
 Frc consts  --      1.5051                 1.5632                 1.6549
 IR Inten    --     13.5478                 4.7507                56.2803

                     94                     95                     96
                      A                      A                      A
 Frequencies --   1734.1235              2941.9243              2981.0266
 Red. masses --      9.1401                 1.0735                 1.0840
 Frc consts  --     16.1943                 5.4739                 5.6755
 IR Inten    --    259.5967                85.0813                63.2690

                     97                     98                     99
                      A                      A                      A
 Frequencies --   3018.6141              3043.4898              3047.2539
 Red. masses --      1.0697                 1.0733                 1.0801
 Frc consts  --      5.7429                 5.8573                 5.9095
 IR Inten    --     38.9365                25.0747                23.0837

                    100                    101                    102
                      A                      A                      A
 Frequencies --   3048.3512              3051.1789              3057.2621
 Red. masses --      1.0371                 1.0386                 1.0381
 Frc consts  --      5.6780                 5.6968                 5.7170
 IR Inten    --     28.7082                18.3191                16.3724

                    103                    104                    105
                      A                      A                      A
 Frequencies --   3059.6021              3067.2259              3068.6252
 Red. masses --      1.0388                 1.0644                 1.0605
 Frc consts  --      5.7292                 5.9000                 5.8836
 IR Inten    --     36.6816                42.5299                47.0126

                    106                    107                    108
                      A                      A                      A
 Frequencies --   3080.3203              3091.2614              3104.4535
 Red. masses --      1.0917                 1.0873                 1.1033
 Frc consts  --      6.1032                 6.1218                 6.2651
 IR Inten    --     28.1421                 4.3321                31.0048

                    109                    110                    111
                      A                      A                      A
 Frequencies --   3113.4284              3115.8602              3116.9626
 Red. masses --      1.1031                 1.1007                 1.1006
 Frc consts  --      6.2999                 6.2963                 6.3003
 IR Inten    --      6.5116                47.6575                43.9538

                    112                    113                    114
                      A                      A                      A
 Frequencies --   3119.7288              3125.0400              3127.0881
 Red. masses --      1.1015                 1.1016                 1.1025
 Frc consts  --      6.3165                 6.3386                 6.3519
 IR Inten    --     38.5541                15.4095                33.8105

                    115                    116                    117
                      A                      A                      A
 Frequencies --   3128.0777              3151.3585              3158.9434
 Red. masses --      1.0992                 1.0891                 1.1020
 Frc consts  --      6.3372                 6.3727                 6.4790
 IR Inten    --     38.8142                38.9017                11.2871

                    118                    119                    120
                      A                      A                      A
 Frequencies --   3163.8060              3532.9596              3738.1278
 Red. masses --      1.1015                 1.0744                 1.0660
 Frc consts  --      6.4959                 7.9014                 8.7766
 IR Inten    --     24.3506                36.4614                10.0467

 - Thermochemistry -
 -------------------
 Temperature   298.150 Kelvin.  Pressure   1.00000 Atm.
 Atom     1 has atomic number  6 and mass  12.00000

 Molecular mass:   230.19943 amu.
 Principal axes and moments of inertia in atomic units:
                           1         2         3
     Eigenvalues --  1912.519296960.918637718.68877
           X            0.99979   0.02043   0.00186
           Y           -0.02047   0.99960   0.01930
           Z           -0.00146  -0.01933   0.99981
 This molecule is an asymmetric top.
 Rotational symmetry number  1.
 Warning -- assumption of classical behavior for rotation
           may cause significant error
 Rotational temperatures (Kelvin)      0.04529     0.01244     0.01122
 Rotational constants (GHZ):           0.94365     0.25927     0.23381
 Zero-point vibrational energy    1007764.5 (Joules/Mol)
                                  240.86150 (Kcal/Mol)
 Warning -- explicit consideration of  30 degrees of freedom as
           vibrations may cause significant error
 Vibrational temperatures:     34.81    46.33    68.84    84.43   125.09
          (Kelvin)            131.43   174.72   178.09   207.59   220.78
                              278.24   315.01   324.32   337.61   348.02
                              352.17   356.26   417.74   423.45   451.26
                              487.72   523.57   533.77   584.49   600.31
                              629.56   671.38   686.62   804.77   876.84
                              937.33  1011.97  1065.59  1097.93  1135.04
                             1149.07  1178.99  1228.49  1270.37  1291.61
                             1333.03  1365.20  1380.67  1441.35  1471.25
                             1475.29  1523.24  1533.24  1552.71  1571.04
                             1587.42  1616.96  1632.53  1648.78  1654.79
                             1684.82  1721.83  1757.42  1793.94  1811.95
                             1825.61  1872.60  1886.37  1906.36  1934.58
                             1947.05  1963.81  1991.66  2011.18  2021.53
                             2033.24  2043.63  2052.22  2055.68  2060.48
                             2068.86  2074.21  2102.74  2122.25  2156.50
                             2167.00  2178.71  2186.27  2188.67  2190.35
                             2198.26  2201.74  2203.23  2214.21  2214.97
                             2219.95  2243.19  2277.77  2495.02  4232.77
                             4289.03  4343.11  4378.90  4384.32  4385.90
                             4389.97  4398.72  4402.09  4413.05  4415.07
                             4431.89  4447.64  4466.62  4479.53  4483.03
                             4484.61  4488.59  4496.24  4499.18  4500.61
                             4534.10  4545.02  4552.01  5083.14  5378.33

 Zero-point correction=                           0.383837 (Hartree/Particle)
 Thermal correction to Energy=                    0.403508
 Thermal correction to Enthalpy=                  0.404453
 Thermal correction to Gibbs Free Energy=         0.335315
 Sum of electronic and zero-point Energies=           -732.572712
 Sum of electronic and thermal Energies=              -732.553041
 Sum of electronic and thermal Enthalpies=            -732.552097
 Sum of electronic and thermal Free Energies=         -732.621234

                     E (Thermal)             CV                S
                      KCal/Mol        Cal/Mol-Kelvin    Cal/Mol-Kelvin
 Total                  253.205             72.470            145.512
 Electronic               0.000              0.000              0.000
 Translational            0.889              2.981             42.203
 Rotational               0.889              2.981             32.996
 Vibrational            251.428             66.508             70.312
 Vibration     1          0.593              1.985              6.256
 Vibration     2          0.594              1.983              5.689
 Vibration     3          0.595              1.978              4.904
 Vibration     4          0.596              1.974              4.501
 Vibration     5          0.601              1.958              3.728
 Vibration     6          0.602              1.955              3.631
 Vibration     7          0.609              1.931              3.077
 Vibration     8          0.610              1.929              3.040
 Vibration     9          0.616              1.909              2.746
 Vibration    10          0.619              1.899              2.629
 Vibration    11          0.635              1.849              2.195
 Vibration    12          0.647              1.812              1.968
 Vibration    13          0.650              1.802              1.915
 Vibration    14          0.654              1.788              1.843
 Vibration    15          0.658              1.776              1.789
 Vibration    16          0.660              1.771              1.768
 Vibration    17          0.661              1.767              1.748
 Vibration    18          0.686              1.692              1.472
 Vibration    19          0.689              1.684              1.449
 Vibration    20          0.701              1.648              1.343
 Vibration    21          0.719              1.598              1.217
 Vibration    22          0.737              1.547              1.105
 Vibration    23          0.743              1.532              1.076
 Vibration    24          0.771              1.457              0.940
 Vibration    25          0.780              1.433              0.901
 Vibration    26          0.798              1.388              0.834
 Vibration    27          0.824              1.324              0.747
 Vibration    28          0.834              1.301              0.718
 Vibration    29          0.915              1.119              0.525
 Vibration    30          0.968              1.012              0.434

                           ! Non-Optimized Parameters !
 Normal termination of Gaussian 16 at Fri Dec 11 01:40:32 2020.

 ----------------------------------------------------------------------
 # B3LYP/6-311++G(d,p) empiricaldispersion=gd3bj scf=xqc pop=npa geom=c
 heck
 ----------------------------------------------------------------------

 ---------------------------------------
 CID_116280196_JID_6977_Energie_neutraal
 ---------------------------------------
 Structure from the checkpoint file:  "JID_6977.chk"
 Charge =  0 Multiplicity = 1

 SCF Done:  E(RB3LYP) =  -733.179794741     A.U. after   14 cycles
 Normal termination of Gaussian 16 at Fri Dec 11 01:47:37 2020.

 ----------------------------------------------------------------------
 # B3LYP/6-311++G(d,p) empiricaldispersion=gd3bj scf=xqc pop=npa geom=c
 heck
 ----------------------------------------------------------------------

 -------------------------------------
 CID_116280196_JID_6977_Energie_kation
 -------------------------------------
 Structure from the checkpoint file:  "JID_6977.chk"
 Charge =  1 Multiplicity = 2

 SCF Done:  E(UB3LYP) =  -732.894922825     A.U. after   27 cycles
 Normal termination of Gaussian 16 at Fri Dec 11 02:05:43 2020.
 Gaussian 16:  ES64L-G16RevA.03 25-Dec-2016

 ----------------------------------------------------------------------
 # B3LYP/6-311++G(d,p) empiricaldispersion=gd3bj scf=xqc pop=npa geom=c
 heck
 ----------------------------------------------------------------------

 ------------------------------------
 CID_116280196_JID_6977_Energie_anion
 ------------------------------------
 Structure from the checkpoint file:  "JID_6977.chk"
 Charge = -1 Multiplicity = 2

                         Standard orientation:
 ---------------------------------------------------------------------
 Center     Atomic      Atomic             Coordinates (Angstroms)
 Number     Number       Type             X           Y           Z
 ---------------------------------------------------------------------
      1          6           0       -4.991245   -0.738196   -0.077969
      2          6           0       -3.847372    0.050866   -0.719287
      3          6           0       -3.143539    1.019449    0.238205
      4          6           0       -2.499873    0.360484    1.464961
      5          6           0       -1.544810   -0.800742    1.177016
      6          7           0       -0.339882   -0.327360    0.501064
      7          6           0        0.499863   -1.397389   -0.038775
      8          6           0        0.076668   -1.906765   -1.430387
      9          6           0        2.011576   -1.094826    0.002230
     10          8           0        2.765798   -1.963008    0.443636
     11          7           0        2.510239    0.087948   -0.477027
     12          6           0        1.731941    1.182000   -1.051632
     13          6           0        1.444240    2.327580   -0.078769
     14          6           0        3.958914    0.286317   -0.343310
     15          6           0        4.403202    0.618833    1.082563
     16          8           0       -2.107224    1.738008   -0.456700
     17          1           0       -4.622804   -1.427324    0.688941
     18          1           0       -5.525088   -1.331236   -0.827559
     19          1           0       -5.718020   -0.067775    0.396626
     20          1           0       -3.103244   -0.632449   -1.145826
     21          1           0       -4.243658    0.637750   -1.561677
     22          1           0       -3.889338    1.743142    0.607014
     23          1           0       -1.957735    1.137002    2.016543
     24          1           0       -3.305180    0.004043    2.117584
     25          1           0       -1.251517   -1.262444    2.128866
     26          1           0       -2.080429   -1.585441    0.610021
     27          1           0       -0.625350    0.328610   -0.219914
     28          1           0        0.424868   -2.237720    0.656968
     29          1           0        0.151467   -1.120258   -2.189769
     30          1           0        0.711328   -2.741899   -1.745265
     31          1           0       -0.961788   -2.256589   -1.406743
     32          1           0        2.288873    1.557093   -1.920034
     33          1           0        0.797613    0.786987   -1.450162
     34          1           0        2.371035    2.811743    0.245795
     35          1           0        0.813902    3.083409   -0.560999
     36          1           0        0.915154    1.941348    0.795035
     37          1           0        4.454383   -0.631361   -0.671927
     38          1           0        4.239616    1.091069   -1.031009
     39          1           0        4.132789   -0.200422    1.752519
     40          1           0        5.491142    0.750099    1.117563
     41          1           0        3.933966    1.539101    1.444445
     42          1           0       -2.500472    2.113739   -1.259855
 ---------------------------------------------------------------------

 SCF Done:  E(UB3LYP) =  -733.171358061     A.U. after   31 cycles

 The electronic state is 2-A.
 Alpha  occ. eigenvalues --  -19.02307 -18.98871 -14.24818 -14.19521 -10.17096
 Alpha  occ. eigenvalues --  -10.12268 -10.11625 -10.11591 -10.11242 -10.09866
 Alpha  occ. eigenvalues --  -10.07634 -10.07391 -10.07276 -10.06753 -10.06531
 Alpha  occ. eigenvalues --  -10.06394  -0.94226  -0.92398  -0.84206  -0.81295
 Alpha  occ. eigenvalues --   -0.70308  -0.68275  -0.67065  -0.65077  -0.63220
 Alpha  occ. eigenvalues --   -0.57704  -0.56316  -0.54507  -0.53278  -0.52479
 Alpha  occ. eigenvalues --   -0.47010  -0.45114  -0.42789  -0.40606  -0.39616
 Alpha  occ. eigenvalues --   -0.38522  -0.36724  -0.36514  -0.36060  -0.34509
 Alpha  occ. eigenvalues --   -0.33589  -0.33216  -0.32778  -0.32019  -0.31609
 Alpha  occ. eigenvalues --   -0.31205  -0.30358  -0.30158  -0.29284  -0.28250
 Alpha  occ. eigenvalues --   -0.27873  -0.27490  -0.27243  -0.26966  -0.26587
 Alpha  occ. eigenvalues --   -0.25061  -0.24691  -0.24471  -0.24108  -0.21871
 Alpha  occ. eigenvalues --   -0.17809  -0.16599  -0.15176  -0.12656   0.04038
 Alpha virt. eigenvalues --    0.05902   0.06776   0.07103   0.07789   0.08027
 Alpha virt. eigenvalues --    0.08521   0.09402   0.09899   0.10145   0.10427
 Alpha virt. eigenvalues --    0.10583   0.10865   0.11460   0.12162   0.12551

  Beta  occ. eigenvalues --  -19.02265 -18.98861 -14.24821 -14.19517 -10.17089
  Beta  occ. eigenvalues --  -10.12252 -10.11618 -10.11576 -10.11241 -10.09856
  Beta  occ. eigenvalues --  -10.07629 -10.07373 -10.07267 -10.06714 -10.06499
  Beta  occ. eigenvalues --  -10.06381  -0.94210  -0.92312  -0.84200  -0.81286
  Beta  occ. eigenvalues --   -0.70265  -0.68255  -0.67036  -0.65056  -0.63183
  Beta  occ. eigenvalues --   -0.57659  -0.56276  -0.54475  -0.53236  -0.52424
  Beta  occ. eigenvalues --   -0.46946  -0.45079  -0.42720  -0.40573  -0.39585
  Beta  occ. eigenvalues --   -0.38495  -0.36706  -0.36496  -0.36031  -0.34488
  Beta  occ. eigenvalues --   -0.33570  -0.33179  -0.32754  -0.31980  -0.31584
  Beta  occ. eigenvalues --   -0.31168  -0.30331  -0.30146  -0.29260  -0.28221
  Beta  occ. eigenvalues --   -0.27851  -0.27464  -0.27219  -0.26923  -0.26567
  Beta  occ. eigenvalues --   -0.25036  -0.24656  -0.24416  -0.24084  -0.21826
  Beta  occ. eigenvalues --   -0.17761  -0.16587  -0.15161  -0.12648
  Beta virt. eigenvalues --    0.06061   0.06573   0.07314   0.07678   0.08265
  Beta virt. eigenvalues --    0.08360   0.08698   0.09766   0.10197   0.10377
  Beta virt. eigenvalues --    0.10541   0.10828   0.11039   0.11763   0.12221

 Mulliken charges and spin densities:
               1          2
     1  C    0.905479  -1.577595
     2  C   -0.420822   0.239852
     3  C    0.613080  -0.597909
     4  C   -0.116466  -0.368994
     5  C    0.065013  -0.360743
     6  N    0.134026  -0.016985
     7  C   -0.857067   0.450062
     8  C    0.213111  -0.638320
     9  C   -0.407465   0.140112
    10  O   -0.311918   0.004034
    11  N    0.181158  -0.029083
    12  C   -0.313922   0.157402
    13  C    0.117651  -0.683237
    14  C   -0.055116  -0.051018
    15  C   -0.268104  -0.140839
    16  O   -0.248441  -0.006173
    17  H   -0.182865   0.309852
    18  H   -0.285379   0.430560
    19  H   -0.054939   0.199074
    20  H    0.026620   0.144966
    21  H   -0.835350   0.991381
    22  H   -0.493876   0.706598
    23  H    0.217121  -0.032877
    24  H   -0.130013   0.291240
    25  H    0.162219  -0.006190
    26  H    0.193332  -0.057761
    27  H    1.005720  -0.762739
    28  H    0.110528   0.089535
    29  H   -0.149614   0.316579
    30  H    0.071154   0.093061
    31  H    0.076188   0.071220
    32  H   -0.450776   0.647647
    33  H    0.064540   0.010504
    34  H    0.054848   0.065232
    35  H   -0.003423   0.138914
    36  H    0.106343   0.098799
    37  H    0.159795   0.022462
    38  H   -0.003909   0.124549
    39  H    0.153183   0.031635
    40  H    0.077996   0.048260
    41  H    0.118356   0.005094
    42  H   -0.237998   0.501841
 Sum of Mulliken charges =  -1.00000   1.00000

 Dipole moment (field-independent basis, Debye):
    X=              6.9755    Y=             -2.1930    Z=              3.6361  Tot=              8.1663
 Quadrupole moment (field-independent basis, Debye-Ang):
   XX=           -196.7607   YY=           -148.8716   ZZ=           -140.7607
   XY=             15.8606   XZ=            -12.5496   YZ=              8.5314

 Summary of Natural Population Analysis:

                                       Natural Population
                Natural  -----------------------------------------------
    Atom  No    Charge         Core      Valence    Rydberg      Total
 -----------------------------------------------------------------------
      C    1   -0.28646      0.99966     2.28117    0.00563     3.28646
      C    2   -0.20500      0.99962     2.19550    0.00988     3.20500
      C    3    0.06556      0.99955     1.91969    0.01520     2.93444
      C    4   -0.20221      0.99960     2.19285    0.00977     3.20221
      C    5   -0.08491      0.99962     2.07525    0.01003     3.08491
      N    6   -0.35933      0.99973     2.84896    0.01064     3.85933
      C    7   -0.04503      0.99956     2.03362    0.01185     3.04503
      C    8   -0.29224      0.99964     2.28678    0.00582     3.29224
      C    9    0.35408      0.99961     1.62310    0.02322     2.64592
      O   10   -0.33631      0.99988     3.33130    0.00512     4.33631
      N   11   -0.25573      0.99963     2.74508    0.01102     3.75573
      C   12   -0.08210      0.99961     2.07166    0.01082     3.08210
      C   13   -0.29395      0.99965     2.28882    0.00548     3.29395
      C   14   -0.08643      0.99963     2.07575    0.01105     3.08643
      C   15   -0.29179      0.99966     2.28791    0.00423     3.29179
      O   16   -0.38325      0.99989     3.37589    0.00747     4.38325
      H   17    0.09466      0.00000     0.40431    0.00103     0.40534
      H   18    0.10156      0.00000     0.39752    0.00092     0.39844
      H   19    0.09837      0.00000     0.40044    0.00118     0.40163
      H   20    0.09651      0.00000     0.40165    0.00184     0.40349
      H   21    0.10209      0.00000     0.39405    0.00386     0.39791
      H   22    0.08056      0.00000     0.41768    0.00176     0.41944
      H   23    0.10505      0.00000     0.39356    0.00139     0.39495
      H   24    0.10320      0.00000     0.39600    0.00080     0.39680
      H   25    0.09053      0.00000     0.40840    0.00107     0.40947
      H   26    0.07957      0.00000     0.41896    0.00147     0.42043
      H   27    0.19154      0.00000     0.30379    0.00467     0.30846
      H   28    0.10461      0.00000     0.39359    0.00180     0.39539
      H   29    0.09827      0.00000     0.40040    0.00133     0.40173
      H   30    0.10233      0.00000     0.39685    0.00082     0.39767
      H   31    0.10156      0.00000     0.39744    0.00099     0.39844
      H   32    0.09291      0.00000     0.40575    0.00134     0.40709
      H   33    0.09896      0.00000     0.39918    0.00187     0.40104
      H   34    0.09108      0.00000     0.40799    0.00093     0.40892
      H   35    0.10490      0.00000     0.39414    0.00096     0.39510
      H   36    0.11153      0.00000     0.38723    0.00124     0.38847
      H   37    0.10395      0.00000     0.39491    0.00114     0.39605
      H   38    0.09200      0.00000     0.40683    0.00117     0.40800
      H   39    0.10895      0.00000     0.39000    0.00105     0.39105
      H   40    0.09468      0.00000     0.40448    0.00084     0.40532
      H   41    0.09677      0.00000     0.40219    0.00104     0.40323
      H   42    0.23896      0.00000     0.25082    0.01022     0.26104
 =======================================================================
   * Total *   -0.00000     15.99454    47.80150    0.20396    64.00000

 Normal termination of Gaussian 16 at Fri Dec 11 02:26:27 2020.
