 Gaussian 16, Revision A.03,

 -----------------------------------------------------------
 # opt freq B3LYP/6-31G(d) empiricaldispersion=gd3bj scf=xqc
 -----------------------------------------------------------

 ------------------------------
 CID_19696324_JID_4752_neutraal
 ------------------------------
 Symbolic Z-matrix:
 Charge =  0 Multiplicity = 1

 SCF Done:  E(RB3LYP) =  -595.132978951     A.U. after   14 cycles
 SCF Done:  E(RB3LYP) =  -595.136769199     A.U. after   12 cycles
 SCF Done:  E(RB3LYP) =  -595.137266581     A.U. after   11 cycles
 SCF Done:  E(RB3LYP) =  -595.137426056     A.U. after   11 cycles
 SCF Done:  E(RB3LYP) =  -595.137513713     A.U. after   10 cycles
 SCF Done:  E(RB3LYP) =  -595.137585129     A.U. after   11 cycles
 SCF Done:  E(RB3LYP) =  -595.137608551     A.U. after   10 cycles
 SCF Done:  E(RB3LYP) =  -595.137616458     A.U. after    9 cycles
 SCF Done:  E(RB3LYP) =  -595.137618501     A.U. after    9 cycles
 SCF Done:  E(RB3LYP) =  -595.137618999     A.U. after    8 cycles
 SCF Done:  E(RB3LYP) =  -595.137619059     A.U. after    7 cycles
 Optimization completed.
    -- Stationary point found.
 Normal termination of Gaussian 16 at Thu Dec 10 10:33:31 2020.

 --------------------------------------------------------------------
 #N Geom=AllCheck Guess=TCheck SCRF=Check GenChk RB3LYP/6-31G(d) Freq
 --------------------------------------------------------------------

 Structure from the checkpoint file:  "JID_4752.chk"
 ------------------------------
 CID_19696324_JID_4752_neutraal
 ------------------------------
 Charge =  0 Multiplicity = 1

 SCF Done:  E(RB3LYP) =  -595.137619059     A.U. after    1 cycles

  Exact polarizability: 187.507  -6.930 134.130   6.647   6.662  69.739
 Approx polarizability: 275.126  -9.364 226.536   8.476  12.165 110.029

                      1                      2                      3
                      A                      A                      A
 Frequencies --     59.9296                88.2462               147.5043
 Red. masses --      4.7257                 3.4929                 4.2685
 Frc consts  --      0.0100                 0.0160                 0.0547
 IR Inten    --      0.6568                 0.8182                 7.4922

                      4                      5                      6
                      A                      A                      A
 Frequencies --    195.6646               218.7767               252.4674
 Red. masses --      4.1419                 2.9631                 3.7885
 Frc consts  --      0.0934                 0.0836                 0.1423
 IR Inten    --      3.1774                 2.9545                 7.8011

                      7                      8                      9
                      A                      A                      A
 Frequencies --    321.0123               356.8840               364.5636
 Red. masses --      3.4371                 1.1118                 3.4879
 Frc consts  --      0.2087                 0.0834                 0.2731
 IR Inten    --      3.1578                71.0055                 4.6534

                     10                     11                     12
                      A                      A                      A
 Frequencies --    388.7227               441.7708               467.6677
 Red. masses --      2.0314                 3.0690                 3.8678
 Frc consts  --      0.1809                 0.3529                 0.4984
 IR Inten    --      1.3310                 2.0497                 5.4883

                     13                     14                     15
                      A                      A                      A
 Frequencies --    515.5763               552.1032               571.1979
 Red. masses --      3.8782                 4.3881                 4.5491
 Frc consts  --      0.6074                 0.7881                 0.8745
 IR Inten    --      7.0397                 2.2832                 3.6188

                     16                     17                     18
                      A                      A                      A
 Frequencies --    586.5791               626.8116               653.0132
 Red. masses --      4.0181                 4.2585                 5.1613
 Frc consts  --      0.8146                 0.9858                 1.2967
 IR Inten    --      0.7298                 3.6221                 7.0767

                     19                     20                     21
                      A                      A                      A
 Frequencies --    716.1661               747.6847               762.0094
 Red. masses --      3.3146                 1.3007                 2.0482
 Frc consts  --      1.0016                 0.4284                 0.7007
 IR Inten    --      2.9387                15.0546                29.6693

                     22                     23                     24
                      A                      A                      A
 Frequencies --    765.6073               797.4557               835.3083
 Red. masses --      3.0111                 1.7017                 2.5753
 Frc consts  --      1.0399                 0.6376                 1.0587
 IR Inten    --      6.8119                16.5796                 7.7752

                     25                     26                     27
                      A                      A                      A
 Frequencies --    858.4087               862.5042               897.8257
 Red. masses --      1.6068                 2.7497                 2.9548
 Frc consts  --      0.6976                 1.2052                 1.4033
 IR Inten    --      0.7640                 5.6293                 2.6905

                     28                     29                     30
                      A                      A                      A
 Frequencies --    919.1195               929.9452               965.5153
 Red. masses --      1.3506                 3.0053                 1.2301
 Frc consts  --      0.6722                 1.5313                 0.6756
 IR Inten    --      1.0963                 8.4146                 0.0664

                     31                     32                     33
                      A                      A                      A
 Frequencies --    983.4995               992.6832              1013.1161
 Red. masses --      2.5094                 1.7763                 3.1302
 Frc consts  --      1.4301                 1.0313                 1.8930
 IR Inten    --      1.2013                 7.5963                25.0584

                     34                     35                     36
                      A                      A                      A
 Frequencies --   1046.6406              1097.9673              1119.0188
 Red. masses --      2.0673                 1.7309                 1.9928
 Frc consts  --      1.3343                 1.2294                 1.4702
 IR Inten    --      4.4129                 4.8306                46.0215

                     37                     38                     39
                      A                      A                      A
 Frequencies --   1143.7573              1167.4542              1181.9592
 Red. masses --      1.7764                 1.4441                 1.3358
 Frc consts  --      1.3692                 1.1596                 1.0995
 IR Inten    --      3.0784                 6.3171                 2.1914

                     40                     41                     42
                      A                      A                      A
 Frequencies --   1191.5085              1206.3461              1223.2351
 Red. masses --      1.2403                 1.8112                 1.4744
 Frc consts  --      1.0375                 1.5530                 1.2999
 IR Inten    --     27.8195                 1.5742                37.9975

                     43                     44                     45
                      A                      A                      A
 Frequencies --   1255.4792              1262.6313              1319.4944
 Red. masses --      1.4716                 1.6923                 1.4410
 Frc consts  --      1.3666                 1.5895                 1.4781
 IR Inten    --     54.5071                11.9315                 4.7232

                     46                     47                     48
                      A                      A                      A
 Frequencies --   1346.6959              1350.6445              1365.4415
 Red. masses --      1.7405                 1.8256                 1.9127
 Frc consts  --      1.8598                 1.9622                 2.1011
 IR Inten    --     18.6159                 3.4279                27.6575

                     49                     50                     51
                      A                      A                      A
 Frequencies --   1381.6055              1394.8628              1406.1698
 Red. masses --      1.7941                 1.8585                 2.2502
 Frc consts  --      2.0177                 2.1305                 2.6214
 IR Inten    --      4.9028                43.5701                40.5145

                     52                     53                     54
                      A                      A                      A
 Frequencies --   1411.1927              1440.5793              1454.5126
 Red. masses --      2.4608                 1.4837                 2.0059
 Frc consts  --      2.8874                 1.8142                 2.5004
 IR Inten    --      2.1948                46.9954                31.3418

                     55                     56                     57
                      A                      A                      A
 Frequencies --   1501.8593              1511.0050              1521.1698
 Red. masses --      2.7327                 1.1113                 1.1149
 Frc consts  --      3.6316                 1.4949                 1.5199
 IR Inten    --     60.2643                 6.3864                 4.4418

                     58                     59                     60
                      A                      A                      A
 Frequencies --   1529.7027              1538.2948              1608.7411
 Red. masses --      2.8097                 1.1403                 6.4726
 Frc consts  --      3.8738                 1.5898                 9.8697
 IR Inten    --      2.3327                 3.3537                11.3746

                     61                     62                     63
                      A                      A                      A
 Frequencies --   1635.0039              1671.7440              3024.3262
 Red. masses --      6.2403                 6.6930                 1.0700
 Frc consts  --      9.8286                11.0208                 5.7663
 IR Inten    --      2.3330                 1.9675                46.5183

                     64                     65                     66
                      A                      A                      A
 Frequencies --   3024.9019              3052.6026              3093.3553
 Red. masses --      1.0713                 1.0647                 1.0878
 Frc consts  --      5.7753                 5.8453                 6.1330
 IR Inten    --     16.0493                29.7304                46.2031

                     67                     68                     69
                      A                      A                      A
 Frequencies --   3097.8939              3102.6465              3112.4909
 Red. masses --      1.0909                 1.0949                 1.1001
 Frc consts  --      6.1686                 6.2100                 6.2791
 IR Inten    --     26.0612                16.4255                37.7793

                     70                     71                     72
                      A                      A                      A
 Frequencies --   3181.3785              3190.4227              3200.1807
 Red. masses --      1.0850                 1.0882                 1.0933
 Frc consts  --      6.4701                 6.5263                 6.5967
 IR Inten    --      0.8849                 6.7114                40.5010

                     73                     74                     75
                      A                      A                      A
 Frequencies --   3210.4874              3253.3549              3729.2605
 Red. masses --      1.0969                 1.0956                 1.0658
 Frc consts  --      6.6611                 6.8324                 8.7331
 IR Inten    --     26.8269                 6.5061                15.5002

 - Thermochemistry -
 -------------------
 Temperature   298.150 Kelvin.  Pressure   1.00000 Atm.
 Atom     1 has atomic number  6 and mass  12.00000

 Molecular mass:   187.09971 amu.
 Principal axes and moments of inertia in atomic units:
                           1         2         3
     Eigenvalues --  1072.727843761.336174501.28686
           X            0.99994  -0.00809   0.00717
           Y            0.00797   0.99982   0.01724
           Z           -0.00731  -0.01718   0.99983
 This molecule is an asymmetric top.
 Rotational symmetry number  1.
 Warning -- assumption of classical behavior for rotation
           may cause significant error
 Rotational temperatures (Kelvin)      0.08074     0.02303     0.01924
 Rotational constants (GHZ):           1.68238     0.47981     0.40094
 Zero-point vibrational energy     600605.3 (Joules/Mol)
                                  143.54810 (Kcal/Mol)
 Warning -- explicit consideration of  16 degrees of freedom as
           vibrations may cause significant error
 Vibrational temperatures:     86.23   126.97   212.23   281.52   314.77
          (Kelvin)            363.24   461.87   513.48   524.53   559.29
                              635.61   672.87   741.80   794.35   821.83
                              843.96   901.84   939.54  1030.40  1075.75
                             1096.36  1101.54  1147.36  1201.82  1235.06
                             1240.95  1291.77  1322.41  1337.98  1389.16
                             1415.04  1428.25  1457.65  1505.88  1579.73
                             1610.02  1645.61  1679.71  1700.58  1714.31
                             1735.66  1759.96  1806.35  1816.64  1898.46
                             1937.60  1943.28  1964.57  1987.82  2006.90
                             2023.16  2030.39  2072.67  2092.72  2160.84
                             2174.00  2188.62  2200.90  2213.26  2314.62
                             2352.41  2405.27  4351.33  4352.16  4392.01
                             4450.65  4457.18  4464.02  4478.18  4577.29
                             4590.31  4604.35  4619.18  4680.85  5365.57

 Zero-point correction=                           0.228758 (Hartree/Particle)
 Thermal correction to Energy=                    0.239634
 Thermal correction to Enthalpy=                  0.240579
 Thermal correction to Gibbs Free Energy=         0.192155
 Sum of electronic and zero-point Energies=           -594.908861
 Sum of electronic and thermal Energies=              -594.897985
 Sum of electronic and thermal Enthalpies=            -594.897040
 Sum of electronic and thermal Free Energies=         -594.945464

                     E (Thermal)             CV                S
                      KCal/Mol        Cal/Mol-Kelvin    Cal/Mol-Kelvin
 Total                  150.373             44.983            101.916
 Electronic               0.000              0.000              0.000
 Translational            0.889              2.981             41.585
 Rotational               0.889              2.981             31.274
 Vibrational            148.595             39.021             29.056
 Vibration     1          0.597              1.973              4.460
 Vibration     2          0.601              1.957              3.699
 Vibration     3          0.617              1.905              2.704
 Vibration     4          0.636              1.846              2.173
 Vibration     5          0.647              1.812              1.969
 Vibration     6          0.664              1.759              1.713
 Vibration     7          0.706              1.633              1.305
 Vibration     8          0.732              1.561              1.136
 Vibration     9          0.738              1.545              1.103
 Vibration    10          0.757              1.494              1.005
 Vibration    11          0.802              1.379              0.821
 Vibration    12          0.825              1.322              0.744
 Vibration    13          0.871              1.215              0.620
 Vibration    14          0.907              1.135              0.540
 Vibration    15          0.927              1.094              0.502
 Vibration    16          0.944              1.060              0.473

 Optimization completed.
    -- Stationary point found.
 Normal termination of Gaussian 16 at Thu Dec 10 10:42:28 2020.

 ----------------------------------------------------------------------
 # B3LYP/6-311++G(d,p) empiricaldispersion=gd3bj scf=xqc pop=npa geom=c
 heck
 ----------------------------------------------------------------------

 --------------------------------------
 CID_19696324_JID_4752_Energie_neutraal
 --------------------------------------
 Structure from the checkpoint file:  "JID_4752.chk"
 Charge =  0 Multiplicity = 1

 SCF Done:  E(RB3LYP) =  -595.300604869     A.U. after   15 cycles
 Normal termination of Gaussian 16 at Thu Dec 10 10:46:26 2020.

 ----------------------------------------------------------------------
 # B3LYP/6-311++G(d,p) empiricaldispersion=gd3bj scf=xqc pop=npa geom=c
 heck
 ----------------------------------------------------------------------

 ------------------------------------
 CID_19696324_JID_4752_Energie_kation
 ------------------------------------
 Structure from the checkpoint file:  "JID_4752.chk"
 Charge =  1 Multiplicity = 2

 SCF Done:  E(UB3LYP) =  -595.027682875     A.U. after   23 cycles
 Normal termination of Gaussian 16 at Thu Dec 10 10:54:46 2020.
 Gaussian 16:  ES64L-G16RevA.03 25-Dec-2016

 ----------------------------------------------------------------------
 # B3LYP/6-311++G(d,p) empiricaldispersion=gd3bj scf=xqc pop=npa geom=c
 heck
 ----------------------------------------------------------------------

 -----------------------------------
 CID_19696324_JID_4752_Energie_anion
 -----------------------------------
 Structure from the checkpoint file:  "JID_4752.chk"
 Charge = -1 Multiplicity = 2

                         Standard orientation:
 ---------------------------------------------------------------------
 Center     Atomic      Atomic             Coordinates (Angstroms)
 Number     Number       Type             X           Y           Z
 ---------------------------------------------------------------------
      1          6           0       -3.030717    0.464908   -0.674857
      2          6           0       -2.125738    1.526949   -0.031000
      3          6           0       -0.680855    1.120494   -0.049387
      4          6           0        0.464514    1.864305    0.080829
      5          6           0        1.578310    0.958017    0.074487
      6          6           0        2.970889    1.109626    0.167881
      7          6           0        3.778895   -0.019269    0.104749
      8          6           0        3.223904   -1.304272   -0.052504
      9          6           0        1.847605   -1.487933   -0.143931
     10          6           0        1.038817   -0.351298   -0.067375
     11          7           0       -0.341427   -0.234471   -0.116332
     12          6           0       -1.252549   -1.299038   -0.514523
     13          6           0       -2.687855   -0.930634   -0.133855
     14          8           0       -2.888400   -1.017627    1.274334
     15          1           0       -2.899316    0.465141   -1.764788
     16          1           0       -4.080789    0.689945   -0.465349
     17          1           0       -2.243566    2.494019   -0.530105
     18          1           0       -2.453654    1.679423    1.007399
     19          1           0        0.504572    2.939658    0.191786
     20          1           0        3.408673    2.097537    0.283328
     21          1           0        4.857693    0.087947    0.174231
     22          1           0        3.880990   -2.167593   -0.104380
     23          1           0        1.423934   -2.479920   -0.268979
     24          1           0       -0.964889   -2.222029   -0.001879
     25          1           0       -1.182164   -1.473995   -1.597794
     26          1           0       -3.361224   -1.675851   -0.568601
     27          1           0       -2.144390   -0.563109    1.701703
 ---------------------------------------------------------------------

 SCF Done:  E(UB3LYP) =  -595.287544180     A.U. after   33 cycles
 SCF Done:  E(UB3LYP) =  -595.287544180     a.u. after    1 cycles

 The electronic state is 2-A.
 Alpha  occ. eigenvalues --  -19.02269 -14.25527 -10.12396 -10.10803 -10.10569
 Alpha  occ. eigenvalues --  -10.10087 -10.07799 -10.07368 -10.07200 -10.07069
 Alpha  occ. eigenvalues --  -10.07023 -10.06962 -10.06619 -10.05463  -0.92934
 Alpha  occ. eigenvalues --   -0.88468  -0.74947  -0.70493  -0.69937  -0.64853
 Alpha  occ. eigenvalues --   -0.63046  -0.59588  -0.56489  -0.50724  -0.50007
 Alpha  occ. eigenvalues --   -0.48553  -0.45386  -0.41998  -0.39980  -0.38080
 Alpha  occ. eigenvalues --   -0.37720  -0.35985  -0.35263  -0.34558  -0.33536
 Alpha  occ. eigenvalues --   -0.32524  -0.31403  -0.30386  -0.29057  -0.27514
 Alpha  occ. eigenvalues --   -0.26535  -0.25371  -0.24965  -0.24351  -0.22857
 Alpha  occ. eigenvalues --   -0.21981  -0.18086  -0.17572  -0.12431  -0.10570
 Alpha  occ. eigenvalues --    0.04615
 Alpha virt. eigenvalues --    0.06830   0.07125   0.07596   0.08285   0.08663
 Alpha virt. eigenvalues --    0.08975   0.09793   0.10543   0.10713   0.11105
 Alpha virt. eigenvalues --    0.11151   0.12772   0.13150   0.14138   0.14518

  Beta  occ. eigenvalues --  -19.02246 -14.25524 -10.12376 -10.10764 -10.10532
  Beta  occ. eigenvalues --  -10.10088 -10.07773 -10.07347 -10.07176 -10.07058
  Beta  occ. eigenvalues --  -10.07006 -10.06957 -10.06580 -10.05453  -0.92881
  Beta  occ. eigenvalues --   -0.88438  -0.74910  -0.70439  -0.69878  -0.64797
  Beta  occ. eigenvalues --   -0.62998  -0.59537  -0.56424  -0.50651  -0.49965
  Beta  occ. eigenvalues --   -0.48505  -0.45339  -0.41943  -0.39911  -0.38033
  Beta  occ. eigenvalues --   -0.37673  -0.35931  -0.35207  -0.34492  -0.33501
  Beta  occ. eigenvalues --   -0.32476  -0.31367  -0.30346  -0.28995  -0.27477
  Beta  occ. eigenvalues --   -0.26474  -0.25331  -0.24912  -0.24321  -0.22796
  Beta  occ. eigenvalues --   -0.21915  -0.18006  -0.17503  -0.12349  -0.10434
  Beta virt. eigenvalues --    0.06689   0.07379   0.07765   0.07917   0.08950
  Beta virt. eigenvalues --    0.09223   0.09381   0.10400   0.10929   0.11122
  Beta virt. eigenvalues --    0.11520   0.11675   0.13021   0.13534   0.14524

 Mulliken charges and spin densities:
               1          2
     1  C    0.146730  -0.457122
     2  C    1.616335  -2.320912
     3  C   -0.571284   0.423911
     4  C    0.212504  -0.056051
     5  C    0.472434   0.545222
     6  C   -0.159820   0.145655
     7  C   -0.196159  -0.095042
     8  C    0.706841  -1.096842
     9  C    0.030132  -0.328205
    10  C   -1.301445   0.412265
    11  N    0.106746   0.237688
    12  C    1.798609  -2.247616
    13  C   -1.032229   0.859532
    14  O   -0.155945  -0.013171
    15  H   -0.185735   0.332638
    16  H   -0.592112   0.807225
    17  H   -0.113041   0.274841
    18  H   -0.125442   0.329540
    19  H   -0.290492   0.437684
    20  H    0.030065   0.097124
    21  H    0.032220   0.093028
    22  H    0.011408   0.134662
    23  H   -0.424582   0.574969
    24  H    0.079555   0.120407
    25  H   -0.526971   0.738165
    26  H   -0.756094   0.985731
    27  H    0.187773   0.064675
 Sum of Mulliken charges =  -1.00000   1.00000

 Dipole moment (field-independent basis, Debye):
    X=              5.9733    Y=              1.7559    Z=              2.5060  Tot=              6.7115
 Quadrupole moment (field-independent basis, Debye-Ang):
   XX=           -150.7716   YY=           -121.6037   ZZ=           -117.6799
   XY=             -1.0162   XZ=             -4.1281   YZ=             -3.1840

 Summary of Natural Population Analysis:

                                       Natural Population
                Natural  -----------------------------------------------
    Atom  No    Charge         Core      Valence    Rydberg      Total
 -----------------------------------------------------------------------
      C    1   -0.19653      0.99961     2.18763    0.00929     3.19653
      C    2   -0.21296      0.99959     2.20297    0.01039     3.21296
      C    3    0.10986      0.99952     1.87705    0.01358     2.89014
      C    4   -0.14370      0.99946     2.13595    0.00829     3.14370
      C    5   -0.03923      0.99950     2.03081    0.00892     3.03923
      C    6   -0.09501      0.99953     2.08689    0.00859     3.09501
      C    7   -0.12109      0.99958     2.11139    0.01013     3.12109
      C    8   -0.10764      0.99958     2.09827    0.00979     3.10764
      C    9   -0.11570      0.99952     2.10688    0.00930     3.11570
      C   10    0.08520      0.99947     1.90384    0.01149     2.91480
      N   11   -0.22141      0.99959     2.71109    0.01073     3.72141
      C   12   -0.09112      0.99959     2.07971    0.01182     3.09112
      C   13    0.05910      0.99956     1.92561    0.01573     2.94090
      O   14   -0.36962      0.99990     3.36335    0.00637     4.36962
      H   15    0.10368      0.00000     0.39374    0.00259     0.39632
      H   16    0.10652      0.00000     0.39137    0.00211     0.39348
      H   17    0.11159      0.00000     0.38720    0.00122     0.38841
      H   18    0.10706      0.00000     0.39104    0.00190     0.39294
      H   19    0.10445      0.00000     0.39476    0.00080     0.39555
      H   20    0.09648      0.00000     0.40232    0.00120     0.40352
      H   21    0.09578      0.00000     0.40346    0.00076     0.40422
      H   22    0.09696      0.00000     0.40225    0.00079     0.40304
      H   23    0.10472      0.00000     0.39402    0.00126     0.39528
      H   24    0.10331      0.00000     0.39502    0.00167     0.39669
      H   25    0.10458      0.00000     0.39187    0.00355     0.39542
      H   26    0.09683      0.00000     0.40072    0.00245     0.40317
      H   27    0.22788      0.00000     0.26895    0.00317     0.27212
 =======================================================================
   * Total *   -0.00000     13.99401    35.83814    0.16785    50.00000

 Normal termination of Gaussian 16 at Thu Dec 10 11:07:07 2020.
