 Gaussian 16, Revision A.03,

 -----------------------------------------------------------
 # opt freq B3LYP/6-31G(d) empiricaldispersion=gd3bj scf=xqc
 -----------------------------------------------------------

 ------------------------------
 CID_69668927_JID_3656_neutraal
 ------------------------------
 Symbolic Z-matrix:
 Charge =  0 Multiplicity = 1

 SCF Done:  E(RB3LYP) =  -659.729398153     A.U. after   15 cycles
 SCF Done:  E(RB3LYP) =  -659.736477266     A.U. after   12 cycles
 SCF Done:  E(RB3LYP) =  -659.737086325     A.U. after   12 cycles
 SCF Done:  E(RB3LYP) =  -659.737138355     A.U. after   10 cycles
 SCF Done:  E(RB3LYP) =  -659.737144830     A.U. after    9 cycles
 SCF Done:  E(RB3LYP) =  -659.737146611     A.U. after    8 cycles
 Optimization completed.
    -- Stationary point found.
 Normal termination of Gaussian 16 at Wed Dec  9 23:48:53 2020.

 --------------------------------------------------------------------
 #N Geom=AllCheck Guess=TCheck SCRF=Check GenChk RB3LYP/6-31G(d) Freq
 --------------------------------------------------------------------

 Structure from the checkpoint file:  "JID_3656.chk"
 ------------------------------
 CID_69668927_JID_3656_neutraal
 ------------------------------
 Charge =  0 Multiplicity = 1

 SCF Done:  E(RB3LYP) =  -659.737146611     A.U. after    2 cycles

  Exact polarizability: 162.496  11.753 101.230   0.002   0.005  37.629
 Approx polarizability: 250.181  46.348 194.123   0.009   0.021  59.297

                      1                      2                      3
                      A                      A                      A
 Frequencies --     69.5608                70.6939               139.1977
 Red. masses --     10.3349                 5.0487                 7.2693
 Frc consts  --      0.0295                 0.0149                 0.0830
 IR Inten    --      0.9325                 0.7009                 0.3752

                      4                      5                      6
                      A                      A                      A
 Frequencies --    153.2816               174.6014               300.6682
 Red. masses --      9.0908                 8.5972                11.0086
 Frc consts  --      0.1258                 0.1544                 0.5864
 IR Inten    --      0.7966                 0.0192                 4.7150

                      7                      8                      9
                      A                      A                      A
 Frequencies --    355.2202               369.0244               404.5752
 Red. masses --      5.3579                 8.2898                10.5177
 Frc consts  --      0.3983                 0.6651                 1.0143
 IR Inten    --      9.5022                 1.7125                21.0067

                     10                     11                     12
                      A                      A                      A
 Frequencies --    416.5879               546.5860               582.1840
 Red. masses --      3.9104                 8.4881                 1.1347
 Frc consts  --      0.3998                 1.4941                 0.2266
 IR Inten    --      8.2318                 7.5872                57.0522

                     13                     14                     15
                      A                      A                      A
 Frequencies --    625.6574               638.7308               656.1300
 Red. masses --      5.8527                 6.8079                 3.1088
 Frc consts  --      1.3498                 1.6364                 0.7885
 IR Inten    --      2.4370                34.1442                26.0680

                     16                     17                     18
                      A                      A                      A
 Frequencies --    676.6368               691.4321               746.0227
 Red. masses --      3.8566                 1.2906                 7.3912
 Frc consts  --      1.0403                 0.3635                 2.4237
 IR Inten    --      5.5525                74.0061                70.6776

                     19                     20                     21
                      A                      A                      A
 Frequencies --    770.6766               783.6251               806.1500
 Red. masses --      8.2251                 8.8212                 1.5109
 Frc consts  --      2.8783                 3.1915                 0.5785
 IR Inten    --     16.3952                 3.5596                 7.4140

                     22                     23                     24
                      A                      A                      A
 Frequencies --    869.9421               921.8654               934.1361
 Red. masses --      1.3429                 1.3827                 5.9538
 Frc consts  --      0.5988                 0.6923                 3.0610
 IR Inten    --     16.8089                13.5153                17.1176

                     25                     26                     27
                      A                      A                      A
 Frequencies --    960.8173               982.0946              1044.8597
 Red. masses --      9.7759                 3.0538                 4.2423
 Frc consts  --      5.3173                 1.7354                 2.7288
 IR Inten    --     26.0241                15.0363                 6.0284

                     28                     29                     30
                      A                      A                      A
 Frequencies --   1128.2675              1130.5934              1184.1076
 Red. masses --      5.0495                 2.9148                 2.6875
 Frc consts  --      3.7872                 2.1952                 2.2201
 IR Inten    --      0.8473                60.7091                32.6965

                     31                     32                     33
                      A                      A                      A
 Frequencies --   1213.6308              1253.8269              1309.0757
 Red. masses --      2.1759                 1.3853                 3.4067
 Frc consts  --      1.8882                 1.2831                 3.4396
 IR Inten    --     58.6409                 2.2333                53.0398

                     34                     35                     36
                      A                      A                      A
 Frequencies --   1349.7739              1374.8032              1414.2150
 Red. masses --      2.2166                 2.6960                 1.7131
 Frc consts  --      2.3794                 3.0022                 2.0187
 IR Inten    --      0.5449                83.3039                22.6454

                     37                     38                     39
                      A                      A                      A
 Frequencies --   1439.1958              1519.6923              1548.0126
 Red. masses --      2.9540                 3.0581                 5.9930
 Frc consts  --      3.6049                 4.1612                 8.4614
 IR Inten    --     68.4009               134.1188                 1.3406

                     40                     41                     42
                      A                      A                      A
 Frequencies --   1621.5648              1702.8136              1796.5046
 Red. masses --      6.1747                 6.6932                 9.6754
 Frc consts  --      9.5662                11.4346                18.3983
 IR Inten    --     53.2990                35.6761               387.2593

                     43                     44                     45
                      A                      A                      A
 Frequencies --   1850.6650              3249.4499              3299.8008
 Red. masses --      8.3514                 1.0932                 1.0985
 Frc consts  --     16.8526                 6.8008                 7.0471
 IR Inten    --    822.1208                 3.2368                 0.4544

                     46                     47                     48
                      A                      A                      A
 Frequencies --   3325.3234              3606.5141              3639.7501
 Red. masses --      1.0986                 1.0774                 1.0787
 Frc consts  --      7.1576                 8.2568                 8.4195
 IR Inten    --      4.5588                70.2882               114.0903

 - Thermochemistry -
 -------------------
 Temperature   298.150 Kelvin.  Pressure   1.00000 Atm.
 Atom     1 has atomic number  6 and mass  12.00000

 Molecular mass:   179.03309 amu.
 Principal axes and moments of inertia in atomic units:
                           1         2         3
     Eigenvalues --   805.737743696.723224502.46055
           X            1.00000  -0.00170  -0.00000
           Y            0.00170   1.00000   0.00000
           Z            0.00000  -0.00000   1.00000
 This molecule is an asymmetric top.
 Rotational symmetry number  1.
 Warning -- assumption of classical behavior for rotation
           may cause significant error
 Rotational temperatures (Kelvin)      0.10750     0.02343     0.01924
 Rotational constants (GHZ):           2.23986     0.48820     0.40083
 Zero-point vibrational energy     332852.2 (Joules/Mol)
                                   79.55358 (Kcal/Mol)
 Warning -- explicit consideration of  12 degrees of freedom as
           vibrations may cause significant error
 Vibrational temperatures:    100.08   101.71   200.27   220.54   251.21
          (Kelvin)            432.59   511.08   530.94   582.09   599.38
                              786.42   837.63   900.18   918.99   944.02
                              973.53   994.82  1073.36  1108.83  1127.46
                             1159.87  1251.65  1326.36  1344.01  1382.40
                             1413.02  1503.32  1623.33  1626.67  1703.67
                             1746.14  1803.98  1883.47  1942.02  1978.04
                             2034.74  2070.68  2186.50  2227.24  2333.07
                             2449.97  2584.77  2662.69  4675.23  4747.68
                             4784.40  5188.97  5236.79

 Zero-point correction=                           0.126777 (Hartree/Particle)
 Thermal correction to Energy=                    0.136593
 Thermal correction to Enthalpy=                  0.137537
 Thermal correction to Gibbs Free Energy=         0.090564
 Sum of electronic and zero-point Energies=           -659.610370
 Sum of electronic and thermal Energies=              -659.600554
 Sum of electronic and thermal Enthalpies=            -659.599610
 Sum of electronic and thermal Free Energies=         -659.646582

                     E (Thermal)             CV                S
                      KCal/Mol        Cal/Mol-Kelvin    Cal/Mol-Kelvin
 Total                   85.713             37.353             98.862
 Electronic               0.000              0.000              0.000
 Translational            0.889              2.981             41.454
 Rotational               0.889              2.981             30.973
 Vibrational             83.936             31.392             26.435
 Vibration     1          0.598              1.969              4.166
 Vibration     2          0.598              1.968              4.134
 Vibration     3          0.615              1.914              2.815
 Vibration     4          0.619              1.899              2.631
 Vibration     5          0.627              1.874              2.385
 Vibration     6          0.693              1.672              1.413
 Vibration     7          0.731              1.565              1.143
 Vibration     8          0.741              1.536              1.084
 Vibration     9          0.770              1.460              0.946
 Vibration    10          0.780              1.434              0.904
 Vibration    11          0.902              1.147              0.551
 Vibration    12          0.939              1.070              0.481

                           ! Non-Optimized Parameters !
 Normal termination of Gaussian 16 at Wed Dec  9 23:52:27 2020.

 ----------------------------------------------------------------------
 # B3LYP/6-311++G(d,p) empiricaldispersion=gd3bj scf=xqc pop=npa geom=c
 heck
 ----------------------------------------------------------------------

 --------------------------------------
 CID_69668927_JID_3656_Energie_neutraal
 --------------------------------------
 Structure from the checkpoint file:  "JID_3656.chk"
 Charge =  0 Multiplicity = 1

 SCF Done:  E(RB3LYP) =  -659.928191517     A.U. after   15 cycles
 Normal termination of Gaussian 16 at Wed Dec  9 23:53:34 2020.

 ----------------------------------------------------------------------
 # B3LYP/6-311++G(d,p) empiricaldispersion=gd3bj scf=xqc pop=npa geom=c
 heck
 ----------------------------------------------------------------------

 ------------------------------------
 CID_69668927_JID_3656_Energie_kation
 ------------------------------------
 Structure from the checkpoint file:  "JID_3656.chk"
 Charge =  1 Multiplicity = 2

 SCF Done:  E(UB3LYP) =  -659.621604322     A.U. after   20 cycles
 Normal termination of Gaussian 16 at Wed Dec  9 23:55:31 2020.
 Gaussian 16:  ES64L-G16RevA.03 25-Dec-2016

 ----------------------------------------------------------------------
 # B3LYP/6-311++G(d,p) empiricaldispersion=gd3bj scf=xqc pop=npa geom=c
 heck
 ----------------------------------------------------------------------

 -----------------------------------
 CID_69668927_JID_3656_Energie_anion
 -----------------------------------
 Structure from the checkpoint file:  "JID_3656.chk"
 Charge = -1 Multiplicity = 2

                         Standard orientation:
 ---------------------------------------------------------------------
 Center     Atomic      Atomic             Coordinates (Angstroms)
 Number     Number       Type             X           Y           Z
 ---------------------------------------------------------------------
      1          6           0       -0.630625   -1.307961    0.000391
      2          6           0        0.036189   -0.122447   -0.000113
      3          6           0       -0.741790    1.125144   -0.000648
      4          8           0       -0.278650    2.254185   -0.000251
      5          7           0       -2.132046    0.928857   -0.000457
      6          6           0       -2.837539   -0.264189    0.000062
      7          8           0       -4.050378   -0.345616    0.000223
      8          7           0       -1.999994   -1.376228    0.000465
      9          6           0        1.479249   -0.041477   -0.000149
     10          6           0        2.397096    0.970297    0.000998
     11          7           0        3.679223    0.430023    0.000734
     12          6           0        3.492259   -0.849478   -0.000341
     13          8           0        2.184265   -1.230187   -0.001018
     14          1           0       -0.109363   -2.257285    0.000785
     15          1           0       -2.696193    1.771141   -0.000535
     16          1           0       -2.474443   -2.268588    0.000904
     17          1           0        2.213050    2.031822    0.001724
     18          1           0        4.225735   -1.642060   -0.000919
 ---------------------------------------------------------------------

 SCF Done:  E(UB3LYP) =  -659.946147536     A.U. after   20 cycles

 The electronic state is 2-A.
 Alpha  occ. eigenvalues --  -19.05217 -18.96776 -18.94589 -14.22646 -14.21792
 Alpha  occ. eigenvalues --  -14.17374 -10.17746 -10.13061 -10.10817 -10.08588
 Alpha  occ. eigenvalues --  -10.04708 -10.03786 -10.02550  -0.98757  -0.93948
 Alpha  occ. eigenvalues --   -0.89945  -0.82998  -0.78076  -0.77899  -0.66642
 Alpha  occ. eigenvalues --   -0.60248  -0.53716  -0.51753  -0.48605  -0.47489
 Alpha  occ. eigenvalues --   -0.42308  -0.40251  -0.38122  -0.36220  -0.34086
 Alpha  occ. eigenvalues --   -0.33034  -0.32531  -0.31058  -0.29172  -0.28531
 Alpha  occ. eigenvalues --   -0.26405  -0.26376  -0.25011  -0.22497  -0.18534
 Alpha  occ. eigenvalues --   -0.16423  -0.15737  -0.15506  -0.14126  -0.12355
 Alpha  occ. eigenvalues --   -0.07407   0.04520
 Alpha virt. eigenvalues --    0.08792   0.09699   0.11163   0.12106   0.12777
 Alpha virt. eigenvalues --    0.13035   0.14081   0.15499   0.15518   0.16476
 Alpha virt. eigenvalues --    0.16493   0.16927   0.18154   0.18719   0.19530

  Beta  occ. eigenvalues --  -19.05124 -18.96717 -18.94480 -14.22568 -14.21677
  Beta  occ. eigenvalues --  -14.17435 -10.17691 -10.12946 -10.10645 -10.08537
  Beta  occ. eigenvalues --  -10.03926 -10.03685 -10.02507  -0.98593  -0.93773
  Beta  occ. eigenvalues --   -0.89731  -0.82639  -0.77856  -0.77753  -0.66153
  Beta  occ. eigenvalues --   -0.59749  -0.53121  -0.51375  -0.48402  -0.47247
  Beta  occ. eigenvalues --   -0.42157  -0.39969  -0.37977  -0.35845  -0.33355
  Beta  occ. eigenvalues --   -0.32492  -0.32317  -0.30832  -0.29066  -0.28303
  Beta  occ. eigenvalues --   -0.26190  -0.25656  -0.24842  -0.20675  -0.18201
  Beta  occ. eigenvalues --   -0.16323  -0.15761  -0.14824  -0.13257  -0.12218
  Beta  occ. eigenvalues --   -0.05735
  Beta virt. eigenvalues --    0.08753   0.09650   0.11097   0.11141   0.12760
  Beta virt. eigenvalues --    0.12988   0.13175   0.14583   0.15475   0.15869
  Beta virt. eigenvalues --    0.16433   0.16904   0.17043   0.18120   0.19064

 Mulliken charges and spin densities:
               1          2
     1  C   -0.188867   0.620489
     2  C    0.170287   0.036147
     3  C   -0.129614   0.050713
     4  O   -0.395787   0.041404
     5  N   -0.458657   0.044068
     6  C    0.293698   0.036256
     7  O   -0.430354   0.022249
     8  N   -0.361489  -0.006093
     9  C   -0.272171   0.031464
    10  C   -0.226507   0.079487
    11  N   -0.153601  -0.032283
    12  C    0.125317   0.127123
    13  O   -0.096993   0.019199
    14  H    0.164542  -0.051704
    15  H    0.339568  -0.003265
    16  H    0.302228  -0.000715
    17  H    0.175891  -0.005423
    18  H    0.142508  -0.009116
 Sum of Mulliken charges =  -1.00000   1.00000

 Dipole moment (field-independent basis, Debye):
    X=             -0.5826    Y=             -3.5547    Z=             -0.0008  Tot=              3.6022
 Quadrupole moment (field-independent basis, Debye-Ang):
   XX=           -126.1543   YY=            -83.5881   ZZ=            -80.2363
   XY=             -6.5201   XZ=             -0.0044   YZ=             -0.0015

 Summary of Natural Population Analysis:

                                       Natural Population
                Natural  -----------------------------------------------
    Atom  No    Charge         Core      Valence    Rydberg      Total
 -----------------------------------------------------------------------
      C    1    0.19116      0.99955     1.79778    0.01151     2.80884
      C    2   -0.13436      0.99944     2.12649    0.00842     3.13436
      C    3    0.35116      0.99964     1.62777    0.02143     2.64884
      O    4   -0.32560      0.99988     3.31844    0.00728     4.32560
      N    5   -0.31234      0.99965     2.80434    0.00836     3.81234
      C    6    0.41036      0.99973     1.56784    0.02207     2.58964
      O    7   -0.34060      0.99987     3.33428    0.00645     4.34060
      N    8   -0.28992      0.99967     2.78327    0.00698     3.78992
      C    9    0.14998      0.99946     1.83736    0.01320     2.85002
      C   10   -0.04186      0.99953     2.02787    0.01446     3.04186
      N   11   -0.26968      0.99972     2.75863    0.01133     3.76968
      C   12    0.18846      0.99967     1.79172    0.02016     2.81154
      O   13   -0.24097      0.99987     3.23153    0.00957     4.24097
      H   14    0.08776      0.00000     0.41135    0.00090     0.41224
      H   15    0.19672      0.00000     0.30061    0.00267     0.30328
      H   16    0.19415      0.00000     0.30375    0.00210     0.30585
      H   17    0.10864      0.00000     0.39042    0.00094     0.39136
      H   18    0.07695      0.00000     0.42195    0.00110     0.42305
 =======================================================================
   * Total *    0.00000     12.99567    32.83540    0.16894    46.00000

 Normal termination of Gaussian 16 at Wed Dec  9 23:57:28 2020.
