 Gaussian 16, Revision A.03,

 -----------------------------------------------------------
 # opt freq B3LYP/6-31G(d) empiricaldispersion=gd3bj scf=xqc
 -----------------------------------------------------------

 ------------------------------
 CID_14239229_JID_4108_neutraal
 ------------------------------
 Symbolic Z-matrix:
 Charge =  0 Multiplicity = 1

 SCF Done:  E(RB3LYP) =  -668.022910776     A.U. after   15 cycles
 SCF Done:  E(RB3LYP) =  -668.026755427     A.U. after   15 cycles
 SCF Done:  E(RB3LYP) =  -668.020683969     A.U. after   16 cycles
 SCF Done:  E(RB3LYP) =  -668.028096227     A.U. after   14 cycles
 SCF Done:  E(RB3LYP) =  -668.029068131     A.U. after   14 cycles
 SCF Done:  E(RB3LYP) =  -668.029253075     A.U. after   13 cycles
 SCF Done:  E(RB3LYP) =  -668.029370704     A.U. after   13 cycles
 SCF Done:  E(RB3LYP) =  -668.029408062     A.U. after   13 cycles
 SCF Done:  E(RB3LYP) =  -668.029434721     A.U. after   13 cycles
 SCF Done:  E(RB3LYP) =  -668.029440351     A.U. after   12 cycles
 SCF Done:  E(RB3LYP) =  -668.029446194     A.U. after   10 cycles
 SCF Done:  E(RB3LYP) =  -668.029446738     A.U. after   10 cycles
 SCF Done:  E(RB3LYP) =  -668.029447152     A.U. after   11 cycles
 SCF Done:  E(RB3LYP) =  -668.029447308     A.U. after   10 cycles
 SCF Done:  E(RB3LYP) =  -668.029447349     A.U. after    8 cycles
 SCF Done:  E(RB3LYP) =  -668.029447358     A.U. after    8 cycles
 Optimization completed.
    -- Stationary point found.
 Normal termination of Gaussian 16 at Thu Dec 10 09:18:02 2020.

 --------------------------------------------------------------------
 #N Geom=AllCheck Guess=TCheck SCRF=Check GenChk RB3LYP/6-31G(d) Freq
 --------------------------------------------------------------------

 Structure from the checkpoint file:  "JID_4108.chk"
 ------------------------------
 CID_14239229_JID_4108_neutraal
 ------------------------------
 Charge =  0 Multiplicity = 1

 SCF Done:  E(RB3LYP) =  -668.029447358     A.U. after    1 cycles

  Exact polarizability: 167.634  -1.443 137.361   5.015  -5.661  65.714
 Approx polarizability: 249.312   4.498 251.045  13.847 -17.114  98.997

                      1                      2                      3
                      A                      A                      A
 Frequencies --     20.2587                33.9294                74.9735
 Red. masses --      9.1007                 4.4820                 3.7781
 Frc consts  --      0.0022                 0.0030                 0.0125
 IR Inten    --      0.0081                 0.0772                 0.0713

                      4                      5                      6
                      A                      A                      A
 Frequencies --     86.3437               120.7167               183.6633
 Red. masses --      2.8564                 3.4117                 3.6286
 Frc consts  --      0.0125                 0.0293                 0.0721
 IR Inten    --      0.6302                 2.8468                 1.9139

                      7                      8                      9
                      A                      A                      A
 Frequencies --    209.5883               248.2499               266.0398
 Red. masses --      3.2062                 1.0930                 4.5789
 Frc consts  --      0.0830                 0.0397                 0.1909
 IR Inten    --      0.3897                 0.1287                 2.9778

                     10                     11                     12
                      A                      A                      A
 Frequencies --    298.2555               325.6948               345.0602
 Red. masses --      4.4598                 6.5431                 3.0862
 Frc consts  --      0.2337                 0.4089                 0.2165
 IR Inten    --      1.9060                 1.6501                 2.9121

                     13                     14                     15
                      A                      A                      A
 Frequencies --    390.1105               427.7179               457.3004
 Red. masses --      3.9505                 2.8841                 3.0893
 Frc consts  --      0.3542                 0.3109                 0.3806
 IR Inten    --      1.5890                 1.1077                 0.9938

                     16                     17                     18
                      A                      A                      A
 Frequencies --    507.3738               527.5269               585.3815
 Red. masses --      4.0786                 3.6310                 3.6801
 Frc consts  --      0.6186                 0.5953                 0.7430
 IR Inten    --      1.7214                 4.4042                 0.3151

                     19                     20                     21
                      A                      A                      A
 Frequencies --    592.3863               636.8221               662.5777
 Red. masses --      3.8266                 5.5997                 2.0698
 Frc consts  --      0.7912                 1.3380                 0.5354
 IR Inten    --      5.0916                16.6041                 5.8979

                     22                     23                     24
                      A                      A                      A
 Frequencies --    696.0160               740.6276               762.7148
 Red. masses --      3.4078                 5.5036                 6.2283
 Frc consts  --      0.9727                 1.7787                 2.1347
 IR Inten    --      4.6190                 1.9240                18.9836

                     25                     26                     27
                      A                      A                      A
 Frequencies --    844.4674               852.3827               862.9319
 Red. masses --      1.3890                 8.3976                 1.6073
 Frc consts  --      0.5836                 3.5948                 0.7052
 IR Inten    --      2.5351                29.8768                37.2842

                     28                     29                     30
                      A                      A                      A
 Frequencies --    927.0984               957.3897               964.1494
 Red. masses --      1.7432                 1.4696                 2.6247
 Frc consts  --      0.8828                 0.7936                 1.4376
 IR Inten    --      3.3596                28.7482                17.6508

                     31                     32                     33
                      A                      A                      A
 Frequencies --    981.8169              1008.1298              1035.4629
 Red. masses --      1.2847                 1.6591                 1.4066
 Frc consts  --      0.7297                 0.9935                 0.8886
 IR Inten    --      0.3513                 1.3025                63.6990

                     34                     35                     36
                      A                      A                      A
 Frequencies --   1044.7850              1069.8616              1072.2216
 Red. masses --      1.6039                 2.7320                 1.5366
 Frc consts  --      1.0315                 1.8424                 1.0408
 IR Inten    --      5.8112                75.8500                 5.0731

                     37                     38                     39
                      A                      A                      A
 Frequencies --   1104.3578              1182.0088              1183.2280
 Red. masses --      3.3852                 1.7877                 1.7731
 Frc consts  --      2.4325                 1.4716                 1.4626
 IR Inten    --    113.1314                 2.4515                 1.7485

                     40                     41                     42
                      A                      A                      A
 Frequencies --   1206.6708              1285.0373              1305.0775
 Red. masses --      1.8051                 1.9701                 1.4472
 Frc consts  --      1.5485                 1.9168                 1.4523
 IR Inten    --      9.3750               235.2529               192.9835

                     43                     44                     45
                      A                      A                      A
 Frequencies --   1322.5244              1331.2080              1381.5221
 Red. masses --      1.4581                 1.4975                 3.6802
 Frc consts  --      1.5026                 1.5636                 4.1384
 IR Inten    --     23.8411                70.8692                91.1084

                     46                     47                     48
                      A                      A                      A
 Frequencies --   1387.8705              1410.6563              1445.8311
 Red. masses --      9.2665                 1.5503                 1.2981
 Frc consts  --     10.5163                 1.8177                 1.5988
 IR Inten    --    289.5689                10.5290                 1.8688

                     49                     50                     51
                      A                      A                      A
 Frequencies --   1457.4650              1478.4229              1505.3085
 Red. masses --      2.4236                 1.2204                 1.0464
 Frc consts  --      3.0333                 1.5717                 1.3970
 IR Inten    --      6.3906                13.6560                 5.1058

                     52                     53                     54
                      A                      A                      A
 Frequencies --   1516.8422              1526.1138              1542.1921
 Red. masses --      1.2967                 1.1364                 2.2587
 Frc consts  --      1.7578                 1.5594                 3.1651
 IR Inten    --      6.9251                 7.5468               101.8994

                     55                     56                     57
                      A                      A                      A
 Frequencies --   1601.5472              1649.4344              1666.6722
 Red. masses --     10.6549                 7.2724                 6.7210
 Frc consts  --     16.1019                11.6572                10.9999
 IR Inten    --     80.5615               200.7986               171.2952

                     58                     59                     60
                      A                      A                      A
 Frequencies --   1734.6736              3051.3268              3069.4004
 Red. masses --      4.5054                 1.0616                 1.0363
 Frc consts  --      7.9877                 5.8238                 5.7524
 IR Inten    --      1.3568                35.8958                15.5978

                     61                     62                     63
                      A                      A                      A
 Frequencies --   3103.6554              3141.2881              3142.6729
 Red. masses --      1.1033                 1.1014                 1.1019
 Frc consts  --      6.2616                 6.4035                 6.4120
 IR Inten    --     17.6728                10.6224                13.4471

                     64                     65                     66
                      A                      A                      A
 Frequencies --   3157.4172              3175.4762              3226.2037
 Red. masses --      1.0602                 1.0928                 1.0908
 Frc consts  --      6.2273                 6.4923                 6.6891
 IR Inten    --      7.7210                 5.3877                 2.7875

                     67                     68                     69
                      A                      A                      A
 Frequencies --   3243.4466              3253.9883              3259.8150
 Red. masses --      1.1145                 1.0893                 1.0924
 Frc consts  --      6.9079                 6.7958                 6.8393
 IR Inten    --     13.0632                 4.9046                 2.5290

 - Thermochemistry -
 -------------------
 Temperature   298.150 Kelvin.  Pressure   1.00000 Atm.
 Atom     1 has atomic number  6 and mass  12.00000

 Molecular mass:   193.07389 amu.
 Principal axes and moments of inertia in atomic units:
                           1         2         3
     Eigenvalues --  1213.039834803.145685793.96033
           X            0.99995  -0.00961  -0.00236
           Y            0.00959   0.99993  -0.00639
           Z            0.00242   0.00637   0.99998
 This molecule is an asymmetric top.
 Rotational symmetry number  1.
 Warning -- assumption of classical behavior for rotation
           may cause significant error
 Rotational temperatures (Kelvin)      0.07140     0.01803     0.01495
 Rotational constants (GHZ):           1.48778     0.37574     0.31149
 Zero-point vibrational energy     519594.3 (Joules/Mol)
                                  124.18602 (Kcal/Mol)
 Warning -- explicit consideration of  19 degrees of freedom as
           vibrations may cause significant error
 Vibrational temperatures:     29.15    48.82   107.87   124.23   173.68
          (Kelvin)            264.25   301.55   357.18   382.77   429.12
                              468.60   496.46   561.28   615.39   657.95
                              730.00   758.99   842.23   852.31   916.24
                              953.30  1001.41  1065.60  1097.38  1215.00
                             1226.39  1241.57  1333.89  1377.47  1387.20
                             1412.62  1450.47  1489.80  1503.21  1539.29
                             1542.69  1588.92  1700.65  1702.40  1736.13
                             1848.88  1877.72  1902.82  1915.31  1987.70
                             1996.84  2029.62  2080.23  2096.97  2127.12
                             2165.80  2182.40  2195.74  2218.87  2304.27
                             2373.17  2397.97  2495.81  4390.18  4416.18
                             4465.47  4519.61  4521.61  4542.82  4568.80
                             4641.79  4666.60  4681.76  4690.15

 Zero-point correction=                           0.197903 (Hartree/Particle)
 Thermal correction to Energy=                    0.210904
 Thermal correction to Enthalpy=                  0.211849
 Thermal correction to Gibbs Free Energy=         0.156554
 Sum of electronic and zero-point Energies=           -667.831544
 Sum of electronic and thermal Energies=              -667.818543
 Sum of electronic and thermal Enthalpies=            -667.817599
 Sum of electronic and thermal Free Energies=         -667.872893

                     E (Thermal)             CV                S
                      KCal/Mol        Cal/Mol-Kelvin    Cal/Mol-Kelvin
 Total                  132.344             48.374            116.377
 Electronic               0.000              0.000              0.000
 Translational            0.889              2.981             41.679
 Rotational               0.889              2.981             31.890
 Vibrational            130.567             42.412             42.808
 Vibration     1          0.593              1.986              6.609
 Vibration     2          0.594              1.983              5.585
 Vibration     3          0.599              1.966              4.018
 Vibration     4          0.601              1.959              3.741
 Vibration     5          0.609              1.932              3.089
 Vibration     6          0.631              1.862              2.291
 Vibration     7          0.642              1.826              2.047
 Vibration     8          0.662              1.766              1.743
 Vibration     9          0.672              1.735              1.622
 Vibration    10          0.691              1.677              1.427
 Vibration    11          0.710              1.624              1.281
 Vibration    12          0.723              1.585              1.189
 Vibration    13          0.758              1.491              1.000
 Vibration    14          0.789              1.410              0.866
 Vibration    15          0.815              1.345              0.774
 Vibration    16          0.863              1.234              0.640
 Vibration    17          0.882              1.189              0.593
 Vibration    18          0.942              1.063              0.475
 Vibration    19          0.950              1.048              0.463

 Optimization completed.
    -- Stationary point found.
 Normal termination of Gaussian 16 at Thu Dec 10 09:23:51 2020.

 ----------------------------------------------------------------------
 # B3LYP/6-311++G(d,p) empiricaldispersion=gd3bj scf=xqc pop=npa geom=c
 heck
 ----------------------------------------------------------------------

 --------------------------------------
 CID_14239229_JID_4108_Energie_neutraal
 --------------------------------------
 Structure from the checkpoint file:  "JID_4108.chk"
 Charge =  0 Multiplicity = 1

 SCF Done:  E(RB3LYP) =  -668.217914311     A.U. after   15 cycles
 Normal termination of Gaussian 16 at Thu Dec 10 09:26:00 2020.

 ----------------------------------------------------------------------
 # B3LYP/6-311++G(d,p) empiricaldispersion=gd3bj scf=xqc pop=npa geom=c
 heck
 ----------------------------------------------------------------------

 ------------------------------------
 CID_14239229_JID_4108_Energie_kation
 ------------------------------------
 Structure from the checkpoint file:  "JID_4108.chk"
 Charge =  1 Multiplicity = 2

 SCF Done:  E(UB3LYP) =  -667.895954769     A.U. after   29 cycles
 Normal termination of Gaussian 16 at Thu Dec 10 09:31:23 2020.
 Gaussian 16:  ES64L-G16RevA.03 25-Dec-2016

 ----------------------------------------------------------------------
 # B3LYP/6-311++G(d,p) empiricaldispersion=gd3bj scf=xqc pop=npa geom=c
 heck
 ----------------------------------------------------------------------

 -----------------------------------
 CID_14239229_JID_4108_Energie_anion
 -----------------------------------
 Structure from the checkpoint file:  "JID_4108.chk"
 Charge = -1 Multiplicity = 2

                         Standard orientation:
 ---------------------------------------------------------------------
 Center     Atomic      Atomic             Coordinates (Angstroms)
 Number     Number       Type             X           Y           Z
 ---------------------------------------------------------------------
      1          6           0        1.013328    2.262648   -0.359002
      2          6           0        0.722460    0.789739   -0.214706
      3          6           0        1.685274   -0.211581    0.019804
      4          6           0        1.320334   -1.558315    0.152282
      5          6           0       -0.001563   -1.940284    0.049708
      6          6           0       -0.983371   -0.965734   -0.187983
      7          6           0       -0.612436    0.377326   -0.312285
      8          8           0       -2.252618   -1.433185   -0.291944
      9          6           0       -3.327009   -0.521585   -0.558822
     10          6           0       -3.706535    0.296730    0.642577
     11          6           0       -3.971441    1.601391    0.603570
     12          7           0        3.110541    0.088532    0.141311
     13          8           0        3.876879   -0.845184    0.393533
     14          8           0        3.487043    1.253774   -0.014178
     15          1           0        1.526558    2.658805    0.520848
     16          1           0        1.673139    2.458906   -1.208094
     17          1           0        0.076800    2.809914   -0.501452
     18          1           0        2.099661   -2.286480    0.333801
     19          1           0       -0.301121   -2.978064    0.143861
     20          1           0       -1.365814    1.137470   -0.464926
     21          1           0       -3.087423    0.114328   -1.420423
     22          1           0       -4.152163   -1.181446   -0.845806
     23          1           0       -3.790098   -0.260155    1.574670
     24          1           0       -4.288487    2.147747    1.486787
     25          1           0       -3.889504    2.173992   -0.318579
 ---------------------------------------------------------------------

 SCF Done:  E(UB3LYP) =  -668.241947834     A.U. after   27 cycles

 The electronic state is 2-A.
 Alpha  occ. eigenvalues --  -19.03690 -18.92566 -18.92554 -14.30325 -10.13848
 Alpha  occ. eigenvalues --  -10.09599 -10.09217 -10.08843 -10.05093 -10.04634
 Alpha  occ. eigenvalues --  -10.03658 -10.03492 -10.03040 -10.02954  -1.00733
 Alpha  occ. eigenvalues --   -0.95541  -0.83446  -0.72762  -0.70789  -0.64589
 Alpha  occ. eigenvalues --   -0.63063  -0.59540  -0.56320  -0.51182  -0.48378
 Alpha  occ. eigenvalues --   -0.46834  -0.43799  -0.41316  -0.37789  -0.37188
 Alpha  occ. eigenvalues --   -0.36283  -0.35106  -0.33500  -0.32480  -0.30216
 Alpha  occ. eigenvalues --   -0.29836  -0.29704  -0.28046  -0.27874  -0.26445
 Alpha  occ. eigenvalues --   -0.25837  -0.25478  -0.22960  -0.20517  -0.19504
 Alpha  occ. eigenvalues --   -0.18762  -0.12302  -0.11746  -0.10753  -0.09723
 Alpha  occ. eigenvalues --   -0.08377   0.04212
 Alpha virt. eigenvalues --    0.06564   0.06912   0.08448   0.08522   0.10356
 Alpha virt. eigenvalues --    0.11138   0.11335   0.11779   0.12223   0.13257
 Alpha virt. eigenvalues --    0.14486   0.14663   0.14950   0.15286   0.15737

  Beta  occ. eigenvalues --  -19.03605 -18.92103 -18.92006 -14.29638 -10.13851
  Beta  occ. eigenvalues --  -10.09572 -10.08925 -10.08825 -10.05075 -10.04419
  Beta  occ. eigenvalues --  -10.03748 -10.03586 -10.03053 -10.02804  -0.99612
  Beta  occ. eigenvalues --   -0.95337  -0.82486  -0.72527  -0.70694  -0.64325
  Beta  occ. eigenvalues --   -0.62733  -0.59323  -0.56148  -0.50659  -0.48126
  Beta  occ. eigenvalues --   -0.46673  -0.43428  -0.41147  -0.37695  -0.37086
  Beta  occ. eigenvalues --   -0.36001  -0.34640  -0.32301  -0.30704  -0.30055
  Beta  occ. eigenvalues --   -0.29356  -0.29253  -0.27935  -0.27256  -0.26249
  Beta  occ. eigenvalues --   -0.25716  -0.25064  -0.22838  -0.20426  -0.18972
  Beta  occ. eigenvalues --   -0.18518  -0.11514  -0.10285  -0.08741  -0.08512
  Beta  occ. eigenvalues --   -0.07866
  Beta virt. eigenvalues --    0.06628   0.07024   0.08419   0.08489   0.10317
  Beta virt. eigenvalues --    0.11100   0.11252   0.11475   0.11798   0.12502
  Beta virt. eigenvalues --    0.13269   0.14530   0.14657   0.15227   0.15697

 Mulliken charges and spin densities:
               1          2
     1  C   -0.293893  -0.024320
     2  C    1.893296   0.198869
     3  C   -1.948503  -0.078646
     4  C   -0.311761   0.171040
     5  C   -0.333836  -0.070327
     6  C   -0.455336   0.182707
     7  C    0.432212  -0.077110
     8  O   -0.093028   0.013565
     9  C   -0.488670   0.001459
    10  C    0.313962  -0.001912
    11  C   -0.510867   0.032983
    12  N   -0.243888   0.225886
    13  O   -0.183332   0.182134
    14  O   -0.221158   0.205052
    15  H    0.174953   0.011143
    16  H    0.179475   0.005251
    17  H    0.082517   0.008259
    18  H    0.239720  -0.009154
    19  H    0.142814   0.004133
    20  H   -0.086337   0.003728
    21  H    0.153617   0.013140
    22  H    0.167110  -0.001614
    23  H    0.171893   0.002374
    24  H    0.109391  -0.001722
    25  H    0.109650   0.003082
 Sum of Mulliken charges =  -1.00000   1.00000

 Dipole moment (field-independent basis, Debye):
    X=            -12.1853    Y=              0.6738    Z=             -0.7375  Tot=             12.2262
 Quadrupole moment (field-independent basis, Debye-Ang):
   XX=           -145.2313   YY=            -95.1736   ZZ=            -87.7032
   XY=             -3.8789   XZ=             -2.4633   YZ=             -0.0516

 Summary of Natural Population Analysis:

                                       Natural Population
                Natural  -----------------------------------------------
    Atom  No    Charge         Core      Valence    Rydberg      Total
 -----------------------------------------------------------------------
      C    1   -0.29157      0.99964     2.28685    0.00508     3.29157
      C    2    0.03949      0.99950     1.95220    0.00881     2.96051
      C    3    0.02685      0.99937     1.96003    0.01375     2.97315
      C    4   -0.05695      0.99954     2.04787    0.00954     3.05695
      C    5   -0.15613      0.99953     2.14758    0.00901     3.15613
      C    6    0.20723      0.99939     1.78140    0.01198     2.79277
      C    7   -0.17425      0.99949     2.16749    0.00727     3.17425
      O    8   -0.27260      0.99986     3.26265    0.01010     4.27260
      C    9   -0.02818      0.99955     2.01739    0.01124     3.02818
      C   10   -0.08905      0.99957     2.08036    0.00912     3.08905
      C   11   -0.18980      0.99957     2.18306    0.00717     3.18980
      N   12    0.31267      0.99972     2.16144    0.02618     3.18733
      O   13   -0.20690      0.99990     3.19911    0.00789     4.20690
      O   14   -0.19319      0.99990     3.18520    0.00809     4.19319
      H   15    0.11289      0.00000     0.38586    0.00125     0.38711
      H   16    0.11266      0.00000     0.38611    0.00124     0.38734
      H   17    0.08309      0.00000     0.41576    0.00114     0.41691
      H   18    0.11467      0.00000     0.38410    0.00124     0.38533
      H   19    0.09772      0.00000     0.40121    0.00108     0.40228
      H   20    0.09588      0.00000     0.40227    0.00185     0.40412
      H   21    0.08553      0.00000     0.41232    0.00215     0.41447
      H   22    0.09296      0.00000     0.40589    0.00115     0.40704
      H   23    0.09567      0.00000     0.40319    0.00114     0.40433
      H   24    0.09219      0.00000     0.40674    0.00108     0.40781
      H   25    0.08912      0.00000     0.40972    0.00115     0.41088
 =======================================================================
   * Total *   -0.00000     13.99453    36.84579    0.15968    51.00000

 Normal termination of Gaussian 16 at Thu Dec 10 09:36:23 2020.
