 Gaussian 16, Revision A.03,

 -----------------------------------------------------------
 # opt freq B3LYP/6-31G(d) empiricaldispersion=gd3bj scf=xqc
 -----------------------------------------------------------

 -------------------------------
 CID_144220423_JID_2693_neutraal
 -------------------------------
 Symbolic Z-matrix:
 Charge =  0 Multiplicity = 1

 SCF Done:  E(RB3LYP) =  -500.130607205     A.U. after   15 cycles
 SCF Done:  E(RB3LYP) =  -500.161797501     A.U. after   14 cycles
 SCF Done:  E(RB3LYP) =  -500.170914632     A.U. after   13 cycles
 SCF Done:  E(RB3LYP) =  -500.186555480     A.U. after   13 cycles
 SCF Done:  E(RB3LYP) =  -500.189434822     A.U. after   12 cycles
 SCF Done:  E(RB3LYP) =  -500.190465155     A.U. after   12 cycles
 SCF Done:  E(RB3LYP) =  -500.191068551     A.U. after   12 cycles
 SCF Done:  E(RB3LYP) =  -500.191218618     A.U. after   11 cycles
 SCF Done:  E(RB3LYP) =  -500.191319721     A.U. after   11 cycles
 SCF Done:  E(RB3LYP) =  -500.191359046     A.U. after   10 cycles
 SCF Done:  E(RB3LYP) =  -500.191373899     A.U. after    9 cycles
 SCF Done:  E(RB3LYP) =  -500.191377070     A.U. after    8 cycles
 SCF Done:  E(RB3LYP) =  -500.191377851     A.U. after    8 cycles
 SCF Done:  E(RB3LYP) =  -500.191377886     A.U. after    7 cycles
 Optimization completed.
    -- Stationary point found.
 Normal termination of Gaussian 16 at Wed Dec  9 17:52:59 2020.

 --------------------------------------------------------------------
 #N Geom=AllCheck Guess=TCheck SCRF=Check GenChk RB3LYP/6-31G(d) Freq
 --------------------------------------------------------------------

 Structure from the checkpoint file:  "JID_2693.chk"
 -------------------------------
 CID_144220423_JID_2693_neutraal
 -------------------------------
 Charge =  0 Multiplicity = 1

 SCF Done:  E(RB3LYP) =  -500.191377886     A.U. after    1 cycles

  Exact polarizability: 110.878   0.278 109.315  -1.971   6.313  99.047
 Approx polarizability: 145.994   3.830 162.724  -3.671  16.498 154.019

                      1                      2                      3
                      A                      A                      A
 Frequencies --     57.0612                71.1307                99.5966
 Red. masses --      4.9653                 3.6279                 4.6559
 Frc consts  --      0.0095                 0.0108                 0.0272
 IR Inten    --      5.9079                 1.7280                 6.3452

                      4                      5                      6
                      A                      A                      A
 Frequencies --    141.8404               163.5233               210.9473
 Red. masses --      3.8749                 2.9317                 2.3416
 Frc consts  --      0.0459                 0.0462                 0.0614
 IR Inten    --      1.4893                 1.2675                 3.4105

                      7                      8                      9
                      A                      A                      A
 Frequencies --    239.3298               284.3657               353.9714
 Red. masses --      2.4029                 2.0802                 2.2609
 Frc consts  --      0.0811                 0.0991                 0.1669
 IR Inten    --      1.8853                 0.3403                 0.3475

                     10                     11                     12
                      A                      A                      A
 Frequencies --    368.4966               384.3221               393.2133
 Red. masses --      2.6745                 3.7122                 2.6786
 Frc consts  --      0.2140                 0.3231                 0.2440
 IR Inten    --      2.2031                 1.9834                 7.2715

                     13                     14                     15
                      A                      A                      A
 Frequencies --    418.9502               424.3979               517.4947
 Red. masses --      1.9812                 3.0370                 3.5090
 Frc consts  --      0.2049                 0.3223                 0.5537
 IR Inten    --      0.1365                 1.6343                 1.2282

                     16                     17                     18
                      A                      A                      A
 Frequencies --    572.3168               589.7728               711.3379
 Red. masses --      3.3179                 2.7661                 2.9899
 Frc consts  --      0.6403                 0.5669                 0.8914
 IR Inten    --      6.1228                 1.0320                 3.5545

                     19                     20                     21
                      A                      A                      A
 Frequencies --    746.3872               803.2891               813.5913
 Red. masses --      2.0092                 1.0573                 2.7560
 Frc consts  --      0.6595                 0.4020                 1.0748
 IR Inten    --      0.4831                 0.4834                 3.1379

                     22                     23                     24
                      A                      A                      A
 Frequencies --    832.9780               873.1532               901.5527
 Red. masses --      1.7452                 2.1158                 2.1195
 Frc consts  --      0.7134                 0.9504                 1.0150
 IR Inten    --      6.0157                 2.3802                 9.0541

                     25                     26                     27
                      A                      A                      A
 Frequencies --    909.6231               942.1033               964.3566
 Red. masses --      2.0498                 1.3218                 2.6920
 Frc consts  --      0.9993                 0.6912                 1.4750
 IR Inten    --      2.4554                 1.0540                12.7396

                     28                     29                     30
                      A                      A                      A
 Frequencies --    994.3798               997.1824              1010.2488
 Red. masses --      2.8958                 1.9348                 2.4237
 Frc consts  --      1.6870                 1.1335                 1.4574
 IR Inten    --     16.6470                 1.9801                10.5414

                     31                     32                     33
                      A                      A                      A
 Frequencies --   1029.6745              1048.6245              1060.1538
 Red. masses --      2.4055                 1.8715                 1.4306
 Frc consts  --      1.5027                 1.2125                 0.9474
 IR Inten    --      3.9847                 9.3343                 6.9921

                     34                     35                     36
                      A                      A                      A
 Frequencies --   1071.2335              1087.3828              1104.2680
 Red. masses --      1.7964                 1.4212                 2.2190
 Frc consts  --      1.2146                 0.9901                 1.5943
 IR Inten    --      6.7827                 4.0520                17.7525

                     37                     38                     39
                      A                      A                      A
 Frequencies --   1172.4071              1191.9357              1204.4728
 Red. masses --      2.2382                 1.7280                 1.2922
 Frc consts  --      1.8127                 1.4465                 1.1046
 IR Inten    --     16.7701                45.9868                 0.8083

                     40                     41                     42
                      A                      A                      A
 Frequencies --   1220.5099              1255.8902              1259.0979
 Red. masses --      1.2474                 1.2009                 1.2963
 Frc consts  --      1.0948                 1.1160                 1.2108
 IR Inten    --      7.8014                 4.5985                 5.5721

                     43                     44                     45
                      A                      A                      A
 Frequencies --   1279.7084              1315.5728              1330.2129
 Red. masses --      1.1931                 1.9287                 1.6039
 Frc consts  --      1.1511                 1.9668                 1.6721
 IR Inten    --      0.7540                 6.3005                 1.2353

                     46                     47                     48
                      A                      A                      A
 Frequencies --   1345.3207              1365.5484              1387.0542
 Red. masses --      1.5636                 1.3519                 1.7306
 Frc consts  --      1.6673                 1.4852                 1.9617
 IR Inten    --     13.0413                12.2889                 7.9891

                     49                     50                     51
                      A                      A                      A
 Frequencies --   1402.6574              1413.7322              1420.3198
 Red. masses --      1.2881                 1.4257                 1.6810
 Frc consts  --      1.4932                 1.6788                 1.9980
 IR Inten    --      5.9312                45.8966                 8.2864

                     52                     53                     54
                      A                      A                      A
 Frequencies --   1426.8592              1445.2054              1488.3364
 Red. masses --      1.3593                 1.5022                 1.1033
 Frc consts  --      1.6306                 1.8485                 1.4399
 IR Inten    --     10.0718                18.0810                 8.3833

                     55                     56                     57
                      A                      A                      A
 Frequencies --   1494.7920              1504.0440              1515.5809
 Red. masses --      1.0886                 1.0891                 1.1152
 Frc consts  --      1.4330                 1.4516                 1.5093
 IR Inten    --      1.2516                 3.3145                 6.1659

                     58                     59                     60
                      A                      A                      A
 Frequencies --   1524.4612              1534.2066              1540.1849
 Red. masses --      1.0847                 1.2368                 1.1754
 Frc consts  --      1.4852                 1.7152                 1.6428
 IR Inten    --      2.7991                 3.3459                 4.4124

                     61                     62                     63
                      A                      A                      A
 Frequencies --   1553.3159              2360.7258              2978.7016
 Red. masses --      1.0928                12.5721                 1.0705
 Frc consts  --      1.5535                41.2809                 5.5960
 IR Inten    --      2.6656                14.8025                96.8652

                     64                     65                     66
                      A                      A                      A
 Frequencies --   3005.7282              3019.4198              3034.1072
 Red. masses --      1.0735                 1.0868                 1.0695
 Frc consts  --      5.7140                 5.8377                 5.8009
 IR Inten    --     41.7657                17.6083                61.7360

                     67                     68                     69
                      A                      A                      A
 Frequencies --   3039.1402              3043.0905              3059.0989
 Red. masses --      1.0670                 1.0665                 1.0617
 Frc consts  --      5.8066                 5.8189                 5.8536
 IR Inten    --     33.1644                88.8477                17.8264

                     70                     71                     72
                      A                      A                      A
 Frequencies --   3085.3965              3091.4378              3102.7607
 Red. masses --      1.1006                 1.1027                 1.0926
 Frc consts  --      6.1731                 6.2089                 6.1973
 IR Inten    --     34.7292                12.9566                14.1220

                     73                     74                     75
                      A                      A                      A
 Frequencies --   3110.3528              3122.9571              3133.9278
 Red. masses --      1.0982                 1.0942                 1.0521
 Frc consts  --      6.2599                 6.2873                 6.0879
 IR Inten    --     22.0757                15.5396                20.7203

                     76                     77                     78
                      A                      A                      A
 Frequencies --   3138.8469              3211.4892              3225.7020
 Red. masses --      1.0581                 1.1185                 1.1154
 Frc consts  --      6.1420                 6.7970                 6.8383
 IR Inten    --     15.4359                 1.4865                18.1722

 - Thermochemistry -
 -------------------
 Temperature   298.150 Kelvin.  Pressure   1.00000 Atm.
 Atom     1 has atomic number  6 and mass  12.00000

 Molecular mass:   164.13135 amu.
 Principal axes and moments of inertia in atomic units:
                           1         2         3
     Eigenvalues --  1451.504202080.597272652.84912
           X            0.99789  -0.06454  -0.00739
           Y            0.06457   0.99790   0.00406
           Z            0.00711  -0.00453   0.99996
 This molecule is an asymmetric top.
 Rotational symmetry number  1.
 Warning -- assumption of classical behavior for rotation
           may cause significant error
 Rotational temperatures (Kelvin)      0.05967     0.04163     0.03265
 Rotational constants (GHZ):           1.24336     0.86741     0.68030
 Zero-point vibrational energy     655233.9 (Joules/Mol)
                                  156.60467 (Kcal/Mol)
 Warning -- explicit consideration of  17 degrees of freedom as
           vibrations may cause significant error
 Vibrational temperatures:     82.10   102.34   143.30   204.08   235.27
          (Kelvin)            303.51   344.34   409.14   509.29   530.18
                              552.95   565.75   602.78   610.61   744.56
                              823.44   848.55  1023.46  1073.88  1155.75
                             1170.58  1198.47  1256.27  1297.13  1308.74
                             1355.48  1387.49  1430.69  1434.72  1453.52
                             1481.47  1508.74  1525.32  1541.27  1564.50
                             1588.80  1686.83  1714.93  1732.97  1756.04
                             1806.95  1811.56  1841.21  1892.82  1913.88
                             1935.62  1964.72  1995.66  2018.11  2034.05
                             2043.52  2052.93  2079.33  2141.38  2150.67
                             2163.98  2180.58  2193.36  2207.38  2215.98
                             2234.88  3396.56  4285.69  4324.57  4344.27
                             4365.40  4372.64  4378.33  4401.36  4439.20
                             4447.89  4464.18  4475.10  4493.24  4509.02
                             4516.10  4620.62  4641.07

 Zero-point correction=                           0.249565 (Hartree/Particle)
 Thermal correction to Energy=                    0.261162
 Thermal correction to Enthalpy=                  0.262106
 Thermal correction to Gibbs Free Energy=         0.212181
 Sum of electronic and zero-point Energies=           -499.941812
 Sum of electronic and thermal Energies=              -499.930216
 Sum of electronic and thermal Enthalpies=            -499.929272
 Sum of electronic and thermal Free Energies=         -499.979197

                     E (Thermal)             CV                S
                      KCal/Mol        Cal/Mol-Kelvin    Cal/Mol-Kelvin
 Total                  163.881             45.069            105.076
 Electronic               0.000              0.000              0.000
 Translational            0.889              2.981             41.195
 Rotational               0.889              2.981             30.461
 Vibrational            162.104             39.108             33.420
 Vibration     1          0.596              1.975              4.556
 Vibration     2          0.598              1.968              4.122
 Vibration     3          0.604              1.949              3.462
 Vibration     4          0.615              1.911              2.779
 Vibration     5          0.623              1.887              2.509
 Vibration     6          0.643              1.824              2.035
 Vibration     7          0.657              1.780              1.808
 Vibration     8          0.683              1.703              1.507
 Vibration     9          0.730              1.567              1.148
 Vibration    10          0.741              1.537              1.086
 Vibration    11          0.753              1.504              1.022
 Vibration    12          0.760              1.485              0.988
 Vibration    13          0.782              1.429              0.896
 Vibration    14          0.786              1.417              0.877
 Vibration    15          0.873              1.211              0.616
 Vibration    16          0.929              1.091              0.500
 Vibration    17          0.947              1.054              0.468

 Optimization completed.
    -- Stationary point found.
 Normal termination of Gaussian 16 at Wed Dec  9 18:00:37 2020.

 ----------------------------------------------------------------------
 # B3LYP/6-311++G(d,p) empiricaldispersion=gd3bj scf=xqc pop=npa geom=c
 heck
 ----------------------------------------------------------------------

 ---------------------------------------
 CID_144220423_JID_2693_Energie_neutraal
 ---------------------------------------
 Structure from the checkpoint file:  "JID_2693.chk"
 Charge =  0 Multiplicity = 1

 SCF Done:  E(RB3LYP) =  -500.325880507     A.U. after   13 cycles
 Normal termination of Gaussian 16 at Wed Dec  9 18:03:50 2020.

 ----------------------------------------------------------------------
 # B3LYP/6-311++G(d,p) empiricaldispersion=gd3bj scf=xqc pop=npa geom=c
 heck
 ----------------------------------------------------------------------

 -------------------------------------
 CID_144220423_JID_2693_Energie_kation
 -------------------------------------
 Structure from the checkpoint file:  "JID_2693.chk"
 Charge =  1 Multiplicity = 2

 SCF Done:  E(UB3LYP) =  -500.046456894     A.U. after   19 cycles
 Normal termination of Gaussian 16 at Wed Dec  9 18:09:30 2020.
 Gaussian 16:  ES64L-G16RevA.03 25-Dec-2016

 ----------------------------------------------------------------------
 # B3LYP/6-311++G(d,p) empiricaldispersion=gd3bj scf=xqc pop=npa geom=c
 heck
 ----------------------------------------------------------------------

 ------------------------------------
 CID_144220423_JID_2693_Energie_anion
 ------------------------------------
 Structure from the checkpoint file:  "JID_2693.chk"
 Charge = -1 Multiplicity = 2

                         Standard orientation:
 ---------------------------------------------------------------------
 Center     Atomic      Atomic             Coordinates (Angstroms)
 Number     Number       Type             X           Y           Z
 ---------------------------------------------------------------------
      1          6           0       -2.582167    1.384595   -0.214926
      2          6           0       -1.308637    1.322523   -1.027224
      3          6           0       -1.559224    0.324064    0.084104
      4          6           0       -1.818923   -1.115113   -0.318507
      5          6           0       -0.484990   -1.801176   -0.657469
      6          7           0        0.563530   -1.475344    0.308540
      7          6           0        0.137889   -0.841493    1.548991
      8          6           0       -0.743678    0.420886    1.372009
      9          6           0        1.875580   -1.231304   -0.215336
     10          6           0        2.098226    0.092526   -1.021106
     11          6           0        2.136376    1.285454   -0.180824
     12          7           0        2.166254    2.218595    0.510219
     13          1           0       -3.511534    1.086807   -0.694335
     14          1           0       -2.690012    2.199519    0.496621
     15          1           0       -0.561840    2.094121   -0.863460
     16          1           0       -1.382735    0.978720   -2.056947
     17          1           0       -2.485206   -1.173061   -1.187058
     18          1           0       -2.324071   -1.645035    0.500281
     19          1           0       -0.176696   -1.459821   -1.656049
     20          1           0       -0.626730   -2.892378   -0.730874
     21          1           0       -0.425680   -1.582660    2.134200
     22          1           0        1.031555   -0.604974    2.134082
     23          1           0       -0.130450    1.325586    1.365532
     24          1           0       -1.417891    0.494107    2.236650
     25          1           0        2.602160   -1.262068    0.604029
     26          1           0        2.137237   -2.048360   -0.900421
     27          1           0        3.047757    0.027538   -1.567189
     28          1           0        1.302940    0.213430   -1.764646
 ---------------------------------------------------------------------

 SCF Done:  E(UB3LYP) =  -500.313081326     A.U. after   30 cycles

 The electronic state is 2-A.
 Alpha  occ. eigenvalues --  -14.20670 -14.19672 -10.10833 -10.10433 -10.10115
 Alpha  occ. eigenvalues --  -10.09469 -10.08755 -10.08496 -10.07286 -10.06825
 Alpha  occ. eigenvalues --  -10.06814 -10.06434  -0.82856  -0.80467  -0.76801
 Alpha  occ. eigenvalues --   -0.68918  -0.65407  -0.64191  -0.56100  -0.53844
 Alpha  occ. eigenvalues --   -0.50524  -0.48744  -0.42716  -0.41294  -0.40159
 Alpha  occ. eigenvalues --   -0.38256  -0.37828  -0.36085  -0.33906  -0.32563
 Alpha  occ. eigenvalues --   -0.31928  -0.30892  -0.29166  -0.28763  -0.27247
 Alpha  occ. eigenvalues --   -0.26547  -0.26041  -0.25319  -0.24806  -0.23027
 Alpha  occ. eigenvalues --   -0.22658  -0.21824  -0.19294  -0.17277  -0.09832
 Alpha  occ. eigenvalues --    0.04607
 Alpha virt. eigenvalues --    0.06870   0.07568   0.08182   0.09317   0.09717
 Alpha virt. eigenvalues --    0.09777   0.10538   0.10747   0.12033   0.12313
 Alpha virt. eigenvalues --    0.12728   0.12929   0.13333   0.13481   0.14337

  Beta  occ. eigenvalues --  -14.20647 -14.19672 -10.10829 -10.10399 -10.10071
  Beta  occ. eigenvalues --  -10.09452 -10.08718 -10.08498 -10.07279 -10.06805
  Beta  occ. eigenvalues --  -10.06792 -10.06429  -0.82836  -0.80426  -0.76786
  Beta  occ. eigenvalues --   -0.68854  -0.65371  -0.64147  -0.56027  -0.53790
  Beta  occ. eigenvalues --   -0.50483  -0.48688  -0.42667  -0.41233  -0.40124
  Beta  occ. eigenvalues --   -0.38216  -0.37785  -0.36049  -0.33842  -0.32527
  Beta  occ. eigenvalues --   -0.31898  -0.30841  -0.29131  -0.28716  -0.27213
  Beta  occ. eigenvalues --   -0.26517  -0.26001  -0.25278  -0.24771  -0.22967
  Beta  occ. eigenvalues --   -0.22606  -0.21796  -0.19272  -0.17257  -0.09786
  Beta virt. eigenvalues --    0.06967   0.07882   0.08159   0.08698   0.09878
  Beta virt. eigenvalues --    0.10138   0.10242   0.10890   0.11067   0.12296
  Beta virt. eigenvalues --    0.12754   0.13156   0.13215   0.13700   0.13870

 Mulliken charges and spin densities:
               1          2
     1  C    0.278524  -0.512538
     2  C    0.808199  -1.310301
     3  C   -0.372664   1.006607
     4  C   -0.313988  -0.163980
     5  C    0.987674  -1.370469
     6  N   -0.132562   0.247479
     7  C    0.352603  -0.876948
     8  C   -0.864161   0.480629
     9  C    0.942481  -1.533538
    10  C   -0.447354   0.550107
    11  C    1.120595  -1.109500
    12  N   -0.364701   0.020920
    13  H   -0.006884   0.146939
    14  H    0.081303   0.048057
    15  H    0.244965  -0.091072
    16  H   -0.263963   0.436535
    17  H   -0.501418   0.660027
    18  H    0.037412   0.127034
    19  H    0.050966   0.105037
    20  H   -0.513048   0.687607
    21  H   -0.036180   0.188118
    22  H    0.131929   0.014643
    23  H    0.097648   0.029856
    24  H    0.056343   0.096727
    25  H   -0.206324   0.348825
    26  H   -0.723360   0.920112
    27  H   -1.053790   1.306027
    28  H   -0.390248   0.547060
 Sum of Mulliken charges =  -1.00000   1.00000

 Dipole moment (field-independent basis, Debye):
    X=             -4.5264    Y=              2.8299    Z=              5.3848  Tot=              7.5824
 Quadrupole moment (field-independent basis, Debye-Ang):
   XX=           -129.9542   YY=           -123.2677   ZZ=           -115.5246
   XY=             -1.8573   XZ=              3.7380   YZ=             -8.3659

 Summary of Natural Population Analysis:

                                       Natural Population
                Natural  -----------------------------------------------
    Atom  No    Charge         Core      Valence    Rydberg      Total
 -----------------------------------------------------------------------
      C    1   -0.19377      0.99958     2.18566    0.00854     3.19377
      C    2   -0.19752      0.99958     2.18866    0.00927     3.19752
      C    3   -0.04783      0.99955     2.03602    0.01227     3.04783
      C    4   -0.19115      0.99958     2.18197    0.00960     3.19115
      C    5   -0.07538      0.99960     2.06368    0.01209     3.07538
      N    6   -0.28690      0.99971     2.77276    0.01443     3.78690
      C    7   -0.07951      0.99961     2.06911    0.01079     3.07951
      C    8   -0.19588      0.99958     2.18848    0.00782     3.19588
      C    9   -0.06697      0.99959     2.05375    0.01362     3.06697
      C   10   -0.26512      0.99953     2.25390    0.01169     3.26512
      C   11    0.16951      0.99966     1.81441    0.01642     2.83049
      N   12   -0.19922      0.99979     2.68885    0.01058     3.69922
      H   13    0.10104      0.00000     0.39810    0.00086     0.39896
      H   14    0.09881      0.00000     0.40034    0.00084     0.40119
      H   15    0.10592      0.00000     0.39304    0.00104     0.39408
      H   16    0.10391      0.00000     0.39466    0.00143     0.39609
      H   17    0.10568      0.00000     0.39273    0.00159     0.39432
      H   18    0.09602      0.00000     0.40257    0.00141     0.40398
      H   19    0.09349      0.00000     0.40323    0.00328     0.40651
      H   20    0.09023      0.00000     0.40819    0.00157     0.40977
      H   21    0.08762      0.00000     0.41126    0.00112     0.41238
      H   22    0.09968      0.00000     0.39938    0.00094     0.40032
      H   23    0.10689      0.00000     0.39135    0.00176     0.39311
      H   24    0.09319      0.00000     0.40572    0.00109     0.40681
      H   25    0.09561      0.00000     0.40283    0.00156     0.40439
      H   26    0.10296      0.00000     0.39354    0.00350     0.39704
      H   27    0.12509      0.00000     0.37056    0.00435     0.37491
      H   28    0.12357      0.00000     0.37351    0.00292     0.37643
 =======================================================================
   * Total *   -0.00000     11.99536    32.83825    0.16638    45.00000

 Normal termination of Gaussian 16 at Wed Dec  9 18:19:00 2020.
