 Gaussian 16, Revision A.03,

 -----------------------------------------------------------
 # opt freq B3LYP/6-31G(d) empiricaldispersion=gd3bj scf=xqc
 -----------------------------------------------------------

 ------------------------------
 CID_90708421_JID_2768_neutraal
 ------------------------------
 Symbolic Z-matrix:
 Charge =  0 Multiplicity = 1

 SCF Done:  E(RB3LYP) =  -502.629815322     A.U. after   13 cycles
 SCF Done:  E(RB3LYP) =  -502.633641062     A.U. after   12 cycles
 SCF Done:  E(RB3LYP) =  -502.634085579     A.U. after   10 cycles
 SCF Done:  E(RB3LYP) =  -502.634186924     A.U. after   11 cycles
 SCF Done:  E(RB3LYP) =  -502.634254500     A.U. after   10 cycles
 SCF Done:  E(RB3LYP) =  -502.634310351     A.U. after   10 cycles
 SCF Done:  E(RB3LYP) =  -502.634354538     A.U. after   10 cycles
 SCF Done:  E(RB3LYP) =  -502.634374194     A.U. after   10 cycles
 SCF Done:  E(RB3LYP) =  -502.634376986     A.U. after    9 cycles
 SCF Done:  E(RB3LYP) =  -502.634405641     A.U. after    9 cycles
 SCF Done:  E(RB3LYP) =  -502.635632558     A.U. after   10 cycles
 SCF Done:  E(RB3LYP) =  -502.635646013     A.U. after    9 cycles
 SCF Done:  E(RB3LYP) =  -502.635647416     A.U. after    9 cycles
 SCF Done:  E(RB3LYP) =  -502.635647629     A.U. after    6 cycles
 SCF Done:  E(RB3LYP) =  -502.635647658     A.U. after    7 cycles
 SCF Done:  E(RB3LYP) =  -502.635647721     A.U. after    7 cycles
 Optimization completed.
    -- Stationary point found.
 Normal termination of Gaussian 16 at Wed Dec  9 18:20:00 2020.

 --------------------------------------------------------------------
 #N Geom=AllCheck Guess=TCheck SCRF=Check GenChk RB3LYP/6-31G(d) Freq
 --------------------------------------------------------------------

 Structure from the checkpoint file:  "JID_2768.chk"
 ------------------------------
 CID_90708421_JID_2768_neutraal
 ------------------------------
 Charge =  0 Multiplicity = 1

 SCF Done:  E(RB3LYP) =  -502.635647721     A.U. after    1 cycles

  Exact polarizability: 134.083  -1.281 114.452   4.837  -5.950 100.939
 Approx polarizability: 164.358  -5.663 164.095   8.420 -15.331 158.226

                      1                      2                      3
                      A                      A                      A
 Frequencies --     25.6022                56.8079                97.0184
 Red. masses --      3.2616                 2.8526                 3.2981
 Frc consts  --      0.0013                 0.0054                 0.0183
 IR Inten    --      0.1401                 0.2960                 0.8378

                      4                      5                      6
                      A                      A                      A
 Frequencies --    135.7325               174.5157               195.7672
 Red. masses --      2.3515                 1.2805                 2.8042
 Frc consts  --      0.0255                 0.0230                 0.0633
 IR Inten    --      0.5723                 0.1070                 0.6154

                      7                      8                      9
                      A                      A                      A
 Frequencies --    202.7842               238.3331               271.0511
 Red. masses --      2.7582                 1.1436                 2.3439
 Frc consts  --      0.0668                 0.0383                 0.1015
 IR Inten    --      1.7366                 0.1054                 0.3490

                     10                     11                     12
                      A                      A                      A
 Frequencies --    290.2728               322.3589               350.0855
 Red. masses --      2.2535                 2.5788                 2.3676
 Frc consts  --      0.1119                 0.1579                 0.1710
 IR Inten    --      0.1399                 1.2494                 2.4343

                     13                     14                     15
                      A                      A                      A
 Frequencies --    399.5825               426.3505               462.0774
 Red. masses --      2.2800                 2.6871                 2.2552
 Frc consts  --      0.2145                 0.2878                 0.2837
 IR Inten    --      2.4286                 1.0766                 0.8680

                     16                     17                     18
                      A                      A                      A
 Frequencies --    492.5801               510.1699               557.1090
 Red. masses --      3.0245                 1.9033                 2.3572
 Frc consts  --      0.4324                 0.2919                 0.4311
 IR Inten    --     10.6171                 5.3749                 7.2205

                     19                     20                     21
                      A                      A                      A
 Frequencies --    575.9682               681.2518               720.2191
 Red. masses --      2.4197                 2.1176                 1.8588
 Frc consts  --      0.4730                 0.5791                 0.5681
 IR Inten    --      4.7252                22.9136                47.7220

                     22                     23                     24
                      A                      A                      A
 Frequencies --    741.7099               790.6928               799.7962
 Red. masses --      1.1597                 1.5265                 2.7188
 Frc consts  --      0.3759                 0.5623                 1.0247
 IR Inten    --     17.9212                46.1643                 7.8266

                     25                     26                     27
                      A                      A                      A
 Frequencies --    847.5376               873.6640               894.9994
 Red. masses --      2.9165                 2.1532                 2.1720
 Frc consts  --      1.2343                 0.9683                 1.0251
 IR Inten    --      4.8709                16.5526                 5.9328

                     28                     29                     30
                      A                      A                      A
 Frequencies --    910.3553               934.5515               936.7468
 Red. masses --      1.6575                 1.3514                 1.4630
 Frc consts  --      0.8093                 0.6954                 0.7564
 IR Inten    --      8.7136                27.3818                28.1209

                     31                     32                     33
                      A                      A                      A
 Frequencies --    957.0011               974.5604              1017.9002
 Red. masses --      1.8147                 1.7269                 1.6140
 Frc consts  --      0.9792                 0.9663                 0.9853
 IR Inten    --      0.9367                 4.9884                 5.4330

                     34                     35                     36
                      A                      A                      A
 Frequencies --   1036.0759              1051.8769              1071.6053
 Red. masses --      1.4701                 2.1230                 1.5326
 Frc consts  --      0.9298                 1.3840                 1.0370
 IR Inten    --      3.3927                 3.9525                 1.4954

                     37                     38                     39
                      A                      A                      A
 Frequencies --   1081.4995              1097.6303              1107.0872
 Red. masses --      1.7604                 1.7261                 1.6785
 Frc consts  --      1.2131                 1.2253                 1.2121
 IR Inten    --      8.9626                12.2566                 4.6357

                     40                     41                     42
                      A                      A                      A
 Frequencies --   1129.9446              1140.5584              1175.5131
 Red. masses --      2.2001                 2.5264                 2.4757
 Frc consts  --      1.6551                 1.9364                 2.0156
 IR Inten    --      4.6300                19.3857                68.1502

                     43                     44                     45
                      A                      A                      A
 Frequencies --   1194.2811              1201.5738              1222.6239
 Red. masses --      1.2692                 2.1240                 1.4698
 Frc consts  --      1.0666                 1.8068                 1.2945
 IR Inten    --      1.1651                 3.0171                20.8294

                     46                     47                     48
                      A                      A                      A
 Frequencies --   1266.4717              1300.8301              1321.1018
 Red. masses --      1.7260                 1.3499                 1.2380
 Frc consts  --      1.6311                 1.3458                 1.2730
 IR Inten    --      8.1182                12.3225                 0.1045

                     49                     50                     51
                      A                      A                      A
 Frequencies --   1330.6995              1338.6336              1354.1492
 Red. masses --      1.3371                 1.4288                 1.4807
 Frc consts  --      1.3950                 1.5085                 1.5997
 IR Inten    --      9.4362                 6.4514                 4.8587

                     52                     53                     54
                      A                      A                      A
 Frequencies --   1364.0992              1387.9218              1398.4640
 Red. masses --      1.2970                 1.4935                 1.4562
 Frc consts  --      1.4220                 1.6950                 1.6780
 IR Inten    --     16.0292                 9.0382                 4.1367

                     55                     56                     57
                      A                      A                      A
 Frequencies --   1421.4127              1431.1454              1438.6755
 Red. masses --      1.2573                 1.3020                 1.3633
 Frc consts  --      1.4967                 1.5712                 1.6625
 IR Inten    --      6.8239                 6.2851                 1.1669

                     58                     59                     60
                      A                      A                      A
 Frequencies --   1441.0424              1475.9336              1494.5808
 Red. masses --      1.2799                 1.2061                 1.2867
 Frc consts  --      1.5660                 1.5480                 1.6935
 IR Inten    --      3.8259                 5.2072                 2.4220

                     61                     62                     63
                      A                      A                      A
 Frequencies --   1504.3870              1508.1887              1509.5600
 Red. masses --      1.1363                 1.0801                 1.0835
 Frc consts  --      1.5152                 1.4475                 1.4548
 IR Inten    --     17.9962                21.4654                 8.9480

                     64                     65                     66
                      A                      A                      A
 Frequencies --   1520.0347              1523.3406              1525.8726
 Red. masses --      1.0717                 1.0726                 1.0827
 Frc consts  --      1.4589                 1.4665                 1.4853
 IR Inten    --      7.9999                 2.1008                 4.9021

                     67                     68                     69
                      A                      A                      A
 Frequencies --   1526.4591              1536.9506              1539.9855
 Red. masses --      1.0557                 1.1389                 1.1283
 Frc consts  --      1.4493                 1.5851                 1.5766
 IR Inten    --     11.1317                 8.0294                34.8914

                     70                     71                     72
                      A                      A                      A
 Frequencies --   1736.0005              2921.9949              2928.9196
 Red. masses --      4.7824                 1.0742                 1.0729
 Frc consts  --      8.4917                 5.4036                 5.4227
 IR Inten    --      8.9863                35.7683               152.4650

                     73                     74                     75
                      A                      A                      A
 Frequencies --   3020.8123              3028.9830              3032.1716
 Red. masses --      1.0801                 1.0682                 1.0424
 Frc consts  --      5.8072                 5.7740                 5.6469
 IR Inten    --     11.4296                31.8451                34.5434

                     76                     77                     78
                      A                      A                      A
 Frequencies --   3052.0549              3053.2865              3058.9654
 Red. masses --      1.0610                 1.0358                 1.0851
 Frc consts  --      5.8228                 5.6891                 5.9822
 IR Inten    --     20.1080                23.1775                53.8584

                     79                     80                     81
                      A                      A                      A
 Frequencies --   3078.9238              3079.3192              3091.8911
 Red. masses --      1.0971                 1.0877                 1.1021
 Frc consts  --      6.1277                 6.0766                 6.2077
 IR Inten    --     28.4419                60.7202                47.6072

                     82                     83                     84
                      A                      A                      A
 Frequencies --   3102.4674              3119.7206              3124.7709
 Red. masses --      1.0981                 1.1013                 1.1005
 Frc consts  --      6.2272                 6.3152                 6.3309
 IR Inten    --     39.2803                37.5048                29.5784

                     85                     86                     87
                      A                      A                      A
 Frequencies --   3134.3106              3138.7211              3155.4842
 Red. masses --      1.0881                 1.1031                 1.0600
 Frc consts  --      6.2979                 6.4029                 6.2184
 IR Inten    --     15.2379                30.3059                10.8362

                     88                     89                     90
                      A                      A                      A
 Frequencies --   3232.1077              3509.4011              3513.5023
 Red. masses --      1.1156                 1.0749                 1.0726
 Frc consts  --      6.8661                 7.7997                 7.8012
 IR Inten    --     12.3043                 0.6131                 2.9566

 - Thermochemistry -
 -------------------
 Temperature   298.150 Kelvin.  Pressure   1.00000 Atm.
 Atom     1 has atomic number  6 and mass  12.00000

 Molecular mass:   168.16265 amu.
 Principal axes and moments of inertia in atomic units:
                           1         2         3
     Eigenvalues --  1094.556243188.162493653.33269
           X            1.00000  -0.00085   0.00247
           Y            0.00081   0.99991   0.01330
           Z           -0.00248  -0.01330   0.99991
 This molecule is an asymmetric top.
 Rotational symmetry number  1.
 Warning -- assumption of classical behavior for rotation
           may cause significant error
 Rotational temperatures (Kelvin)      0.07913     0.02717     0.02371
 Rotational constants (GHZ):           1.64883     0.56608     0.49400
 Zero-point vibrational energy     777268.7 (Joules/Mol)
                                  185.77167 (Kcal/Mol)
 Warning -- explicit consideration of  19 degrees of freedom as
           vibrations may cause significant error
 Vibrational temperatures:     36.84    81.73   139.59   195.29   251.09
          (Kelvin)            281.67   291.76   342.91   389.98   417.64
                              463.80   503.69   574.91   613.42   664.83
                              708.71   734.02   801.56   828.69   980.17
                             1036.23  1067.16  1137.63  1150.73  1219.42
                             1257.01  1287.70  1309.80  1344.61  1347.77
                             1376.91  1402.18  1464.53  1490.68  1513.42
                             1541.80  1556.04  1579.25  1592.85  1625.74
                             1641.01  1691.30  1718.30  1728.80  1759.08
                             1822.17  1871.60  1900.77  1914.58  1926.00
                             1948.32  1962.63  1996.91  2012.08  2045.10
                             2059.10  2069.93  2073.34  2123.54  2150.37
                             2164.48  2169.95  2171.92  2186.99  2191.75
                             2195.39  2196.23  2211.33  2215.70  2497.72
                             4204.10  4214.06  4346.28  4358.03  4362.62
                             4391.23  4393.00  4401.17  4429.88  4430.45
                             4448.54  4463.76  4488.58  4495.85  4509.57
                             4515.92  4540.04  4650.28  5049.25  5055.15

 Zero-point correction=                           0.296046 (Hartree/Particle)
 Thermal correction to Energy=                    0.308891
 Thermal correction to Enthalpy=                  0.309835
 Thermal correction to Gibbs Free Energy=         0.256741
 Sum of electronic and zero-point Energies=           -502.339602
 Sum of electronic and thermal Energies=              -502.326757
 Sum of electronic and thermal Enthalpies=            -502.325813
 Sum of electronic and thermal Free Energies=         -502.378906

                     E (Thermal)             CV                S
                      KCal/Mol        Cal/Mol-Kelvin    Cal/Mol-Kelvin
 Total                  193.832             50.117            111.745
 Electronic               0.000              0.000              0.000
 Translational            0.889              2.981             41.267
 Rotational               0.889              2.981             30.923
 Vibrational            192.054             44.155             39.555
 Vibration     1          0.593              1.985              6.144
 Vibration     2          0.596              1.975              4.565
 Vibration     3          0.603              1.951              3.513
 Vibration     4          0.614              1.918              2.863
 Vibration     5          0.627              1.874              2.386
 Vibration     6          0.636              1.846              2.173
 Vibration     7          0.639              1.836              2.108
 Vibration     8          0.656              1.782              1.815
 Vibration     9          0.675              1.727              1.589
 Vibration    10          0.686              1.692              1.472
 Vibration    11          0.707              1.631              1.298
 Vibration    12          0.727              1.575              1.166
 Vibration    13          0.766              1.471              0.964
 Vibration    14          0.788              1.413              0.871
 Vibration    15          0.820              1.334              0.760
 Vibration    16          0.848              1.266              0.677
 Vibration    17          0.865              1.227              0.633
 Vibration    18          0.913              1.124              0.530
 Vibration    19          0.932              1.083              0.493

 Optimization completed.
    -- Stationary point found.
 Normal termination of Gaussian 16 at Wed Dec  9 18:28:31 2020.

 ----------------------------------------------------------------------
 # B3LYP/6-311++G(d,p) empiricaldispersion=gd3bj scf=xqc pop=npa geom=c
 heck
 ----------------------------------------------------------------------

 --------------------------------------
 CID_90708421_JID_2768_Energie_neutraal
 --------------------------------------
 Structure from the checkpoint file:  "JID_2768.chk"
 Charge =  0 Multiplicity = 1

 SCF Done:  E(RB3LYP) =  -502.780995765     A.U. after   14 cycles
 Normal termination of Gaussian 16 at Wed Dec  9 18:31:45 2020.

 ----------------------------------------------------------------------
 # B3LYP/6-311++G(d,p) empiricaldispersion=gd3bj scf=xqc pop=npa geom=c
 heck
 ----------------------------------------------------------------------

 ------------------------------------
 CID_90708421_JID_2768_Energie_kation
 ------------------------------------
 Structure from the checkpoint file:  "JID_2768.chk"
 Charge =  1 Multiplicity = 2

 SCF Done:  E(UB3LYP) =  -502.495514554     A.U. after   23 cycles
 Normal termination of Gaussian 16 at Wed Dec  9 18:38:33 2020.
 Gaussian 16:  ES64L-G16RevA.03 25-Dec-2016

 ----------------------------------------------------------------------
 # B3LYP/6-311++G(d,p) empiricaldispersion=gd3bj scf=xqc pop=npa geom=c
 heck
 ----------------------------------------------------------------------

 -----------------------------------
 CID_90708421_JID_2768_Energie_anion
 -----------------------------------
 Structure from the checkpoint file:  "JID_2768.chk"
 Charge = -1 Multiplicity = 2

                         Standard orientation:
 ---------------------------------------------------------------------
 Center     Atomic      Atomic             Coordinates (Angstroms)
 Number     Number       Type             X           Y           Z
 ---------------------------------------------------------------------
      1          6           0        2.275770   -1.806364   -0.866066
      2          6           0        1.576954   -0.812312    0.081074
      3          6           0        2.251381    0.558573   -0.048480
      4          6           0        1.783686    1.528861   -0.838446
      5          6           0        3.530345    0.721981    0.734083
      6          7           0        0.139932   -0.897384   -0.157947
      7          6           0       -0.764301   -0.431089    0.896522
      8          6           0       -2.095542   -1.202132    0.803793
      9          6           0       -2.874901   -0.804213   -0.458347
     10          6           0       -3.040105    0.716618   -0.540128
     11          7           0       -1.725338    1.358396   -0.446748
     12          6           0       -1.079604    1.077130    0.838329
     13          1           0        2.081447   -1.523732   -1.907053
     14          1           0        1.883783   -2.814067   -0.701915
     15          1           0        3.361209   -1.817750   -0.720360
     16          1           0        1.739433   -1.163996    1.110009
     17          1           0        2.316623    2.470052   -0.950041
     18          1           0        0.845440    1.436417   -1.378743
     19          1           0        3.337211    0.642795    1.812948
     20          1           0        4.257896   -0.063191    0.491114
     21          1           0        4.002131    1.690645    0.543237
     22          1           0       -0.107344   -0.438896   -1.031896
     23          1           0       -0.290034   -0.656603    1.859527
     24          1           0       -1.892397   -2.277782    0.807899
     25          1           0       -2.702165   -0.971009    1.691254
     26          1           0       -2.334779   -1.154884   -1.346073
     27          1           0       -3.860490   -1.284920   -0.469376
     28          1           0       -3.502445    1.001996   -1.491939
     29          1           0       -3.719470    1.047428    0.270780
     30          1           0       -1.817062    2.362650   -0.576774
     31          1           0       -1.722758    1.343628    1.700164
     32          1           0       -0.160485    1.661820    0.906094
 ---------------------------------------------------------------------

 SCF Done:  E(UB3LYP) =  -502.765210960     A.U. after   32 cycles

 The electronic state is 2-A.
 Alpha  occ. eigenvalues --  -14.19273 -14.18461 -10.10066 -10.08939 -10.08537
 Alpha  occ. eigenvalues --  -10.07697 -10.07641 -10.06443 -10.06115 -10.06014
 Alpha  occ. eigenvalues --  -10.05737 -10.05088  -0.81967  -0.78928  -0.70455
 Alpha  occ. eigenvalues --   -0.67083  -0.64626  -0.61127  -0.58412  -0.53022
 Alpha  occ. eigenvalues --   -0.52073  -0.51239  -0.44574  -0.43654  -0.40622
 Alpha  occ. eigenvalues --   -0.37723  -0.36644  -0.35300  -0.33913  -0.32768
 Alpha  occ. eigenvalues --   -0.32318  -0.31524  -0.30945  -0.30004  -0.29387
 Alpha  occ. eigenvalues --   -0.28667  -0.27514  -0.26876  -0.26289  -0.24749
 Alpha  occ. eigenvalues --   -0.23821  -0.22949  -0.21183  -0.20869  -0.14785
 Alpha  occ. eigenvalues --   -0.12993  -0.11529   0.04518
 Alpha virt. eigenvalues --    0.06415   0.07485   0.07666   0.08504   0.09005
 Alpha virt. eigenvalues --    0.09023   0.09798   0.10360   0.10960   0.11217
 Alpha virt. eigenvalues --    0.11551   0.11878   0.12455   0.13280   0.13722

  Beta  occ. eigenvalues --  -14.19248 -14.18457 -10.10055 -10.08931 -10.08511
  Beta  occ. eigenvalues --  -10.07678 -10.07639 -10.06408 -10.06107 -10.05999
  Beta  occ. eigenvalues --  -10.05727 -10.05072  -0.81942  -0.78903  -0.70431
  Beta  occ. eigenvalues --   -0.67053  -0.64593  -0.61094  -0.58359  -0.52968
  Beta  occ. eigenvalues --   -0.52032  -0.51199  -0.44530  -0.43611  -0.40550
  Beta  occ. eigenvalues --   -0.37699  -0.36605  -0.35273  -0.33879  -0.32739
  Beta  occ. eigenvalues --   -0.32281  -0.31484  -0.30918  -0.29972  -0.29353
  Beta  occ. eigenvalues --   -0.28640  -0.27479  -0.26844  -0.26258  -0.24717
  Beta  occ. eigenvalues --   -0.23799  -0.22924  -0.21152  -0.20834  -0.14760
  Beta  occ. eigenvalues --   -0.12941  -0.11511
  Beta virt. eigenvalues --    0.06682   0.07369   0.08090   0.08153   0.09023
  Beta virt. eigenvalues --    0.09395   0.09533   0.10115   0.10721   0.11435
  Beta virt. eigenvalues --    0.11596   0.11786   0.12270   0.12775   0.13468

 Mulliken charges and spin densities:
               1          2
     1  C    0.223087  -0.860450
     2  C   -0.874964   0.227349
     3  C   -0.846057   1.776353
     4  C   -0.049250  -0.556133
     5  C    2.075385  -2.724254
     6  N    0.318086  -0.043138
     7  C   -1.441140   1.565861
     8  C    0.987148  -1.384139
     9  C   -0.865559   0.614685
    10  C    1.090626  -1.416125
    11  N   -0.350542   0.187843
    12  C    0.785779  -1.537735
    13  H   -0.012618   0.142705
    14  H    0.091752   0.062658
    15  H   -0.092336   0.212661
    16  H   -0.151378   0.318967
    17  H   -0.485738   0.613046
    18  H    0.260292  -0.091863
    19  H   -0.329021   0.498351
    20  H   -0.157197   0.288729
    21  H   -0.107975   0.250292
    22  H    0.334754  -0.134583
    23  H   -0.186080   0.370113
    24  H   -0.061792   0.211444
    25  H    0.007071   0.115279
    26  H    0.173140  -0.048606
    27  H   -0.183044   0.345804
    28  H   -0.516130   0.677211
    29  H   -0.165977   0.285950
    30  H   -0.109217   0.371804
    31  H   -0.499721   0.629779
    32  H    0.138616   0.030141
 Sum of Mulliken charges =  -1.00000   1.00000

 Dipole moment (field-independent basis, Debye):
    X=              0.5066    Y=             -2.9708    Z=             -1.8708  Tot=              3.5471
 Quadrupole moment (field-independent basis, Debye-Ang):
   XX=           -151.3659   YY=           -120.3341   ZZ=           -112.6682
   XY=              3.3169   XZ=             -4.8930   YZ=              1.0358

 Summary of Natural Population Analysis:

                                       Natural Population
                Natural  -----------------------------------------------
    Atom  No    Charge         Core      Valence    Rydberg      Total
 -----------------------------------------------------------------------
      C    1   -0.27888      0.99964     2.27266    0.00658     3.27888
      C    2   -0.02065      0.99955     2.00815    0.01295     3.02065
      C    3   -0.00445      0.99951     1.99336    0.01158     3.00445
      C    4   -0.20760      0.99947     2.19898    0.00915     3.20760
      C    5   -0.29959      0.99961     2.29328    0.00671     3.29959
      N    6   -0.35135      0.99973     2.83944    0.01218     3.85135
      C    7   -0.01151      0.99958     1.99818    0.01375     3.01151
      C    8   -0.18928      0.99961     2.18043    0.00924     3.18928
      C    9   -0.19582      0.99962     2.18770    0.00850     3.19582
      C   10   -0.08542      0.99962     2.07412    0.01168     3.08542
      N   11   -0.34902      0.99974     2.83610    0.01319     3.84902
      C   12   -0.09756      0.99959     2.08591    0.01206     3.09756
      H   13    0.09650      0.00000     0.40260    0.00089     0.40350
      H   14    0.10147      0.00000     0.39751    0.00102     0.39853
      H   15    0.09651      0.00000     0.40269    0.00080     0.40349
      H   16    0.09385      0.00000     0.40403    0.00212     0.40615
      H   17    0.09330      0.00000     0.40566    0.00104     0.40670
      H   18    0.09943      0.00000     0.39849    0.00208     0.40057
      H   19    0.10464      0.00000     0.39361    0.00175     0.39536
      H   20    0.10116      0.00000     0.39752    0.00131     0.39884
      H   21    0.10200      0.00000     0.39687    0.00113     0.39800
      H   22    0.18072      0.00000     0.31562    0.00366     0.31928
      H   23    0.09583      0.00000     0.40232    0.00185     0.40417
      H   24    0.10116      0.00000     0.39759    0.00125     0.39884
      H   25    0.09441      0.00000     0.40429    0.00130     0.40559
      H   26    0.09576      0.00000     0.40285    0.00140     0.40424
      H   27    0.09808      0.00000     0.40096    0.00096     0.40192
      H   28    0.09477      0.00000     0.40386    0.00137     0.40523
      H   29    0.07714      0.00000     0.42073    0.00212     0.42286
      H   30    0.17965      0.00000     0.31665    0.00370     0.32035
      H   31    0.08059      0.00000     0.41753    0.00189     0.41941
      H   32    0.10414      0.00000     0.39388    0.00198     0.39586
 =======================================================================
   * Total *   -0.00000     11.99527    34.84355    0.16118    47.00000

 Normal termination of Gaussian 16 at Wed Dec  9 18:47:41 2020.
