 Gaussian 16, Revision A.03,

 -----------------------------------------------------------
 # opt freq B3LYP/6-31G(d) empiricaldispersion=gd3bj scf=xqc
 -----------------------------------------------------------

 ------------------------------
 CID_19458309_JID_9476_neutraal
 ------------------------------
 Symbolic Z-matrix:
 Charge =  0 Multiplicity = 1

 SCF Done:  E(RB3LYP) =  -822.585925618     A.U. after   15 cycles
 SCF Done:  E(RB3LYP) =  -822.591655739     A.U. after   12 cycles
 SCF Done:  E(RB3LYP) =  -822.592164086     A.U. after   12 cycles
 SCF Done:  E(RB3LYP) =  -822.592259514     A.U. after   12 cycles
 SCF Done:  E(RB3LYP) =  -822.592529504     A.U. after   11 cycles
 SCF Done:  E(RB3LYP) =  -822.592644240     A.U. after   11 cycles
 SCF Done:  E(RB3LYP) =  -822.592723123     A.U. after   11 cycles
 SCF Done:  E(RB3LYP) =  -822.592812772     A.U. after   11 cycles
 SCF Done:  E(RB3LYP) =  -822.592903453     A.U. after   12 cycles
 SCF Done:  E(RB3LYP) =  -822.592942524     A.U. after   12 cycles
 SCF Done:  E(RB3LYP) =  -822.593605249     A.U. after    8 cycles
 SCF Done:  E(RB3LYP) =  -822.593605476     A.U. after    8 cycles
 SCF Done:  E(RB3LYP) =  -822.593605636     A.U. after    8 cycles
 SCF Done:  E(RB3LYP) =  -822.593605675     A.U. after    7 cycles
 Optimization completed.
    -- Stationary point found.
 Normal termination of Gaussian 16 at Sat Dec 12 10:14:25 2020.

 --------------------------------------------------------------------
 #N Geom=AllCheck Guess=TCheck SCRF=Check GenChk RB3LYP/6-31G(d) Freq
 --------------------------------------------------------------------

 Structure from the checkpoint file:  "JID_9476.chk"
 ------------------------------
 CID_19458309_JID_9476_neutraal
 ------------------------------
 Charge =  0 Multiplicity = 1

 SCF Done:  E(RB3LYP) =  -822.593605675     A.U. after    1 cycles

  Exact polarizability: 225.793   2.958 179.238   2.950  -5.218 116.589
 Approx polarizability: 290.321   4.684 301.387   2.653  -5.741 195.897

                      1                      2                      3
                      A                      A                      A
 Frequencies --     17.8027                32.5888                35.8743
 Red. masses --      4.3719                 1.0486                 3.9026
 Frc consts  --      0.0008                 0.0007                 0.0030
 IR Inten    --      0.5607                 0.2436                 0.3369

                      4                      5                      6
                      A                      A                      A
 Frequencies --     40.8287                61.7298                76.1566
 Red. masses --      3.8856                 3.7374                 1.1986
 Frc consts  --      0.0038                 0.0084                 0.0041
 IR Inten    --      0.1002                 2.3288                 0.0747

                      7                      8                      9
                      A                      A                      A
 Frequencies --     85.3034                99.6999               140.8365
 Red. masses --      3.7961                 3.9813                 1.1347
 Frc consts  --      0.0163                 0.0233                 0.0133
 IR Inten    --      3.2863                 0.2150                 0.7988

                     10                     11                     12
                      A                      A                      A
 Frequencies --    152.9158               183.2060               187.6485
 Red. masses --      1.4321                 3.7480                 2.6406
 Frc consts  --      0.0197                 0.0741                 0.0548
 IR Inten    --      0.9830                 4.6731                 0.3334

                     13                     14                     15
                      A                      A                      A
 Frequencies --    202.1561               209.3472               215.2727
 Red. masses --      3.2457                 2.4294                 3.5134
 Frc consts  --      0.0781                 0.0627                 0.0959
 IR Inten    --      1.0537                 1.4253                 2.8789

                     16                     17                     18
                      A                      A                      A
 Frequencies --    259.0483               277.6465               305.7694
 Red. masses --      3.3859                 3.3097                 3.6132
 Frc consts  --      0.1339                 0.1503                 0.1990
 IR Inten    --      6.4191                 5.3657                 1.6654

                     19                     20                     21
                      A                      A                      A
 Frequencies --    347.8084               379.3417               412.6960
 Red. masses --      3.7391                 3.2683                 3.8616
 Frc consts  --      0.2665                 0.2771                 0.3875
 IR Inten    --      2.0470                 6.4263                 3.5558

                     22                     23                     24
                      A                      A                      A
 Frequencies --    433.5748               444.1814               460.7422
 Red. masses --      2.0179                 2.8706                 3.3065
 Frc consts  --      0.2235                 0.3337                 0.4136
 IR Inten    --      6.5683                 3.1326                 2.4500

                     25                     26                     27
                      A                      A                      A
 Frequencies --    521.2571               550.4441               589.3699
 Red. masses --      3.8788                 5.0596                 4.6330
 Frc consts  --      0.6209                 0.9032                 0.9482
 IR Inten    --      9.2131                 0.0376                13.9227

                     28                     29                     30
                      A                      A                      A
 Frequencies --    599.6782               643.8375               663.3708
 Red. masses --      3.7967                 5.0446                 5.3616
 Frc consts  --      0.8044                 1.2320                 1.3901
 IR Inten    --      2.6821                 9.1777                 3.9834

                     31                     32                     33
                      A                      A                      A
 Frequencies --    696.4325               706.2862               732.1414
 Red. masses --      4.7850                 4.2866                 5.3664
 Frc consts  --      1.3674                 1.2599                 1.6948
 IR Inten    --      3.0539                 1.2859                 7.9523

                     34                     35                     36
                      A                      A                      A
 Frequencies --    752.2567               771.5762               795.4193
 Red. masses --      5.5571                 3.8752                 3.3380
 Frc consts  --      1.8528                 1.3592                 1.2443
 IR Inten    --      0.7503                12.4439                22.4147

                     37                     38                     39
                      A                      A                      A
 Frequencies --    826.9668               843.5035               887.1667
 Red. masses --      1.3931                 1.4565                 1.3322
 Frc consts  --      0.5613                 0.6106                 0.6178
 IR Inten    --     34.0141                17.1963                 0.4689

                     40                     41                     42
                      A                      A                      A
 Frequencies --    902.0552               910.9554               947.3703
 Red. masses --      1.2850                 2.9447                 3.4111
 Frc consts  --      0.6160                 1.4398                 1.8038
 IR Inten    --      1.7604                 1.2213                 3.1633

                     43                     44                     45
                      A                      A                      A
 Frequencies --    958.5475               962.1911               986.2044
 Red. masses --      2.5592                 1.6117                 2.7720
 Frc consts  --      1.3854                 0.8791                 1.5885
 IR Inten    --      5.3216                 9.2272                 0.5751

                     46                     47                     48
                      A                      A                      A
 Frequencies --   1019.3590              1033.6450              1052.2277
 Red. masses --      1.4766                 1.9183                 1.4946
 Frc consts  --      0.9040                 1.2075                 0.9749
 IR Inten    --      0.6729                35.6184                 4.0318

                     49                     50                     51
                      A                      A                      A
 Frequencies --   1070.3125              1073.9749              1075.8488
 Red. masses --      1.5300                 1.5815                 1.5532
 Frc consts  --      1.0327                 1.0748                 1.0592
 IR Inten    --      6.7928                 7.0053                40.1352

                     52                     53                     54
                      A                      A                      A
 Frequencies --   1080.7296              1156.1545              1157.3888
 Red. masses --      1.9067                 1.7644                 1.3280
 Frc consts  --      1.3121                 1.3896                 1.0481
 IR Inten    --    112.9218                 7.7533                 1.2441

                     55                     56                     57
                      A                      A                      A
 Frequencies --   1164.7758              1176.9032              1193.7827
 Red. masses --      1.2966                 1.7010                 1.7210
 Frc consts  --      1.0364                 1.3881                 1.4450
 IR Inten    --     11.5173                15.2132                10.6580

                     58                     59                     60
                      A                      A                      A
 Frequencies --   1225.2024              1236.7846              1243.9000
 Red. masses --      3.0484                 1.5827                 2.4236
 Frc consts  --      2.6961                 1.4264                 2.2094
 IR Inten    --     10.8910                13.9067                 6.7674

                     61                     62                     63
                      A                      A                      A
 Frequencies --   1274.0857              1320.6591              1324.5283
 Red. masses --      3.0526                 2.7583                 1.4938
 Frc consts  --      2.9196                 2.8344                 1.5440
 IR Inten    --      4.0458                81.7448                 3.5981

                     64                     65                     66
                      A                      A                      A
 Frequencies --   1335.5557              1347.9641              1374.2216
 Red. masses --      3.6130                 6.8838                 3.7612
 Frc consts  --      3.7970                 7.3695                 4.1849
 IR Inten    --    100.0248                 5.2327                11.5510

                     67                     68                     69
                      A                      A                      A
 Frequencies --   1397.4952              1429.6665              1441.6681
 Red. masses --      1.3140                 3.2697                 1.2630
 Frc consts  --      1.5120                 3.9376                 1.5466
 IR Inten    --      8.5051                85.9808                 0.8649

                     70                     71                     72
                      A                      A                      A
 Frequencies --   1444.9455              1446.4049              1452.0990
 Red. masses --      1.2357                 2.2317                 2.7208
 Frc consts  --      1.5200                 2.7508                 3.3802
 IR Inten    --      2.5724                89.0814                 2.5868

                     73                     74                     75
                      A                      A                      A
 Frequencies --   1472.2048              1487.3297              1497.8682
 Red. masses --      1.4319                 1.2176                 1.1673
 Frc consts  --      1.8286                 1.5870                 1.5430
 IR Inten    --      5.2934                12.7056                35.0344

                     76                     77                     78
                      A                      A                      A
 Frequencies --   1510.3906              1517.4631              1518.2231
 Red. masses --      1.0746                 1.0548                 1.0539
 Frc consts  --      1.4444                 1.4310                 1.4313
 IR Inten    --     14.9064                 3.4250                 7.4776

                     79                     80                     81
                      A                      A                      A
 Frequencies --   1519.6270              1520.7371              1522.3355
 Red. masses --      1.0974                 1.0698                 2.0378
 Frc consts  --      1.4931                 1.4576                 2.7825
 IR Inten    --      5.6651                 4.8204                 6.4257

                     82                     83                     84
                      A                      A                      A
 Frequencies --   1524.8559              1538.2105              1549.6160
 Red. masses --      1.1983                 1.3462                 1.4968
 Frc consts  --      1.6416                 1.8767                 2.1177
 IR Inten    --     28.9427                17.3731                22.1813

                     85                     86                     87
                      A                      A                      A
 Frequencies --   1556.2875              1588.7489              1627.0961
 Red. masses --      1.6020                 4.9687                 5.9872
 Frc consts  --      2.2861                 7.3892                 9.3391
 IR Inten    --     24.2520                 2.6584                 3.2559

                     88                     89                     90
                      A                      A                      A
 Frequencies --   1672.2771              1732.1803              3032.3285
 Red. masses --      5.7861                10.9616                 1.0413
 Frc consts  --      9.5334                19.3780                 5.6415
 IR Inten    --     27.2709               220.5273                45.2591

                     91                     92                     93
                      A                      A                      A
 Frequencies --   3043.6916              3056.6088              3058.8668
 Red. masses --      1.0398                 1.0376                 1.0378
 Frc consts  --      5.6756                 5.7114                 5.7211
 IR Inten    --     32.8368                16.3250                32.0063

                     94                     95                     96
                      A                      A                      A
 Frequencies --   3078.6123              3081.6996              3100.7620
 Red. masses --      1.0668                 1.1036                 1.0964
 Frc consts  --      5.9573                 6.1749                 6.2109
 IR Inten    --     48.2473                24.4362                19.7541

                     97                     98                     99
                      A                      A                      A
 Frequencies --   3117.4897              3118.2771              3127.2431
 Red. masses --      1.0988                 1.1049                 1.1027
 Frc consts  --      6.2916                 6.3302                 6.3540
 IR Inten    --     14.6288                22.5997                15.9739

                    100                    101                    102
                      A                      A                      A
 Frequencies --   3138.0491              3158.5907              3172.0891
 Red. masses --      1.1032                 1.0963                 1.0898
 Frc consts  --      6.4006                 6.4441                 6.4606
 IR Inten    --     13.2291                 0.9915                23.0950

                    103                    104                    105
                      A                      A                      A
 Frequencies --   3180.3576              3187.5815              3195.1426
 Red. masses --      1.0870                 1.0998                 1.0945
 Frc consts  --      6.4777                 6.5837                 6.5832
 IR Inten    --     12.5671                 2.4299                 5.8297

                    106                    107                    108
                      A                      A                      A
 Frequencies --   3198.1324              3256.7409              3294.2922
 Red. masses --      1.0944                 1.0943                 1.0997
 Frc consts  --      6.5950                 6.8383                 7.0314
 IR Inten    --     16.6256                10.8640                 0.3303

 - Thermochemistry -
 -------------------
 Temperature   298.150 Kelvin.  Pressure   1.00000 Atm.
 Atom     1 has atomic number  6 and mass  12.00000

 Molecular mass:   257.15281 amu.
 Principal axes and moments of inertia in atomic units:
                           1         2         3
     Eigenvalues --  1980.385679679.92721**********
           X            0.99994  -0.00928   0.00525
           Y            0.00925   0.99994   0.00521
           Z           -0.00530  -0.00516   0.99997
 This molecule is an asymmetric top.
 Rotational symmetry number  1.
 Warning -- assumption of classical behavior for rotation
           may cause significant error
 Rotational temperatures (Kelvin)      0.04374     0.00895     0.00832
 Rotational constants (GHZ):           0.91131     0.18644     0.17337
 Zero-point vibrational energy     842239.8 (Joules/Mol)
                                  201.30014 (Kcal/Mol)
 Warning -- explicit consideration of  28 degrees of freedom as
           vibrations may cause significant error
 Vibrational temperatures:     25.61    46.89    51.62    58.74    88.82
          (Kelvin)            109.57   122.73   143.45   202.63   220.01
                              263.59   269.98   290.86   301.20   309.73
                              372.71   399.47   439.93   500.42   545.79
                              593.78   623.82   639.08   662.91   749.97
                              791.97   847.97   862.80   926.34   954.44
                             1002.01  1016.19  1053.39  1082.33  1110.13
                             1144.43  1189.82  1213.61  1276.44  1297.86
                             1310.66  1363.05  1379.14  1384.38  1418.93
                             1466.63  1487.18  1513.92  1539.94  1545.21
                             1547.91  1554.93  1663.45  1665.22  1675.85
                             1693.30  1717.59  1762.79  1779.46  1789.69
                             1833.13  1900.13  1905.70  1921.57  1939.42
                             1977.20  2010.68  2056.97  2074.24  2078.95
                             2081.05  2089.25  2118.17  2139.94  2155.10
                             2173.12  2183.29  2184.38  2186.40  2188.00
                             2190.30  2193.93  2213.14  2229.55  2239.15
                             2285.86  2341.03  2406.03  2492.22  4362.84
                             4379.19  4397.78  4401.03  4429.44  4433.88
                             4461.30  4485.37  4486.51  4499.41  4514.95
                             4544.51  4563.93  4575.83  4586.22  4597.10
                             4601.40  4685.72  4739.75

 Zero-point correction=                           0.320792 (Hartree/Particle)
 Thermal correction to Energy=                    0.340003
 Thermal correction to Enthalpy=                  0.340947
 Thermal correction to Gibbs Free Energy=         0.270542
 Sum of electronic and zero-point Energies=           -822.272813
 Sum of electronic and thermal Energies=              -822.253603
 Sum of electronic and thermal Enthalpies=            -822.252659
 Sum of electronic and thermal Free Energies=         -822.323064

                     E (Thermal)             CV                S
                      KCal/Mol        Cal/Mol-Kelvin    Cal/Mol-Kelvin
 Total                  213.355             70.043            148.179
 Electronic               0.000              0.000              0.000
 Translational            0.889              2.981             42.533
 Rotational               0.889              2.981             33.656
 Vibrational            211.577             64.081             71.990
 Vibration     1          0.593              1.986              6.865
 Vibration     2          0.594              1.983              5.665
 Vibration     3          0.594              1.982              5.475
 Vibration     4          0.594              1.981              5.218
 Vibration     5          0.597              1.973              4.401
 Vibration     6          0.599              1.965              3.988
 Vibration     7          0.601              1.959              3.765
 Vibration     8          0.604              1.949              3.460
 Vibration     9          0.615              1.912              2.792
 Vibration    10          0.619              1.899              2.636
 Vibration    11          0.631              1.863              2.295
 Vibration    12          0.632              1.857              2.251
 Vibration    13          0.639              1.837              2.113
 Vibration    14          0.642              1.826              2.049
 Vibration    15          0.645              1.818              1.999
 Vibration    16          0.668              1.747              1.668
 Vibration    17          0.679              1.715              1.548
 Vibration    18          0.696              1.663              1.385
 Vibration    19          0.725              1.580              1.176
 Vibration    20          0.749              1.514              1.042
 Vibration    21          0.776              1.443              0.917
 Vibration    22          0.794              1.397              0.847
 Vibration    23          0.804              1.374              0.814
 Vibration    24          0.819              1.337              0.764
 Vibration    25          0.876              1.203              0.607
 Vibration    26          0.906              1.139              0.543
 Vibration    27          0.947              1.054              0.468
 Vibration    28          0.958              1.032              0.450

                           ! Non-Optimized Parameters !
 Normal termination of Gaussian 16 at Sat Dec 12 10:34:40 2020.

 ----------------------------------------------------------------------
 # B3LYP/6-311++G(d,p) empiricaldispersion=gd3bj scf=xqc pop=npa geom=c
 heck
 ----------------------------------------------------------------------

 --------------------------------------
 CID_19458309_JID_9476_Energie_neutraal
 --------------------------------------
 Structure from the checkpoint file:  "JID_9476.chk"
 Charge =  0 Multiplicity = 1

 SCF Done:  E(RB3LYP) =  -822.811103804     A.U. after   16 cycles
 Normal termination of Gaussian 16 at Sat Dec 12 10:44:52 2020.

 ----------------------------------------------------------------------
 # B3LYP/6-311++G(d,p) empiricaldispersion=gd3bj scf=xqc pop=npa geom=c
 heck
 ----------------------------------------------------------------------

 ------------------------------------
 CID_19458309_JID_9476_Energie_kation
 ------------------------------------
 Structure from the checkpoint file:  "JID_9476.chk"
 Charge =  1 Multiplicity = 2

 SCF Done:  E(UB3LYP) =  -822.514685409     A.U. after   33 cycles
 SCF Done:  E(UB3LYP) =  -822.514685409     a.u. after    2 cycles
 Normal termination of Gaussian 16 at Sat Dec 12 11:53:30 2020.
 Gaussian 16:  ES64L-G16RevA.03 25-Dec-2016

 ----------------------------------------------------------------------
 # B3LYP/6-311++G(d,p) empiricaldispersion=gd3bj scf=xqc pop=npa geom=c
 heck
 ----------------------------------------------------------------------

 -----------------------------------
 CID_19458309_JID_9476_Energie_anion
 -----------------------------------
 Structure from the checkpoint file:  "JID_9476.chk"
 Charge = -1 Multiplicity = 2

                         Standard orientation:
 ---------------------------------------------------------------------
 Center     Atomic      Atomic             Coordinates (Angstroms)
 Number     Number       Type             X           Y           Z
 ---------------------------------------------------------------------
      1          6           0       -5.777311   -0.156409   -0.922988
      2          6           0       -4.343140   -0.156467   -0.454170
      3          6           0       -3.566138    1.005783   -0.535890
      4          6           0       -2.247861    1.061417   -0.078736
      5          6           0       -1.681789   -0.110688    0.458805
      6          6           0       -2.442901   -1.280432    0.538320
      7          6           0       -3.762228   -1.304226    0.092546
      8          6           0       -0.290155   -0.075440    1.020663
      9          8           0        0.010409    0.718790    1.910837
     10          7           0        0.616152   -0.992376    0.534851
     11          6           0        0.506468   -1.635665   -0.766717
     12          6           0        1.971481   -0.932329    1.094452
     13          6           0        2.852131    0.042990    0.369439
     14          6           0        2.814587    1.429083    0.348465
     15          6           0        3.837770    1.803582   -0.545065
     16          7           0        4.472483    0.743119   -1.048518
     17          7           0        3.852463   -0.323682   -0.487840
     18          6           0        4.337765   -1.655687   -0.791773
     19          6           0       -1.459711    2.345607   -0.169077
     20          1           0       -6.446743    0.230908   -0.143755
     21          1           0       -5.909545    0.476645   -1.806879
     22          1           0       -6.116744   -1.166624   -1.173102
     23          1           0       -4.004837    1.902232   -0.969381
     24          1           0       -1.995375   -2.177129    0.958543
     25          1           0       -4.342444   -2.220375    0.167408
     26          1           0        1.204421   -1.177451   -1.480353
     27          1           0        0.743085   -2.703481   -0.682452
     28          1           0       -0.503951   -1.531919   -1.156343
     29          1           0        1.872387   -0.631754    2.137495
     30          1           0        2.393465   -1.942326    1.061919
     31          1           0        2.131590    2.049593    0.908533
     32          1           0        4.144896    2.797131   -0.844202
     33          1           0        5.102555   -1.543684   -1.559574
     34          1           0        4.779964   -2.129373    0.091512
     35          1           0        3.532113   -2.290736   -1.173370
     36          1           0       -2.001353    3.093021   -0.756188
     37          1           0       -1.268262    2.751151    0.828870
     38          1           0       -0.479979    2.187724   -0.634480
 ---------------------------------------------------------------------

 SCF Done:  E(UB3LYP) =  -822.803163799     A.U. after   33 cycles
 SCF Done:  E(UB3LYP) =  -822.803163799     a.u. after    1 cycles

 The electronic state is 2-A.
 Alpha  occ. eigenvalues --  -18.98613 -14.29795 -14.24628 -14.23529 -10.16860
 Alpha  occ. eigenvalues --  -10.11997 -10.11697 -10.11593 -10.10341 -10.09652
 Alpha  occ. eigenvalues --  -10.08861 -10.08126 -10.07988 -10.07628 -10.07517
 Alpha  occ. eigenvalues --  -10.07325 -10.07171 -10.07108 -10.06878  -0.95707
 Alpha  occ. eigenvalues --   -0.93944  -0.84053  -0.76645  -0.75092  -0.70814
 Alpha  occ. eigenvalues --   -0.69132  -0.66903  -0.62937  -0.61404  -0.60786
 Alpha  occ. eigenvalues --   -0.59670  -0.58256  -0.51423  -0.50797  -0.49225
 Alpha  occ. eigenvalues --   -0.46881  -0.45275  -0.42767  -0.42007  -0.39463
 Alpha  occ. eigenvalues --   -0.38421  -0.37023  -0.36633  -0.36166  -0.34968
 Alpha  occ. eigenvalues --   -0.34565  -0.33639  -0.33446  -0.32235  -0.31887
 Alpha  occ. eigenvalues --   -0.31150  -0.30900  -0.30718  -0.30649  -0.30505
 Alpha  occ. eigenvalues --   -0.29391  -0.28761  -0.28541  -0.27938  -0.25516
 Alpha  occ. eigenvalues --   -0.24852  -0.24264  -0.20370  -0.17260  -0.16128
 Alpha  occ. eigenvalues --   -0.15644  -0.15380  -0.14728  -0.14138   0.04059
 Alpha virt. eigenvalues --    0.05664   0.06034   0.07228   0.07737   0.07989
 Alpha virt. eigenvalues --    0.08206   0.08401   0.08886   0.09318   0.09960
 Alpha virt. eigenvalues --    0.10111   0.10348   0.11138   0.11435   0.11987

  Beta  occ. eigenvalues --  -18.98551 -14.29791 -14.24616 -14.23525 -10.16812
  Beta  occ. eigenvalues --  -10.11981 -10.11696 -10.11541 -10.10314 -10.09652
  Beta  occ. eigenvalues --  -10.08849 -10.07997 -10.07972 -10.07578 -10.07422
  Beta  occ. eigenvalues --  -10.07342 -10.07164 -10.07109 -10.06876  -0.95698
  Beta  occ. eigenvalues --   -0.93832  -0.83996  -0.76512  -0.75073  -0.70784
  Beta  occ. eigenvalues --   -0.68986  -0.66798  -0.62896  -0.61306  -0.60731
  Beta  occ. eigenvalues --   -0.59635  -0.58192  -0.51344  -0.50722  -0.49143
  Beta  occ. eigenvalues --   -0.46816  -0.45208  -0.42700  -0.41956  -0.39423
  Beta  occ. eigenvalues --   -0.38351  -0.36957  -0.36549  -0.36131  -0.34905
  Beta  occ. eigenvalues --   -0.34486  -0.33599  -0.33295  -0.32167  -0.31852
  Beta  occ. eigenvalues --   -0.31107  -0.30861  -0.30672  -0.30607  -0.30448
  Beta  occ. eigenvalues --   -0.29355  -0.28727  -0.28484  -0.27723  -0.25442
  Beta  occ. eigenvalues --   -0.24638  -0.24187  -0.20357  -0.17170  -0.16110
  Beta  occ. eigenvalues --   -0.15433  -0.15210  -0.14626  -0.13670
  Beta virt. eigenvalues --    0.06044   0.06915   0.06978   0.07342   0.07984
  Beta virt. eigenvalues --    0.08179   0.08343   0.08854   0.09037   0.09517
  Beta virt. eigenvalues --    0.10099   0.10212   0.10740   0.11331   0.11579

 Mulliken charges and spin densities:
               1          2
     1  C    0.528545  -1.053190
     2  C    0.208184   0.333441
     3  C   -0.654276   0.324712
     4  C    0.138984   0.204302
     5  C    0.573298  -0.225585
     6  C   -0.085529  -0.095490
     7  C   -0.796565   0.097408
     8  C   -0.049079  -0.269444
     9  O   -0.265562   0.019912
    10  N    0.220718   0.066882
    11  C    0.552141  -1.000518
    12  C   -0.664893  -0.157026
    13  C   -0.328409   0.095832
    14  C    0.073072   0.242416
    15  C   -0.264795  -0.076355
    16  N   -0.227304  -0.012638
    17  N    0.213847   0.135906
    18  C    1.214249  -1.525078
    19  C   -0.760238   0.068696
    20  H    0.188239  -0.035068
    21  H   -0.092003   0.235195
    22  H   -0.120681   0.266690
    23  H    0.054982   0.063822
    24  H    0.006456   0.173723
    25  H   -0.142370   0.287062
    26  H    0.103402   0.069215
    27  H   -0.528353   0.725877
    28  H    0.242363  -0.084362
    29  H    0.097930   0.128643
    30  H   -0.279574   0.482794
    31  H    0.174058   0.023182
    32  H    0.130936   0.017461
    33  H   -0.021390   0.183931
    34  H   -0.497091   0.676770
    35  H   -0.376795   0.552688
    36  H    0.059147   0.065709
    37  H    0.205338   0.006688
    38  H    0.169017  -0.014203
 Sum of Mulliken charges =  -1.00000   1.00000

 Dipole moment (field-independent basis, Debye):
    X=             -3.0282    Y=              5.7558    Z=              0.6155  Tot=              6.5328
 Quadrupole moment (field-independent basis, Debye-Ang):
   XX=           -205.4019   YY=           -159.2246   ZZ=           -146.8334
   XY=             10.8044   XZ=             -1.6509   YZ=             -5.4896

 Summary of Natural Population Analysis:

                                       Natural Population
                Natural  -----------------------------------------------
    Atom  No    Charge         Core      Valence    Rydberg      Total
 -----------------------------------------------------------------------
      C    1   -0.29415      0.99964     2.28912    0.00538     3.29415
      C    2    0.00930      0.99952     1.98290    0.00828     2.99070
      C    3   -0.10531      0.99948     2.09687    0.00896     3.10531
      C    4    0.00567      0.99948     1.98624    0.00861     2.99433
      C    5   -0.05463      0.99942     2.04467    0.01055     3.05463
      C    6   -0.07867      0.99953     2.07014    0.00900     3.07867
      C    7   -0.11249      0.99951     2.10364    0.00933     3.11249
      C    8    0.35221      0.99958     1.62440    0.02381     2.64779
      O    9   -0.32124      0.99988     3.31661    0.00475     4.32124
      N   10   -0.25057      0.99965     2.73940    0.01151     3.75057
      C   11   -0.17733      0.99962     2.17003    0.00768     3.17733
      C   12   -0.10694      0.99957     2.09496    0.01242     3.10694
      C   13    0.07749      0.99952     1.91096    0.01203     2.92251
      C   14   -0.15819      0.99950     2.15117    0.00752     3.15819
      C   15   -0.01867      0.99964     2.00499    0.01404     3.01867
      N   16   -0.15798      0.99974     2.64674    0.01150     3.65798
      N   17   -0.10899      0.99962     2.59605    0.01333     3.60899
      C   18   -0.17705      0.99963     2.16916    0.00826     3.17705
      C   19   -0.29562      0.99964     2.29105    0.00493     3.29562
      H   20    0.10155      0.00000     0.39768    0.00077     0.39845
      H   21    0.10254      0.00000     0.39650    0.00096     0.39746
      H   22    0.10237      0.00000     0.39675    0.00089     0.39763
      H   23    0.09431      0.00000     0.40475    0.00094     0.40569
      H   24    0.10215      0.00000     0.39637    0.00148     0.39785
      H   25    0.09834      0.00000     0.40082    0.00085     0.40166
      H   26    0.09116      0.00000     0.40743    0.00141     0.40884
      H   27    0.09841      0.00000     0.39954    0.00205     0.40159
      H   28    0.11105      0.00000     0.38784    0.00112     0.38895
      H   29    0.12192      0.00000     0.37691    0.00117     0.37808
      H   30    0.10672      0.00000     0.39144    0.00184     0.39328
      H   31    0.11813      0.00000     0.38102    0.00084     0.38187
      H   32    0.09494      0.00000     0.40433    0.00073     0.40506
      H   33    0.11055      0.00000     0.38778    0.00167     0.38945
      H   34    0.10101      0.00000     0.39713    0.00187     0.39899
      H   35    0.10281      0.00000     0.39519    0.00200     0.39719
      H   36    0.09620      0.00000     0.40297    0.00083     0.40380
      H   37    0.11372      0.00000     0.38530    0.00098     0.38628
      H   38    0.10531      0.00000     0.39364    0.00105     0.39469
 =======================================================================
   * Total *    0.00000     18.99216    49.79248    0.21536    69.00000

 Normal termination of Gaussian 16 at Sat Dec 12 12:21:11 2020.
