 Gaussian 16, Revision A.03,

 -----------------------------------------------------------
 # opt freq B3LYP/6-31G(d) empiricaldispersion=gd3bj scf=xqc
 -----------------------------------------------------------

 --------------------------------
 CID_120535713_JID_10535_neutraal
 --------------------------------
 Symbolic Z-matrix:
 Charge =  0 Multiplicity = 1

 SCF Done:  E(RB3LYP) =  -954.782900083     A.U. after   15 cycles
 SCF Done:  E(RB3LYP) =  -954.790721975     A.U. after   13 cycles
 SCF Done:  E(RB3LYP) =  -954.792142443     A.U. after   13 cycles
 SCF Done:  E(RB3LYP) =  -954.792634850     A.U. after   13 cycles
 SCF Done:  E(RB3LYP) =  -954.793421725     A.U. after   12 cycles
 SCF Done:  E(RB3LYP) =  -954.793009838     A.U. after   13 cycles
 SCF Done:  E(RB3LYP) =  -954.794463506     A.U. after   12 cycles
 SCF Done:  E(RB3LYP) =  -954.794741566     A.U. after   12 cycles
 SCF Done:  E(RB3LYP) =  -954.794840404     A.U. after   11 cycles
 SCF Done:  E(RB3LYP) =  -954.794896423     A.U. after   11 cycles
 SCF Done:  E(RB3LYP) =  -954.795607543     A.U. after   10 cycles
 SCF Done:  E(RB3LYP) =  -954.795609617     A.U. after    9 cycles
 SCF Done:  E(RB3LYP) =  -954.795609725     A.U. after    8 cycles
 SCF Done:  E(RB3LYP) =  -954.795609804     A.U. after    7 cycles
 SCF Done:  E(RB3LYP) =  -954.795609845     A.U. after    7 cycles
 Optimization completed.
    -- Stationary point found.
 Normal termination of Gaussian 16 at Sat Dec 12 16:44:43 2020.

 --------------------------------------------------------------------
 #N Geom=AllCheck Guess=TCheck SCRF=Check GenChk RB3LYP/6-31G(d) Freq
 --------------------------------------------------------------------

 Structure from the checkpoint file:  "JID_10535.chk"
 --------------------------------
 CID_120535713_JID_10535_neutraal
 --------------------------------
 Charge =  0 Multiplicity = 1

 SCF Done:  E(RB3LYP) =  -954.795609845     A.U. after    1 cycles

  Exact polarizability: 197.841  11.373 164.485  21.519  -7.396 135.031
 Approx polarizability: 248.738  16.351 264.942  38.646 -24.481 225.746

                      1                      2                      3
                      A                      A                      A
 Frequencies --     11.8489                33.8045                43.7948
 Red. masses --      4.9043                 5.1473                 3.2917
 Frc consts  --      0.0004                 0.0035                 0.0037
 IR Inten    --      0.5935                 0.3961                 0.1067

                      4                      5                      6
                      A                      A                      A
 Frequencies --     55.5056                66.7311                73.7018
 Red. masses --      3.6540                 6.0387                 1.1994
 Frc consts  --      0.0066                 0.0158                 0.0038
 IR Inten    --      1.1126                 0.5936                 0.0236

                      7                      8                      9
                      A                      A                      A
 Frequencies --     88.5840               100.7793               102.1426
 Red. masses --      8.2161                 4.2567                 3.1305
 Frc consts  --      0.0380                 0.0255                 0.0192
 IR Inten    --      2.3315                 0.6102                 2.9184

                     10                     11                     12
                      A                      A                      A
 Frequencies --    121.6176               142.2752               163.5783
 Red. masses --      3.9712                 4.7435                 3.3120
 Frc consts  --      0.0346                 0.0566                 0.0522
 IR Inten    --      3.7644                 2.2504                 1.1839

                     13                     14                     15
                      A                      A                      A
 Frequencies --    177.1251               212.9131               233.9220
 Red. masses --      1.2754                 3.0935                 3.6773
 Frc consts  --      0.0236                 0.0826                 0.1186
 IR Inten    --      0.7287                 2.8538                 0.9725

                     16                     17                     18
                      A                      A                      A
 Frequencies --    249.8600               266.3183               291.2755
 Red. masses --      3.4663                 3.2654                 4.4250
 Frc consts  --      0.1275                 0.1365                 0.2212
 IR Inten    --      0.1822                 1.4033                 3.8419

                     19                     20                     21
                      A                      A                      A
 Frequencies --    306.4648               345.3782               372.6921
 Red. masses --      5.3401                 5.8319                 2.8753
 Frc consts  --      0.2955                 0.4099                 0.2353
 IR Inten    --      1.5543                 2.1737                 3.1783

                     22                     23                     24
                      A                      A                      A
 Frequencies --    390.9802               427.4536               468.6613
 Red. masses --      2.1681                 3.3400                 4.4902
 Frc consts  --      0.1953                 0.3596                 0.5811
 IR Inten    --      3.0379                 1.3659                 2.3208

                     25                     26                     27
                      A                      A                      A
 Frequencies --    481.1344               510.1967               565.3849
 Red. masses --      5.8999                 3.0989                 2.4775
 Frc consts  --      0.8047                 0.4753                 0.4666
 IR Inten    --      7.4790                 4.7774                 8.9648

                     28                     29                     30
                      A                      A                      A
 Frequencies --    581.3496               598.5350               620.0399
 Red. masses --      5.9162                 2.9867                 3.9964
 Frc consts  --      1.1781                 0.6304                 0.9052
 IR Inten    --      4.7344               109.8906                18.5414

                     31                     32                     33
                      A                      A                      A
 Frequencies --    642.1712               664.8469               680.1941
 Red. masses --      3.2731                 1.8433                 2.3358
 Frc consts  --      0.7953                 0.4801                 0.6367
 IR Inten    --     46.4745                36.2478                40.7747

                     34                     35                     36
                      A                      A                      A
 Frequencies --    719.3502               747.0712               760.8282
 Red. masses --      4.3211                 4.8469                 4.1995
 Frc consts  --      1.3174                 1.5938                 1.4323
 IR Inten    --      0.9378                16.1969                28.4029

                     37                     38                     39
                      A                      A                      A
 Frequencies --    773.1372               781.4789               795.2852
 Red. masses --      2.6831                 3.0381                 2.7715
 Frc consts  --      0.9449                 1.0932                 1.0328
 IR Inten    --     13.8467                22.4583                20.5948

                     40                     41                     42
                      A                      A                      A
 Frequencies --    799.0778               843.7647               846.7065
 Red. masses --      1.3435                 1.3071                 1.5581
 Frc consts  --      0.5055                 0.5483                 0.6581
 IR Inten    --     14.3134                 8.3525                 7.4137

                     43                     44                     45
                      A                      A                      A
 Frequencies --    873.3281               910.3639               958.8145
 Red. masses --      2.9233                 1.9999                 3.1642
 Frc consts  --      1.3137                 0.9765                 1.7139
 IR Inten    --      2.9684                 9.4297                15.2856

                     46                     47                     48
                      A                      A                      A
 Frequencies --    963.5257               979.8802              1018.0532
 Red. masses --      2.7888                 1.4234                 2.4179
 Frc consts  --      1.5255                 0.8052                 1.4765
 IR Inten    --     16.1068                 1.1193                10.9857

                     49                     50                     51
                      A                      A                      A
 Frequencies --   1043.1729              1046.1711              1059.2260
 Red. masses --      1.9260                 2.1918                 4.8886
 Frc consts  --      1.2349                 1.4134                 3.2316
 IR Inten    --      2.8525                10.1844                27.7869

                     52                     53                     54
                      A                      A                      A
 Frequencies --   1069.1111              1073.9228              1092.1031
 Red. masses --      1.3306                 1.5754                 1.3782
 Frc consts  --      0.8961                 1.0705                 0.9685
 IR Inten    --     15.6679                 4.8314                 6.4593

                     55                     56                     57
                      A                      A                      A
 Frequencies --   1108.0648              1138.0688              1152.7141
 Red. masses --      2.4431                 1.6449                 1.3320
 Frc consts  --      1.7674                 1.2552                 1.0428
 IR Inten    --     58.3060                14.5347                 1.2026

                     58                     59                     60
                      A                      A                      A
 Frequencies --   1176.8142              1185.8424              1195.1086
 Red. masses --      1.8079                 1.2666                 2.7084
 Frc consts  --      1.4752                 1.0494                 2.2792
 IR Inten    --     31.7441                 0.5580               123.2033

                     61                     62                     63
                      A                      A                      A
 Frequencies --   1213.3659              1219.2443              1220.2133
 Red. masses --      1.4027                 2.0339                 1.5764
 Frc consts  --      1.2168                 1.7814                 1.3829
 IR Inten    --      1.2891                16.6756                12.5289

                     64                     65                     66
                      A                      A                      A
 Frequencies --   1247.4343              1265.8247              1285.8489
 Red. masses --      2.0346                 1.8332                 1.3397
 Frc consts  --      1.8653                 1.7307                 1.3051
 IR Inten    --      2.8978                37.2227                 4.9591

                     67                     68                     69
                      A                      A                      A
 Frequencies --   1312.4029              1320.7396              1339.8447
 Red. masses --      1.3746                 4.4775                 4.3432
 Frc consts  --      1.3950                 4.6017                 4.5937
 IR Inten    --     31.0547                59.0390                51.1619

                     70                     71                     72
                      A                      A                      A
 Frequencies --   1356.0180              1372.6524              1389.4687
 Red. masses --      1.4730                 1.4484                 3.6046
 Frc consts  --      1.5958                 1.6079                 4.1002
 IR Inten    --     20.2633                25.7707               178.8931

                     73                     74                     75
                      A                      A                      A
 Frequencies --   1399.1780              1432.0987              1439.0744
 Red. masses --      2.3478                 2.3546                 1.3667
 Frc consts  --      2.7081                 2.8451                 1.6676
 IR Inten    --     24.5924               275.6380                42.2590

                     76                     77                     78
                      A                      A                      A
 Frequencies --   1447.5974              1488.1811              1497.9583
 Red. masses --      1.5319                 1.4883                 1.0916
 Frc consts  --      1.8914                 1.9421                 1.4432
 IR Inten    --      1.5449                48.2285                 1.7423

                     79                     80                     81
                      A                      A                      A
 Frequencies --   1501.8508              1505.7628              1507.8010
 Red. masses --      1.8905                 1.0454                 1.1174
 Frc consts  --      2.5123                 1.3965                 1.4967
 IR Inten    --     17.3203                 5.2406                 4.9528

                     82                     83                     84
                      A                      A                      A
 Frequencies --   1509.1934              1514.9458              1521.5276
 Red. masses --      1.0545                 1.5519                 1.2485
 Frc consts  --      1.4152                 2.0985                 1.7030
 IR Inten    --      8.1037                70.1270                51.5819

                     85                     86                     87
                      A                      A                      A
 Frequencies --   1530.0678              1539.5693              1630.1895
 Red. masses --      1.2337                 1.3582                 5.6774
 Frc consts  --      1.7017                 1.8968                 8.8895
 IR Inten    --      0.5773                 2.3007                71.2720

                     88                     89                     90
                      A                      A                      A
 Frequencies --   1652.1604              1772.5049              1836.1409
 Red. masses --      7.2202                 8.5662                 9.9229
 Frc consts  --     11.6120                15.8568                19.7107
 IR Inten    --    179.7174               377.2070               199.3692

                     91                     92                     93
                      A                      A                      A
 Frequencies --   3056.6928              3061.9855              3070.3359
 Red. masses --      1.0364                 1.0616                 1.0292
 Frc consts  --      5.7052                 5.8645                 5.7164
 IR Inten    --     17.5565                20.0032                44.5654

                     94                     95                     96
                      A                      A                      A
 Frequencies --   3108.5627              3114.7390              3135.4313
 Red. masses --      1.1016                 1.1007                 1.0831
 Frc consts  --      6.2720                 6.2914                 6.2733
 IR Inten    --      5.2798                11.8516                 6.9342

                     97                     98                     99
                      A                      A                      A
 Frequencies --   3140.0230              3142.7327              3143.6596
 Red. masses --      1.0876                 1.1027                 1.1071
 Frc consts  --      6.3179                 6.4171                 6.4465
 IR Inten    --     33.1933                16.9323                21.6966

                    100                    101                    102
                      A                      A                      A
 Frequencies --   3147.6096              3156.4250              3173.8084
 Red. masses --      1.0535                 1.0578                 1.1071
 Frc consts  --      6.1498                 6.2092                 6.5704
 IR Inten    --     18.5818                 6.6804                21.6737

                    103                    104                    105
                      A                      A                      A
 Frequencies --   3210.3714              3224.2585              3226.2302
 Red. masses --      1.0887                 1.1193                 1.0949
 Frc consts  --      6.6113                 6.8558                 6.7146
 IR Inten    --      7.7581                 3.6931                 6.2417

                    106                    107                    108
                      A                      A                      A
 Frequencies --   3240.2481              3589.5424              3685.3124
 Red. masses --      1.1165                 1.0748                 1.0640
 Frc consts  --      6.9067                 8.1590                 8.5142
 IR Inten    --     15.6552                28.1332                50.9644

 - Thermochemistry -
 -------------------
 Temperature   298.150 Kelvin.  Pressure   1.00000 Atm.
 Atom     1 has atomic number  6 and mass  12.00000

 Molecular mass:   278.12666 amu.
 Principal axes and moments of inertia in atomic units:
                           1         2         3
     Eigenvalues --  2924.741558845.033539163.61899
           X            0.99995   0.00244   0.01012
           Y           -0.00263   0.99981   0.01910
           Z           -0.01007  -0.01912   0.99977
 This molecule is an asymmetric top.
 Rotational symmetry number  1.
 Warning -- assumption of classical behavior for rotation
           may cause significant error
 Rotational temperatures (Kelvin)      0.02961     0.00979     0.00945
 Rotational constants (GHZ):           0.61706     0.20404     0.19695
 Zero-point vibrational energy     820034.6 (Joules/Mol)
                                  195.99297 (Kcal/Mol)
 Warning -- explicit consideration of  30 degrees of freedom as
           vibrations may cause significant error
 Vibrational temperatures:     17.05    48.64    63.01    79.86    96.01
          (Kelvin)            106.04   127.45   145.00   146.96   174.98
                              204.70   235.35   254.84   306.33   336.56
                              359.49   383.17   419.08   440.93   496.92
                              536.22   562.53   615.01   674.30   692.25
                              734.06   813.46   836.43   861.16   892.10
                              923.94   956.57   978.65  1034.98  1074.87
                             1094.66  1112.37  1124.37  1144.24  1149.69
                             1213.99  1218.22  1256.52  1309.81  1379.52
                             1386.30  1409.83  1464.75  1500.89  1505.21
                             1523.99  1538.21  1545.14  1571.29  1594.26
                             1637.43  1658.50  1693.17  1706.16  1719.49
                             1745.76  1754.22  1755.61  1794.78  1821.24
                             1850.05  1888.26  1900.25  1927.74  1951.01
                             1974.94  1999.14  2013.11  2060.47  2070.51
                             2082.77  2141.16  2155.23  2160.83  2166.46
                             2169.39  2171.39  2179.67  2189.14  2201.43
                             2215.10  2345.48  2377.09  2550.24  2641.80
                             4397.90  4405.51  4417.53  4472.53  4481.41
                             4511.19  4517.79  4521.69  4523.02  4528.71
                             4541.39  4566.40  4619.01  4638.99  4641.83
                             4661.99  5164.55  5302.34

 Zero-point correction=                           0.312335 (Hartree/Particle)
 Thermal correction to Energy=                    0.332438
 Thermal correction to Enthalpy=                  0.333383
 Thermal correction to Gibbs Free Energy=         0.261034
 Sum of electronic and zero-point Energies=           -954.483275
 Sum of electronic and thermal Energies=              -954.463172
 Sum of electronic and thermal Enthalpies=            -954.462227
 Sum of electronic and thermal Free Energies=         -954.534575

                     E (Thermal)             CV                S
                      KCal/Mol        Cal/Mol-Kelvin    Cal/Mol-Kelvin
 Total                  208.608             73.583            152.269
 Electronic               0.000              0.000              0.000
 Translational            0.889              2.981             42.767
 Rotational               0.889              2.981             33.827
 Vibrational            206.831             67.621             75.675
 Vibration     1          0.593              1.987              7.674
 Vibration     2          0.594              1.983              5.593
 Vibration     3          0.595              1.980              5.080
 Vibration     4          0.596              1.975              4.611
 Vibration     5          0.598              1.970              4.248
 Vibration     6          0.599              1.966              4.052
 Vibration     7          0.601              1.957              3.691
 Vibration     8          0.604              1.948              3.439
 Vibration     9          0.604              1.947              3.413
 Vibration    10          0.609              1.931              3.075
 Vibration    11          0.616              1.911              2.773
 Vibration    12          0.623              1.887              2.508
 Vibration    13          0.628              1.871              2.358
 Vibration    14          0.644              1.821              2.019
 Vibration    15          0.654              1.789              1.849
 Vibration    16          0.663              1.763              1.732
 Vibration    17          0.672              1.735              1.620
 Vibration    18          0.687              1.690              1.467
 Vibration    19          0.697              1.661              1.381
 Vibration    20          0.724              1.585              1.187
 Vibration    21          0.744              1.528              1.069
 Vibration    22          0.759              1.489              0.996
 Vibration    23          0.789              1.410              0.867
 Vibration    24          0.826              1.320              0.741
 Vibration    25          0.837              1.292              0.707
 Vibration    26          0.865              1.227              0.633
 Vibration    27          0.921              1.106              0.513
 Vibration    28          0.938              1.072              0.483
 Vibration    29          0.957              1.035              0.452
 Vibration    30          0.980              0.990              0.416

 Optimization completed.
    -- Stationary point found.
 Normal termination of Gaussian 16 at Sat Dec 12 17:07:11 2020.

 ----------------------------------------------------------------------
 # B3LYP/6-311++G(d,p) empiricaldispersion=gd3bj scf=xqc pop=npa geom=c
 heck
 ----------------------------------------------------------------------

 ----------------------------------------
 CID_120535713_JID_10535_Energie_neutraal
 ----------------------------------------
 Structure from the checkpoint file:  "JID_10535.chk"
 Charge =  0 Multiplicity = 1

 SCF Done:  E(RB3LYP) =  -955.074424816     A.U. after   16 cycles
 Normal termination of Gaussian 16 at Sat Dec 12 17:17:38 2020.

 ----------------------------------------------------------------------
 # B3LYP/6-311++G(d,p) empiricaldispersion=gd3bj scf=xqc pop=npa geom=c
 heck
 ----------------------------------------------------------------------

 --------------------------------------
 CID_120535713_JID_10535_Energie_kation
 --------------------------------------
 Structure from the checkpoint file:  "JID_10535.chk"
 Charge =  1 Multiplicity = 2

 SCF Done:  E(UB3LYP) =  -954.768738702     A.U. after   31 cycles
 Normal termination of Gaussian 16 at Sat Dec 12 17:46:24 2020.
 Gaussian 16:  ES64L-G16RevA.03 25-Dec-2016

 ----------------------------------------------------------------------
 # B3LYP/6-311++G(d,p) empiricaldispersion=gd3bj scf=xqc pop=npa geom=c
 heck
 ----------------------------------------------------------------------

 -------------------------------------
 CID_120535713_JID_10535_Energie_anion
 -------------------------------------
 Structure from the checkpoint file:  "JID_10535.chk"
 Charge = -1 Multiplicity = 2

                         Standard orientation:
 ---------------------------------------------------------------------
 Center     Atomic      Atomic             Coordinates (Angstroms)
 Number     Number       Type             X           Y           Z
 ---------------------------------------------------------------------
      1          6           0       -4.957059   -0.185385   -1.455945
      2          6           0       -3.705853   -0.334523   -0.633466
      3          7           0       -3.032079    0.800672   -0.369808
      4          6           0       -1.911651    0.734585    0.334948
      5          6           0       -1.362546   -0.466861    0.833544
      6          6           0       -2.094979   -1.624932    0.587342
      7          6           0       -3.267869   -1.572397   -0.163902
      8          6           0       -0.138186   -0.591705    1.693132
      9          8           0       -0.168929   -1.253242    2.724042
     10          7           0        1.019061    0.022574    1.278916
     11          6           0        1.321962    0.424288   -0.081004
     12          6           0        2.664695    1.182756   -0.139275
     13          6           0        3.867931    0.364552    0.282067
     14          6           0        4.515265   -0.594900   -0.690049
     15          6           0        5.225510    0.676492   -0.296803
     16          6           0        1.341138   -0.714775   -1.100164
     17          8           0        1.407253   -0.533275   -2.296734
     18          8           0        1.291789   -1.944872   -0.544676
     19          8           0       -1.253914    1.885615    0.613177
     20          6           0       -1.843226    3.101362    0.139807
     21          1           0       -5.451238   -1.147551   -1.615683
     22          1           0       -5.659721    0.493491   -0.960059
     23          1           0       -4.720676    0.254297   -2.431541
     24          1           0       -1.728000   -2.562046    0.992886
     25          1           0       -3.835626   -2.472240   -0.375066
     26          1           0        1.804656   -0.262684    1.851720
     27          1           0        0.549059    1.115072   -0.421191
     28          1           0        2.798531    1.522352   -1.171503
     29          1           0        2.569414    2.074535    0.491584
     30          1           0        3.877069    0.053304    1.325901
     31          1           0        4.891747   -1.538321   -0.305961
     32          1           0        4.100359   -0.652843   -1.691914
     33          1           0        5.287685    1.471546   -1.035463
     34          1           0        6.091454    0.606908    0.354907
     35          1           0        1.310454   -2.574703   -1.289726
     36          1           0       -2.839551    3.241885    0.567352
     37          1           0       -1.168071    3.890883    0.472612
     38          1           0       -1.926810    3.098242   -0.950487
 ---------------------------------------------------------------------

 SCF Done:  E(UB3LYP) =  -955.070957976     A.U. after   33 cycles
 SCF Done:  E(UB3LYP) =  -955.070957977     a.u. after    1 cycles

 The electronic state is 2-A.
 Alpha  occ. eigenvalues --  -19.07308 -19.04767 -19.01508 -18.96272 -14.21691
 Alpha  occ. eigenvalues --  -14.17261 -10.20327 -10.14677 -10.14347 -10.12106
 Alpha  occ. eigenvalues --  -10.11983 -10.09368 -10.08881 -10.08468 -10.08267
 Alpha  occ. eigenvalues --  -10.07548 -10.05697 -10.04640 -10.04587 -10.04546
 Alpha  occ. eigenvalues --   -1.01315  -0.97003  -0.92308  -0.91519  -0.81607
 Alpha  occ. eigenvalues --   -0.81344  -0.77463  -0.68334  -0.67209  -0.66331
 Alpha  occ. eigenvalues --   -0.61699  -0.58882  -0.57946  -0.51962  -0.51572
 Alpha  occ. eigenvalues --   -0.51210  -0.49206  -0.48158  -0.46531  -0.42729
 Alpha  occ. eigenvalues --   -0.41651  -0.40877  -0.40596  -0.39032  -0.37901
 Alpha  occ. eigenvalues --   -0.37118  -0.36433  -0.35564  -0.33688  -0.33258
 Alpha  occ. eigenvalues --   -0.32485  -0.32039  -0.31739  -0.30065  -0.29433
 Alpha  occ. eigenvalues --   -0.28889  -0.28788  -0.28424  -0.27919  -0.26987
 Alpha  occ. eigenvalues --   -0.26650  -0.25970  -0.24826  -0.23735  -0.22770
 Alpha  occ. eigenvalues --   -0.21323  -0.20706  -0.19991  -0.19588  -0.16598
 Alpha  occ. eigenvalues --   -0.15323  -0.14318  -0.13049  -0.11407   0.04511
 Alpha virt. eigenvalues --    0.05859   0.07150   0.07162   0.07936   0.08250
 Alpha virt. eigenvalues --    0.08685   0.09618   0.09813   0.10036   0.10671
 Alpha virt. eigenvalues --    0.10935   0.11197   0.11868   0.12113   0.12308

  Beta  occ. eigenvalues --  -19.07282 -19.04772 -19.01483 -18.96180 -14.21664
  Beta  occ. eigenvalues --  -14.17133 -10.20279 -10.14599 -10.14376 -10.12111
  Beta  occ. eigenvalues --  -10.11977 -10.09365 -10.08869 -10.08448 -10.08258
  Beta  occ. eigenvalues --  -10.07196 -10.05726 -10.04669 -10.04460 -10.04322
  Beta  occ. eigenvalues --   -1.01254  -0.97000  -0.92256  -0.91344  -0.81521
  Beta  occ. eigenvalues --   -0.81017  -0.77442  -0.68001  -0.67074  -0.66062
  Beta  occ. eigenvalues --   -0.61588  -0.58814  -0.57795  -0.51893  -0.51504
  Beta  occ. eigenvalues --   -0.50950  -0.49046  -0.48039  -0.46365  -0.42673
  Beta  occ. eigenvalues --   -0.41565  -0.40830  -0.40450  -0.38973  -0.37801
  Beta  occ. eigenvalues --   -0.37032  -0.36333  -0.35449  -0.33596  -0.33101
  Beta  occ. eigenvalues --   -0.32389  -0.31978  -0.31259  -0.29975  -0.29335
  Beta  occ. eigenvalues --   -0.28809  -0.28513  -0.28291  -0.27887  -0.26795
  Beta  occ. eigenvalues --   -0.26509  -0.25810  -0.24671  -0.23629  -0.22654
  Beta  occ. eigenvalues --   -0.20974  -0.20591  -0.19951  -0.19487  -0.15853
  Beta  occ. eigenvalues --   -0.14748  -0.14039  -0.12801  -0.10628
  Beta virt. eigenvalues --    0.06489   0.07144   0.07344   0.07984   0.08265
  Beta virt. eigenvalues --    0.08600   0.09229   0.09876   0.10139   0.10177
  Beta virt. eigenvalues --    0.10875   0.10991   0.11418   0.11952   0.12077

 Mulliken charges and spin densities:
               1          2
     1  C   -0.367563  -0.103238
     2  C    0.001451   0.244643
     3  N   -0.031960   0.062030
     4  C   -0.049550   0.003490
     5  C    0.256340  -0.000294
     6  C   -0.046317   0.223525
     7  C   -0.409960  -0.140909
     8  C   -0.660807   0.241645
     9  O   -0.299933   0.021136
    10  N   -0.137519   0.031591
    11  C    0.272033   0.304217
    12  C    0.420175  -1.198422
    13  C   -1.248564   1.538295
    14  C   -0.168990  -0.321618
    15  C    0.762175  -1.185439
    16  C   -0.612344  -0.109629
    17  O   -0.203663   0.011230
    18  O   -0.073231   0.015597
    19  O   -0.115591   0.005041
    20  C   -0.194212  -0.088727
    21  H    0.124654   0.005736
    22  H    0.133200   0.008823
    23  H    0.081623   0.069984
    24  H    0.171408   0.018375
    25  H    0.075886   0.045691
    26  H    0.318674   0.032893
    27  H    0.433004  -0.066496
    28  H    0.095361   0.097241
    29  H    0.181226  -0.006558
    30  H   -0.003698   0.185177
    31  H   -0.006853   0.158282
    32  H    0.163147   0.009877
    33  H    0.000164   0.118797
    34  H   -0.378631   0.535654
    35  H    0.127415   0.162056
    36  H    0.156790   0.000698
    37  H    0.100853   0.025493
    38  H    0.133805   0.044114
 Sum of Mulliken charges =  -1.00000   1.00000

 Dipole moment (field-independent basis, Debye):
    X=             -1.2815    Y=              2.3462    Z=             -2.0519  Tot=              3.3701
 Quadrupole moment (field-independent basis, Debye-Ang):
   XX=           -192.5031   YY=           -133.5971   ZZ=           -154.9659
   XY=             -1.1291   XZ=             -0.4902   YZ=              6.9479

 Summary of Natural Population Analysis:

                                       Natural Population
                Natural  -----------------------------------------------
    Atom  No    Charge         Core      Valence    Rydberg      Total
 -----------------------------------------------------------------------
      C    1   -0.29724      0.99964     2.29309    0.00450     3.29724
      C    2    0.16947      0.99956     1.81921    0.01175     2.83053
      N    3   -0.26866      0.99962     2.75858    0.01045     3.76866
      C    4    0.27592      0.99942     1.70870    0.01596     2.72408
      C    5   -0.09608      0.99941     2.08570    0.01097     3.09608
      C    6   -0.00303      0.99955     1.99367    0.00981     3.00303
      C    7   -0.16513      0.99951     2.15606    0.00955     3.16513
      C    8    0.36116      0.99964     1.61650    0.02270     2.63884
      O    9   -0.31464      0.99988     3.30963    0.00513     4.31464
      N   10   -0.31823      0.99966     2.80830    0.01027     3.81823
      C   11   -0.05908      0.99952     2.04581    0.01374     3.05908
      C   12   -0.18517      0.99959     2.17651    0.00907     3.18517
      C   13   -0.12175      0.99959     2.11146    0.01070     3.12175
      C   14   -0.20171      0.99962     2.19402    0.00808     3.20171
      C   15   -0.19636      0.99962     2.18747    0.00927     3.19636
      C   16    0.41439      0.99969     1.56014    0.02578     2.58561
      O   17   -0.31523      0.99987     3.30929    0.00607     4.31523
      O   18   -0.33665      0.99987     3.32976    0.00702     4.33665
      O   19   -0.28040      0.99985     3.27228    0.00827     4.28040
      C   20   -0.10127      0.99960     2.09346    0.00821     3.10127
      H   21    0.09419      0.00000     0.40511    0.00070     0.40581
      H   22    0.10330      0.00000     0.39575    0.00095     0.39670
      H   23    0.10429      0.00000     0.39419    0.00152     0.39571
      H   24    0.10160      0.00000     0.39740    0.00100     0.39840
      H   25    0.09623      0.00000     0.40287    0.00091     0.40377
      H   26    0.18761      0.00000     0.30919    0.00320     0.31239
      H   27    0.12470      0.00000     0.37295    0.00236     0.37530
      H   28    0.10702      0.00000     0.39182    0.00117     0.39298
      H   29    0.10484      0.00000     0.39409    0.00107     0.39516
      H   30    0.10098      0.00000     0.39751    0.00150     0.39902
      H   31    0.10355      0.00000     0.39549    0.00096     0.39645
      H   32    0.10649      0.00000     0.39239    0.00111     0.39351
      H   33    0.09956      0.00000     0.39962    0.00082     0.40044
      H   34    0.10363      0.00000     0.39503    0.00135     0.39637
      H   35    0.23816      0.00000     0.25787    0.00397     0.26184
      H   36    0.08917      0.00000     0.40970    0.00113     0.41083
      H   37    0.08452      0.00000     0.41462    0.00086     0.41548
      H   38    0.08982      0.00000     0.40876    0.00142     0.41018
 =======================================================================
   * Total *    0.00000     19.99272    53.76399    0.24329    74.00000

 Normal termination of Gaussian 16 at Sat Dec 12 18:16:53 2020.
