 Gaussian 16, Revision A.03,

 -----------------------------------------------------------
 # opt freq B3LYP/6-31G(d) empiricaldispersion=gd3bj scf=xqc
 -----------------------------------------------------------

 ------------------------------
 CID_62302345_JID_9334_neutraal
 ------------------------------
 Symbolic Z-matrix:
 Charge =  0 Multiplicity = 1

 SCF Done:  E(RB3LYP) =  -836.142016920     A.U. after   16 cycles
 SCF Done:  E(RB3LYP) =  -836.179266300     A.U. after   14 cycles
 SCF Done:  E(RB3LYP) =  -836.178729940     A.U. after   13 cycles
 SCF Done:  E(RB3LYP) =  -836.189759468     A.U. after   15 cycles
 SCF Done:  E(RB3LYP) =  -836.192671391     A.U. after   13 cycles
 SCF Done:  E(RB3LYP) =  -836.193591864     A.U. after   13 cycles
 SCF Done:  E(RB3LYP) =  -836.194987693     A.U. after   13 cycles
 SCF Done:  E(RB3LYP) =  -836.195661453     A.U. after   13 cycles
 SCF Done:  E(RB3LYP) =  -836.195816842     A.U. after   12 cycles
 SCF Done:  E(RB3LYP) =  -836.195952878     A.U. after   12 cycles
 SCF Done:  E(RB3LYP) =  -836.196975852     A.U. after    8 cycles
 SCF Done:  E(RB3LYP) =  -836.196976057     A.U. after    8 cycles
 SCF Done:  E(RB3LYP) =  -836.196976099     A.U. after    7 cycles
 SCF Done:  E(RB3LYP) =  -836.196976119     A.U. after    7 cycles
 SCF Done:  E(RB3LYP) =  -836.196976126     A.U. after    7 cycles
 Optimization completed.
    -- Stationary point found.
 Normal termination of Gaussian 16 at Sat Dec 12 10:18:11 2020.

 --------------------------------------------------------------------
 #N Geom=AllCheck Guess=TCheck SCRF=Check GenChk RB3LYP/6-31G(d) Freq
 --------------------------------------------------------------------

 Structure from the checkpoint file:  "JID_9334.chk"
 ------------------------------
 CID_62302345_JID_9334_neutraal
 ------------------------------
 Charge =  0 Multiplicity = 1

 SCF Done:  E(RB3LYP) =  -836.196976126     A.U. after    1 cycles

  Exact polarizability: 212.421  -0.805 180.218 -22.269  -6.414 118.296
 Approx polarizability: 300.266 -17.590 307.168 -46.241 -12.810 201.059

                      1                      2                      3
                      A                      A                      A
 Frequencies --     11.1351                28.2263                39.1448
 Red. masses --      6.9749                 6.4304                 4.7300
 Frc consts  --      0.0005                 0.0030                 0.0043
 IR Inten    --      5.9939                 3.6525                 2.4345

                      4                      5                      6
                      A                      A                      A
 Frequencies --     53.6881                83.1010               109.2960
 Red. masses --      4.2583                 7.0426                 5.8060
 Frc consts  --      0.0072                 0.0287                 0.0409
 IR Inten    --      0.3877                 0.3531                 3.5023

                      7                      8                      9
                      A                      A                      A
 Frequencies --    135.5023               155.3511               169.6107
 Red. masses --      1.5838                 2.0272                 4.3763
 Frc consts  --      0.0171                 0.0288                 0.0742
 IR Inten    --      2.5236                 6.0924                 6.6130

                     10                     11                     12
                      A                      A                      A
 Frequencies --    185.9686               189.8815               205.0863
 Red. masses --      1.5346                 2.0664                 3.3516
 Frc consts  --      0.0313                 0.0439                 0.0831
 IR Inten    --     17.9603                11.8900                 4.6541

                     13                     14                     15
                      A                      A                      A
 Frequencies --    254.8945               290.3141               323.9461
 Red. masses --      4.3213                 3.3304                 4.0850
 Frc consts  --      0.1654                 0.1654                 0.2526
 IR Inten    --      4.8000                 1.9587                 1.6221

                     16                     17                     18
                      A                      A                      A
 Frequencies --    345.5772               353.7378               370.8395
 Red. masses --      6.1602                 5.9213                 3.5637
 Frc consts  --      0.4334                 0.4365                 0.2888
 IR Inten    --      7.7501                 0.6900                 1.3518

                     19                     20                     21
                      A                      A                      A
 Frequencies --    372.5961               417.7788               424.6321
 Red. masses --      3.8360                 4.2114                 3.2218
 Frc consts  --      0.3138                 0.4331                 0.3423
 IR Inten    --      2.4399                 4.0051                 1.4151

                     22                     23                     24
                      A                      A                      A
 Frequencies --    477.7700               505.1606               556.1725
 Red. masses --      4.0928                 3.9937                 3.7937
 Frc consts  --      0.5504                 0.6005                 0.6914
 IR Inten    --      6.8445                 1.7392                20.1862

                     25                     26                     27
                      A                      A                      A
 Frequencies --    565.5701               595.4551               620.2218
 Red. masses --      1.7808                 4.0573                 3.3238
 Frc consts  --      0.3356                 0.8476                 0.7533
 IR Inten    --     68.7466                32.5749                11.1575

                     28                     29                     30
                      A                      A                      A
 Frequencies --    624.2270               640.9450               663.3160
 Red. masses --      2.2915                 4.4104                 5.7877
 Frc consts  --      0.5261                 1.0675                 1.5004
 IR Inten    --     32.6975                 2.2959                 5.4686

                     31                     32                     33
                      A                      A                      A
 Frequencies --    680.8835               694.0487               733.5686
 Red. masses --      3.7634                 1.5715                 4.3487
 Frc consts  --      1.0280                 0.4460                 1.3788
 IR Inten    --      5.7646                31.6839                 2.4910

                     34                     35                     36
                      A                      A                      A
 Frequencies --    754.4415               775.2029               795.2568
 Red. masses --      1.9127                 2.5993                 2.7719
 Frc consts  --      0.6414                 0.9203                 1.0329
 IR Inten    --     97.7184               179.4222                 1.5481

                     37                     38                     39
                      A                      A                      A
 Frequencies --    818.1910               822.8693               840.4499
 Red. masses --      2.1023                 3.2135                 1.4078
 Frc consts  --      0.8292                 1.2820                 0.5859
 IR Inten    --     51.4631                39.0509                 6.0531

                     40                     41                     42
                      A                      A                      A
 Frequencies --    860.8973               911.6690               938.4297
 Red. masses --      1.6756                 4.0412                 1.8453
 Frc consts  --      0.7317                 1.9789                 0.9575
 IR Inten    --     18.5472                11.7223                 0.1410

                     43                     44                     45
                      A                      A                      A
 Frequencies --    942.0963               956.2352               977.4849
 Red. masses --      2.7622                 1.5469                 1.3448
 Frc consts  --      1.4444                 0.8334                 0.7570
 IR Inten    --      0.5536                 0.2249                 1.5763

                     46                     47                     48
                      A                      A                      A
 Frequencies --   1029.9363              1040.6041              1088.9081
 Red. masses --      3.2720                 2.8270                 1.8262
 Frc consts  --      2.0450                 1.8036                 1.2758
 IR Inten    --     17.4641                 0.6133                 8.6779

                     49                     50                     51
                      A                      A                      A
 Frequencies --   1116.3871              1124.7421              1155.1763
 Red. masses --      1.4208                 2.3840                 1.3610
 Frc consts  --      1.0433                 1.7769                 1.0701
 IR Inten    --      8.4762                42.6384                 7.1057

                     52                     53                     54
                      A                      A                      A
 Frequencies --   1160.2854              1198.7863              1220.4456
 Red. masses --      1.2898                 1.8628                 1.1877
 Frc consts  --      1.0230                 1.5773                 1.0423
 IR Inten    --      1.3787                 1.0766                 6.7286

                     55                     56                     57
                      A                      A                      A
 Frequencies --   1223.9605              1232.4974              1261.2080
 Red. masses --      1.1809                 2.3666                 1.6565
 Frc consts  --      1.0424                 2.1181                 1.5524
 IR Inten    --      0.9792                 2.5807                 8.2890

                     58                     59                     60
                      A                      A                      A
 Frequencies --   1269.5164              1321.7881              1349.2604
 Red. masses --      2.1994                 4.0792                 1.5764
 Frc consts  --      2.0885                 4.1990                 1.6909
 IR Inten    --     22.8397               316.8990                 4.3293

                     61                     62                     63
                      A                      A                      A
 Frequencies --   1351.4643              1367.8247              1395.0824
 Red. masses --      2.2431                 2.1253                 5.0903
 Frc consts  --      2.4138                 2.3428                 5.8371
 IR Inten    --      5.9218                13.2954                78.7089

                     64                     65                     66
                      A                      A                      A
 Frequencies --   1443.5609              1454.0406              1483.5100
 Red. masses --      2.1506                 2.5474                 3.6294
 Frc consts  --      2.6404                 3.1732                 4.7061
 IR Inten    --     68.0409                74.2836                70.7263

                     67                     68                     69
                      A                      A                      A
 Frequencies --   1492.2819              1495.3420              1501.8571
 Red. masses --      1.0858                 1.8267                 2.1924
 Frc consts  --      1.4247                 2.4065                 2.9136
 IR Inten    --     10.4054               157.2050                11.2434

                     70                     71                     72
                      A                      A                      A
 Frequencies --   1520.5006              1533.8219              1542.9778
 Red. masses --      1.0579                 2.7956                 1.2734
 Frc consts  --      1.4411                 3.8751                 1.7862
 IR Inten    --     28.9107               125.1568                24.2030

                     73                     74                     75
                      A                      A                      A
 Frequencies --   1569.2703              1638.7282              1642.1102
 Red. masses --      2.5929                 5.8982                 4.3261
 Frc consts  --      3.7621                 9.3321                 6.8731
 IR Inten    --     90.7109                12.8511                21.5822

                     76                     77                     78
                      A                      A                      A
 Frequencies --   1675.9847              1695.6830              1761.8637
 Red. masses --      5.8200                 1.1942                 8.4545
 Frc consts  --      9.6319                 2.0232                15.4626
 IR Inten    --     43.3419                61.0638               440.6989

                     79                     80                     81
                      A                      A                      A
 Frequencies --   2369.5919              3061.0456              3069.4854
 Red. masses --     12.5902                 1.0592                 1.0361
 Frc consts  --     41.6515                 5.8474                 5.7518
 IR Inten    --      8.7386                 9.3816                39.0766

                     82                     83                     84
                      A                      A                      A
 Frequencies --   3100.5920              3130.7668              3184.0622
 Red. masses --      1.1033                 1.1055                 1.0874
 Frc consts  --      6.2495                 6.3843                 6.4955
 IR Inten    --      2.1235                21.3080                10.6324

                     85                     86                     87
                      A                      A                      A
 Frequencies --   3186.0573              3190.2895              3200.3515
 Red. masses --      1.1006                 1.0901                 1.0948
 Frc consts  --      6.5826                 6.5368                 6.6069
 IR Inten    --      3.2973                 9.6356                11.9453

                     88                     89                     90
                      A                      A                      A
 Frequencies --   3235.1679              3265.3402              3268.8019
 Red. masses --      1.0930                 1.0960                 1.0958
 Frc consts  --      6.7399                 6.8855                 6.8987
 IR Inten    --      0.9237                 1.7842                 1.0005

                     91                     92                     93
                      A                      A                      A
 Frequencies --   3520.7544              3574.7578              3613.9247
 Red. masses --      1.0487                 1.0753                 1.0958
 Frc consts  --      7.6593                 8.0957                 8.4323
 IR Inten    --      3.5137                33.6880                 4.7133

 - Thermochemistry -
 -------------------
 Temperature   298.150 Kelvin.  Pressure   1.00000 Atm.
 Atom     1 has atomic number  6 and mass  12.00000

 Molecular mass:   254.11676 amu.
 Principal axes and moments of inertia in atomic units:
                           1         2         3
     Eigenvalues --  3042.978927632.993209390.01350
           X            0.99965   0.02648   0.00281
           Y           -0.02643   0.99955  -0.01412
           Z           -0.00318   0.01404   0.99990
 This molecule is an asymmetric top.
 Rotational symmetry number  1.
 Warning -- assumption of classical behavior for rotation
           may cause significant error
 Rotational temperatures (Kelvin)      0.02846     0.01135     0.00922
 Rotational constants (GHZ):           0.59308     0.23644     0.19220
 Zero-point vibrational energy     691449.1 (Joules/Mol)
                                  165.26031 (Kcal/Mol)
 Warning -- explicit consideration of  27 degrees of freedom as
           vibrations may cause significant error
 Vibrational temperatures:     16.02    40.61    56.32    77.25   119.56
          (Kelvin)            157.25   194.96   223.52   244.03   267.57
                              273.20   295.07   366.74   417.70   466.09
                              497.21   508.95   533.56   536.08   601.09
                              610.95   687.40   726.81   800.21   813.73
                              856.73   892.36   898.12   922.18   954.36
                              979.64   998.58  1055.44  1085.47  1115.34
                             1144.20  1177.19  1183.93  1209.22  1238.64
                             1311.69  1350.19  1355.47  1375.81  1406.38
                             1481.85  1497.20  1566.70  1606.23  1618.25
                             1662.04  1669.39  1724.79  1755.95  1761.01
                             1773.29  1814.60  1826.55  1901.76  1941.28
                             1944.46  1967.99  2007.21  2076.96  2092.04
                             2134.44  2147.06  2151.46  2160.84  2187.66
                             2206.83  2220.00  2257.83  2357.76  2362.63
                             2411.37  2439.71  2534.93  3409.31  4404.16
                             4416.30  4461.06  4504.48  4581.16  4584.03
                             4590.12  4604.59  4654.68  4698.10  4703.08
                             5065.58  5143.28  5199.63

 Zero-point correction=                           0.263359 (Hartree/Particle)
 Thermal correction to Energy=                    0.281087
 Thermal correction to Enthalpy=                  0.282031
 Thermal correction to Gibbs Free Energy=         0.215266
 Sum of electronic and zero-point Energies=           -835.933617
 Sum of electronic and thermal Energies=              -835.915889
 Sum of electronic and thermal Enthalpies=            -835.914945
 Sum of electronic and thermal Free Energies=         -835.981710

                     E (Thermal)             CV                S
                      KCal/Mol        Cal/Mol-Kelvin    Cal/Mol-Kelvin
 Total                  176.385             66.563            140.520
 Electronic               0.000              0.000              0.000
 Translational            0.889              2.981             42.498
 Rotational               0.889              2.981             33.744
 Vibrational            174.607             60.601             64.278
 Vibration     1          0.593              1.987              7.797
 Vibration     2          0.593              1.984              5.950
 Vibration     3          0.594              1.981              5.302
 Vibration     4          0.596              1.976              4.677
 Vibration     5          0.600              1.961              3.816
 Vibration     6          0.606              1.942              3.281
 Vibration     7          0.613              1.918              2.866
 Vibration     8          0.620              1.897              2.606
 Vibration     9          0.625              1.880              2.440
 Vibration    10          0.632              1.859              2.268
 Vibration    11          0.633              1.854              2.229
 Vibration    12          0.640              1.833              2.087
 Vibration    13          0.665              1.755              1.696
 Vibration    14          0.686              1.692              1.472
 Vibration    15          0.708              1.628              1.290
 Vibration    16          0.724              1.584              1.186
 Vibration    17          0.730              1.568              1.149
 Vibration    18          0.743              1.532              1.076
 Vibration    19          0.744              1.528              1.069
 Vibration    20          0.781              1.432              0.900
 Vibration    21          0.787              1.417              0.876
 Vibration    22          0.834              1.299              0.716
 Vibration    23          0.860              1.239              0.645
 Vibration    24          0.912              1.126              0.532
 Vibration    25          0.921              1.106              0.513
 Vibration    26          0.953              1.041              0.458
 Vibration    27          0.980              0.989              0.416

 Optimization completed.
    -- Stationary point found.
 Normal termination of Gaussian 16 at Sat Dec 12 10:34:18 2020.

 ----------------------------------------------------------------------
 # B3LYP/6-311++G(d,p) empiricaldispersion=gd3bj scf=xqc pop=npa geom=c
 heck
 ----------------------------------------------------------------------

 --------------------------------------
 CID_62302345_JID_9334_Energie_neutraal
 --------------------------------------
 Structure from the checkpoint file:  "JID_9334.chk"
 Charge =  0 Multiplicity = 1

 SCF Done:  E(RB3LYP) =  -836.432428712     A.U. after   16 cycles
 Normal termination of Gaussian 16 at Sat Dec 12 10:40:58 2020.

 ----------------------------------------------------------------------
 # B3LYP/6-311++G(d,p) empiricaldispersion=gd3bj scf=xqc pop=npa geom=c
 heck
 ----------------------------------------------------------------------

 ------------------------------------
 CID_62302345_JID_9334_Energie_kation
 ------------------------------------
 Structure from the checkpoint file:  "JID_9334.chk"
 Charge =  1 Multiplicity = 2

 SCF Done:  E(UB3LYP) =  -836.161688334     A.U. after   26 cycles
 Normal termination of Gaussian 16 at Sat Dec 12 10:56:50 2020.
 Gaussian 16:  ES64L-G16RevA.03 25-Dec-2016

 ----------------------------------------------------------------------
 # B3LYP/6-311++G(d,p) empiricaldispersion=gd3bj scf=xqc pop=npa geom=c
 heck
 ----------------------------------------------------------------------

 -----------------------------------
 CID_62302345_JID_9334_Energie_anion
 -----------------------------------
 Structure from the checkpoint file:  "JID_9334.chk"
 Charge = -1 Multiplicity = 2

                         Standard orientation:
 ---------------------------------------------------------------------
 Center     Atomic      Atomic             Coordinates (Angstroms)
 Number     Number       Type             X           Y           Z
 ---------------------------------------------------------------------
      1          6           0        0.701162    0.273852    2.034400
      2          7           0        1.642383    0.551255    0.960638
      3          6           0        2.148831    1.808205    0.714513
      4          6           0        3.113358    1.718847   -0.281048
      5          6           0        3.207345    0.350503   -0.634468
      6          6           0        2.286359   -0.351693    0.135874
      7          6           0        2.005624   -1.787610    0.002285
      8          8           0        2.890432   -2.607407   -0.215331
      9          7           0        0.684218   -2.220030    0.133453
     10          6           0       -0.510447   -1.532618   -0.164158
     11          6           0       -1.705793   -2.006635    0.393510
     12          6           0       -2.909301   -1.356626    0.140831
     13          6           0       -2.946352   -0.211724   -0.658978
     14          6           0       -1.753552    0.250723   -1.222033
     15          6           0       -0.547439   -0.405500   -0.998530
     16          6           0       -4.249320    0.536832   -0.882506
     17          6           0       -4.470644    1.564203    0.144366
     18          7           0       -4.620238    2.367563    0.968514
     19          7           0        3.810858    2.782414   -0.881306
     20          1           0       -0.319470    0.540297    1.742599
     21          1           0        0.985759    0.847982    2.920475
     22          1           0        0.731307   -0.786881    2.279420
     23          1           0        1.806097    2.660403    1.284010
     24          1           0        3.843788   -0.093254   -1.387064
     25          1           0        0.627429   -3.232345    0.154601
     26          1           0       -1.682802   -2.879460    1.040297
     27          1           0       -3.824997   -1.734534    0.588036
     28          1           0       -1.764183    1.132206   -1.857795
     29          1           0        0.360913   -0.041610   -1.462839
     30          1           0       -4.252135    1.025187   -1.864003
     31          1           0       -5.101427   -0.152751   -0.868494
     32          1           0        4.739411    2.508346   -1.184493
     33          1           0        3.887328    3.592702   -0.275550
 ---------------------------------------------------------------------

 SCF Done:  E(UB3LYP) =  -836.435376864     A.U. after   33 cycles
 SCF Done:  E(UB3LYP) =  -836.435376864     a.u. after    1 cycles

 The electronic state is 2-A.
 Alpha  occ. eigenvalues --  -18.95595 -14.25105 -14.22451 -14.22237 -14.20704
 Alpha  occ. eigenvalues --  -10.13918 -10.11442 -10.10864 -10.10443 -10.09525
 Alpha  occ. eigenvalues --  -10.09242 -10.08419 -10.07739 -10.06800 -10.06589
 Alpha  occ. eigenvalues --  -10.06544 -10.06373 -10.05702 -10.04351  -0.91364
 Alpha  occ. eigenvalues --   -0.87703  -0.81554  -0.80896  -0.80596  -0.74616
 Alpha  occ. eigenvalues --   -0.68945  -0.68413  -0.64171  -0.62707  -0.60592
 Alpha  occ. eigenvalues --   -0.58220  -0.52722  -0.50273  -0.49272  -0.47147
 Alpha  occ. eigenvalues --   -0.44858  -0.43353  -0.41533  -0.40801  -0.39437
 Alpha  occ. eigenvalues --   -0.37696  -0.36899  -0.36255  -0.35986  -0.34032
 Alpha  occ. eigenvalues --   -0.33289  -0.32368  -0.31731  -0.30744  -0.29985
 Alpha  occ. eigenvalues --   -0.29142  -0.28832  -0.27955  -0.27484  -0.26770
 Alpha  occ. eigenvalues --   -0.26403  -0.25249  -0.24097  -0.22645  -0.22559
 Alpha  occ. eigenvalues --   -0.21665  -0.18810  -0.15061  -0.14201  -0.11925
 Alpha  occ. eigenvalues --   -0.11252  -0.09175   0.04025
 Alpha virt. eigenvalues --    0.06205   0.06505   0.07735   0.08265   0.08485
 Alpha virt. eigenvalues --    0.09039   0.09344   0.09759   0.10400   0.10916
 Alpha virt. eigenvalues --    0.11911   0.12255   0.12718   0.12863   0.13251

  Beta  occ. eigenvalues --  -18.95294 -14.25013 -14.22535 -14.22239 -14.20668
  Beta  occ. eigenvalues --  -10.13669 -10.11439 -10.10839 -10.10446 -10.09309
  Beta  occ. eigenvalues --  -10.09280 -10.08440 -10.07660 -10.06618 -10.06556
  Beta  occ. eigenvalues --  -10.06531 -10.06374 -10.05663 -10.04256  -0.90886
  Beta  occ. eigenvalues --   -0.87546  -0.81380  -0.80876  -0.80531  -0.74417
  Beta  occ. eigenvalues --   -0.68859  -0.68245  -0.64026  -0.62485  -0.60370
  Beta  occ. eigenvalues --   -0.58152  -0.52420  -0.50075  -0.49001  -0.47076
  Beta  occ. eigenvalues --   -0.44763  -0.43246  -0.41448  -0.40644  -0.39350
  Beta  occ. eigenvalues --   -0.37530  -0.36802  -0.36124  -0.35816  -0.33921
  Beta  occ. eigenvalues --   -0.33152  -0.32221  -0.31629  -0.30643  -0.29611
  Beta  occ. eigenvalues --   -0.28915  -0.28588  -0.27736  -0.27351  -0.26585
  Beta  occ. eigenvalues --   -0.26256  -0.24554  -0.24008  -0.22597  -0.22370
  Beta  occ. eigenvalues --   -0.21542  -0.17964  -0.14698  -0.13908  -0.11396
  Beta  occ. eigenvalues --   -0.10523  -0.08845
  Beta virt. eigenvalues --    0.06143   0.06916   0.07746   0.08134   0.08572
  Beta virt. eigenvalues --    0.08932   0.09367   0.09728   0.10074   0.10558
  Beta virt. eigenvalues --    0.10943   0.12044   0.12328   0.12656   0.13079

 Mulliken charges and spin densities:
               1          2
     1  C   -0.406730  -0.027066
     2  N    0.245517   0.027265
     3  C    0.058855   0.090222
     4  C   -0.614410  -0.033040
     5  C    0.482222   0.064592
     6  C   -0.327979  -0.018021
     7  C   -0.393977   0.101152
     8  O   -0.361951   0.105693
     9  N   -0.261851  -0.049329
    10  C    0.674415  -0.476583
    11  C   -0.375177   0.098352
    12  C   -0.700563   0.170644
    13  C    0.050667   0.892934
    14  C   -0.713091   0.216698
    15  C    0.032559  -0.151355
    16  C    1.040122  -1.161574
    17  C    0.256562  -0.463984
    18  N   -0.386640   0.038661
    19  N   -0.363875  -0.003070
    20  H    0.225958   0.001578
    21  H    0.132572   0.019004
    22  H    0.149910   0.012503
    23  H    0.140912  -0.005181
    24  H    0.178431  -0.007443
    25  H    0.266637   0.051176
    26  H   -0.049447   0.194040
    27  H   -0.131319   0.288859
    28  H    0.059824   0.109468
    29  H    0.137862   0.064303
    30  H   -0.158589   0.330463
    31  H   -0.311585   0.495709
    32  H    0.209245   0.019116
    33  H    0.214914   0.004215
 Sum of Mulliken charges =  -1.00000   1.00000

 Dipole moment (field-independent basis, Debye):
    X=              4.1410    Y=              1.9752    Z=              1.4579  Tot=              4.8140
 Quadrupole moment (field-independent basis, Debye-Ang):
   XX=           -190.2119   YY=           -146.6170   ZZ=           -126.9934
   XY=             26.4037   XZ=              4.1395   YZ=             -4.1288

 Summary of Natural Population Analysis:

                                       Natural Population
                Natural  -----------------------------------------------
    Atom  No    Charge         Core      Valence    Rydberg      Total
 -----------------------------------------------------------------------
      C    1   -0.17575      0.99965     2.16985    0.00626     3.17575
      N    2   -0.18365      0.99962     2.67556    0.00847     3.68365
      C    3   -0.02850      0.99953     2.01851    0.01046     3.02850
      C    4    0.03352      0.99949     1.95701    0.00998     2.96648
      C    5   -0.12511      0.99948     2.11797    0.00766     3.12511
      C    6    0.03175      0.99948     1.95594    0.01283     2.96825
      C    7    0.35323      0.99961     1.62526    0.02191     2.64677
      O    8   -0.29047      0.99988     3.28511    0.00548     4.29047
      N    9   -0.32774      0.99966     2.81903    0.00906     3.82774
      C   10    0.10643      0.99947     1.88317    0.01093     2.89357
      C   11   -0.11536      0.99953     2.10603    0.00980     3.11536
      C   12   -0.09109      0.99952     2.08187    0.00971     3.09109
      C   13   -0.00489      0.99949     1.99522    0.01018     3.00489
      C   14   -0.09457      0.99952     2.08518    0.00987     3.09457
      C   15   -0.10763      0.99952     2.09906    0.00905     3.10763
      C   16   -0.24954      0.99952     2.24085    0.00917     3.24954
      C   17    0.16771      0.99965     1.81506    0.01758     2.83229
      N   18   -0.19299      0.99979     2.68247    0.01073     3.69299
      N   19   -0.40567      0.99972     2.89603    0.00991     3.90567
      H   20    0.10449      0.00000     0.39460    0.00091     0.39551
      H   21    0.09242      0.00000     0.40667    0.00092     0.40758
      H   22    0.10715      0.00000     0.39200    0.00086     0.39285
      H   23    0.09297      0.00000     0.40613    0.00090     0.40703
      H   24    0.10574      0.00000     0.39337    0.00089     0.39426
      H   25    0.19445      0.00000     0.30270    0.00285     0.30555
      H   26    0.09764      0.00000     0.40132    0.00104     0.40236
      H   27    0.09811      0.00000     0.40082    0.00107     0.40189
      H   28    0.09805      0.00000     0.40092    0.00103     0.40195
      H   29    0.10995      0.00000     0.38803    0.00203     0.39005
      H   30    0.12148      0.00000     0.37678    0.00173     0.37852
      H   31    0.12326      0.00000     0.37408    0.00266     0.37674
      H   32    0.17812      0.00000     0.32028    0.00160     0.32188
      H   33    0.17651      0.00000     0.32197    0.00152     0.32349
 =======================================================================
   * Total *    0.00000     18.99212    47.78885    0.21903    67.00000

 Normal termination of Gaussian 16 at Sat Dec 12 11:17:07 2020.
