 Gaussian 16, Revision A.03,

 -----------------------------------------------------------
 # opt freq B3LYP/6-31G(d) empiricaldispersion=gd3bj scf=xqc
 -----------------------------------------------------------

 ----------------------------
 CID_747988_JID_7221_neutraal
 ----------------------------
 Symbolic Z-matrix:
 Charge =  0 Multiplicity = 1

 SCF Done:  E(RB3LYP) =  -1408.53391896     A.U. after   15 cycles
 SCF Done:  E(RB3LYP) =  -1408.53605389     A.U. after   14 cycles
 SCF Done:  E(RB3LYP) =  -1408.53380627     A.U. after   15 cycles
 SCF Done:  E(RB3LYP) =  -1408.53609203     A.U. after   13 cycles
 SCF Done:  E(RB3LYP) =  -1408.53766195     A.U. after   10 cycles
 SCF Done:  E(RB3LYP) =  -1408.53828221     A.U. after   14 cycles
 SCF Done:  E(RB3LYP) =  -1408.53835501     A.U. after   11 cycles
 SCF Done:  E(RB3LYP) =  -1408.53837132     A.U. after   10 cycles
 SCF Done:  E(RB3LYP) =  -1408.53838486     A.U. after   11 cycles
 SCF Done:  E(RB3LYP) =  -1408.53840064     A.U. after   11 cycles
 SCF Done:  E(RB3LYP) =  -1408.53843556     A.U. after    8 cycles
 SCF Done:  E(RB3LYP) =  -1408.53843567     A.U. after    8 cycles
 SCF Done:  E(RB3LYP) =  -1408.53843570     A.U. after    7 cycles
 SCF Done:  E(RB3LYP) =  -1408.53843571     A.U. after    7 cycles
 SCF Done:  E(RB3LYP) =  -1408.53843571     A.U. after    6 cycles
 Optimization completed.
    -- Stationary point found.
 Normal termination of Gaussian 16 at Mon Dec 14 16:51:34 2020.

 --------------------------------------------------------------------
 #N Geom=AllCheck Guess=TCheck SCRF=Check GenChk RB3LYP/6-31G(d) Freq
 --------------------------------------------------------------------

 Structure from the checkpoint file:  "JID_7221.chk"
 ----------------------------
 CID_747988_JID_7221_neutraal
 ----------------------------
 Charge =  0 Multiplicity = 1

 SCF Done:  E(RB3LYP) =  -1408.53843571     A.U. after    1 cycles

  Exact polarizability: 195.266  -9.808 186.439 -17.862   8.045 140.249
 Approx polarizability: 268.953 -28.703 305.500 -43.234  22.135 264.237

                      1                      2                      3
                      A                      A                      A
 Frequencies --     11.3995                17.5213                19.7717
 Red. masses --      5.8070                 1.0341                 5.9121
 Frc consts  --      0.0004                 0.0002                 0.0014
 IR Inten    --      0.0989                 0.1877                 4.4082

                      4                      5                      6
                      A                      A                      A
 Frequencies --     45.4595                87.9282               119.8872
 Red. masses --      3.9176                 5.2130                 6.3110
 Frc consts  --      0.0048                 0.0237                 0.0534
 IR Inten    --      0.1178                 2.8290                 0.9578

                      7                      8                      9
                      A                      A                      A
 Frequencies --    132.9958               185.6015               241.7092
 Red. masses --      5.3157                 5.4242                 6.4703
 Frc consts  --      0.0554                 0.1101                 0.2227
 IR Inten    --      1.4181                 0.7791                 2.1147

                     10                     11                     12
                      A                      A                      A
 Frequencies --    251.0853               283.0718               306.0511
 Red. masses --      3.9666                 4.6605                 4.4868
 Frc consts  --      0.1473                 0.2200                 0.2476
 IR Inten    --      1.0690                 1.5769                 1.8201

                     13                     14                     15
                      A                      A                      A
 Frequencies --    337.2266               368.6884               405.6214
 Red. masses --      3.5076                 5.4966                 4.1523
 Frc consts  --      0.2350                 0.4402                 0.4025
 IR Inten    --      3.1624                 0.6597                 0.5389

                     16                     17                     18
                      A                      A                      A
 Frequencies --    415.8552               483.5457               491.0836
 Red. masses --      3.1278                 5.7947                 3.8402
 Frc consts  --      0.3187                 0.7983                 0.5457
 IR Inten    --      1.1513                 0.1397                 2.0850

                     19                     20                     21
                      A                      A                      A
 Frequencies --    500.6385               538.9114               584.6607
 Red. masses --      2.8639                 8.6195                 7.8412
 Frc consts  --      0.4229                 1.4749                 1.5792
 IR Inten    --     12.9613                 4.9125                 1.4681

                     22                     23                     24
                      A                      A                      A
 Frequencies --    628.4334               646.7297               652.4603
 Red. masses --      5.0691                 2.4802                 2.6334
 Frc consts  --      1.1795                 0.6112                 0.6605
 IR Inten    --      3.0406                23.6801                31.7054

                     25                     26                     27
                      A                      A                      A
 Frequencies --    657.1548               694.8041               713.4545
 Red. masses --      4.7472                 1.4718                 3.8074
 Frc consts  --      1.2079                 0.4186                 1.1419
 IR Inten    --      1.9731                18.6031                 0.5969

                     28                     29                     30
                      A                      A                      A
 Frequencies --    717.2741               728.1796               747.7722
 Red. masses --      2.7926                 4.8480                 5.6513
 Frc consts  --      0.8465                 1.5146                 1.8618
 IR Inten    --     14.8870                 1.3707                 9.5075

                     31                     32                     33
                      A                      A                      A
 Frequencies --    815.6696               819.6429               820.9428
 Red. masses --      1.4620                 4.3528                 4.2972
 Frc consts  --      0.5731                 1.7230                 1.7063
 IR Inten    --     37.8787                 6.5352                 3.3009

                     34                     35                     36
                      A                      A                      A
 Frequencies --    843.5436               845.0254               869.1772
 Red. masses --      1.2467                 1.2519                 4.4129
 Frc consts  --      0.5227                 0.5267                 1.9642
 IR Inten    --      0.4780                 1.2646                16.0605

                     37                     38                     39
                      A                      A                      A
 Frequencies --    916.6035               956.0184               959.2790
 Red. masses --      1.9069                 1.2556                 1.3297
 Frc consts  --      0.9439                 0.6762                 0.7209
 IR Inten    --      3.1415                 1.7088                 1.8367

                     40                     41                     42
                      A                      A                      A
 Frequencies --   1009.7597              1019.2733              1039.4804
 Red. masses --      5.9283                 1.4551                 3.2625
 Frc consts  --      3.5614                 0.8907                 2.0770
 IR Inten    --      6.3655                 1.3128                 9.8474

                     43                     44                     45
                      A                      A                      A
 Frequencies --   1076.2449              1092.5583              1116.3664
 Red. masses --      1.5043                 1.6460                 3.8080
 Frc consts  --      1.0266                 1.1576                 2.7961
 IR Inten    --      6.4677                 2.4154                28.7371

                     46                     47                     48
                      A                      A                      A
 Frequencies --   1146.0905              1160.8854              1182.8094
 Red. masses --      1.7129                 1.3496                 1.3795
 Frc consts  --      1.3256                 1.0716                 1.1371
 IR Inten    --      3.8812                 5.0991                11.9268

                     49                     50                     51
                      A                      A                      A
 Frequencies --   1185.5498              1230.9853              1249.2502
 Red. masses --      1.5167                 1.1735                 2.7458
 Frc consts  --      1.2560                 1.0477                 2.5247
 IR Inten    --     15.9050                 2.5682                 4.1980

                     52                     53                     54
                      A                      A                      A
 Frequencies --   1261.6859              1287.7419              1336.7761
 Red. masses --      1.6506                 2.2104                 4.3626
 Frc consts  --      1.5481                 2.1596                 4.5932
 IR Inten    --     49.5748                11.9290                 1.5018

                     55                     56                     57
                      A                      A                      A
 Frequencies --   1352.4836              1358.1756              1362.2830
 Red. masses --      2.3270                 1.9710                 2.0739
 Frc consts  --      2.5079                 2.1421                 2.2676
 IR Inten    --     18.3181                15.1010                16.5050

                     58                     59                     60
                      A                      A                      A
 Frequencies --   1443.4637              1448.0242              1452.6073
 Red. masses --      1.2500                 6.4303                 2.6771
 Frc consts  --      1.5345                 7.9439                 3.3282
 IR Inten    --      0.8537                 1.7681                 3.4998

                     61                     62                     63
                      A                      A                      A
 Frequencies --   1495.8212              1516.1586              1518.2971
 Red. masses --      1.2730                 1.0481                 4.7002
 Frc consts  --      1.6782                 1.4196                 6.3838
 IR Inten    --     36.9767                 3.4724               122.3018

                     64                     65                     66
                      A                      A                      A
 Frequencies --   1524.0967              1551.5269              1577.1414
 Red. masses --      1.0994                 2.2263                 5.9044
 Frc consts  --      1.5047                 3.1575                 8.6530
 IR Inten    --      7.9388                48.6021                 2.1996

                     67                     68                     69
                      A                      A                      A
 Frequencies --   1620.8917              1624.1461              1666.8579
 Red. masses --      5.9452                 5.3733                 5.6067
 Frc consts  --      9.2029                 8.3510                 9.1782
 IR Inten    --     40.8123                 2.5109                 6.8372

                     70                     71                     72
                      A                      A                      A
 Frequencies --   3040.5330              3069.4349              3092.3445
 Red. masses --      1.0385                 1.0633                 1.0995
 Frc consts  --      5.6563                 5.9022                 6.1947
 IR Inten    --     43.8203                13.8613                22.0674

                     73                     74                     75
                      A                      A                      A
 Frequencies --   3122.8711              3123.7389              3172.9641
 Red. masses --      1.1009                 1.1010                 1.0870
 Frc consts  --      6.3259                 6.3296                 6.4477
 IR Inten    --      2.5732                17.1709                14.7909

                     76                     77                     78
                      A                      A                      A
 Frequencies --   3180.7187              3192.6314              3236.3690
 Red. masses --      1.0894                 1.0941                 1.0913
 Frc consts  --      6.4938                 6.5706                 6.7346
 IR Inten    --     19.1375                15.8924                 1.9131

                     79                     80                     81
                      A                      A                      A
 Frequencies --   3270.3222              3295.7010              3309.7705
 Red. masses --      1.0905                 1.1011                 1.0979
 Frc consts  --      6.8717                 7.0466                 7.0860
 IR Inten    --      4.8207                 1.8834                 1.0180

 - Thermochemistry -
 -------------------
 Temperature   298.150 Kelvin.  Pressure   1.00000 Atm.
 Atom     1 has atomic number  6 and mass  12.00000

 Molecular mass:   260.04419 amu.
 Principal axes and moments of inertia in atomic units:
                           1         2         3
     Eigenvalues --  3003.538617757.190919449.49941
           X            0.99961   0.02745   0.00530
           Y           -0.02742   0.99960  -0.00709
           Z           -0.00549   0.00695   0.99996
 This molecule is an asymmetric top.
 Rotational symmetry number  1.
 Warning -- assumption of classical behavior for rotation
           may cause significant error
 Rotational temperatures (Kelvin)      0.02884     0.01117     0.00917
 Rotational constants (GHZ):           0.60087     0.23265     0.19099
 Zero-point vibrational energy     585426.8 (Joules/Mol)
                                  139.92035 (Kcal/Mol)
 Warning -- explicit consideration of  21 degrees of freedom as
           vibrations may cause significant error
 Vibrational temperatures:     16.40    25.21    28.45    65.41   126.51
          (Kelvin)            172.49   191.35   267.04   347.77   361.26
                              407.28   440.34   485.19   530.46   583.60
                              598.32   695.71   706.56   720.31   775.37
                              841.20   904.18   930.50   938.74   945.50
                              999.67  1026.50  1032.00  1047.69  1075.88
                             1173.57  1179.28  1181.15  1213.67  1215.80
                             1250.55  1318.79  1375.50  1380.19  1452.82
                             1466.51  1495.58  1548.48  1571.95  1606.20
                             1648.97  1670.26  1701.80  1705.74  1771.11
                             1797.39  1815.28  1852.77  1923.32  1945.92
                             1954.11  1960.02  2076.82  2083.38  2089.98
                             2152.15  2181.41  2184.49  2192.84  2232.30
                             2269.15  2332.10  2336.78  2398.24  4374.65
                             4416.23  4449.19  4493.11  4494.36  4565.19
                             4576.34  4593.48  4656.41  4705.26  4741.78
                             4762.02

 Zero-point correction=                           0.222977 (Hartree/Particle)
 Thermal correction to Energy=                    0.238315
 Thermal correction to Enthalpy=                  0.239260
 Thermal correction to Gibbs Free Energy=         0.175778
 Sum of electronic and zero-point Energies=          -1408.315458
 Sum of electronic and thermal Energies=             -1408.300120
 Sum of electronic and thermal Enthalpies=           -1408.299176
 Sum of electronic and thermal Free Energies=        -1408.362658

                     E (Thermal)             CV                S
                      KCal/Mol        Cal/Mol-Kelvin    Cal/Mol-Kelvin
 Total                  149.545             57.946            133.608
 Electronic               0.000              0.000              0.000
 Translational            0.889              2.981             42.567
 Rotational               0.889              2.981             33.753
 Vibrational            147.768             51.984             57.288
 Vibration     1          0.593              1.987              7.751
 Vibration     2          0.593              1.986              6.897
 Vibration     3          0.593              1.986              6.657
 Vibration     4          0.595              1.979              5.006
 Vibration     5          0.601              1.958              3.706
 Vibration     6          0.609              1.933              3.102
 Vibration     7          0.613              1.920              2.902
 Vibration     8          0.632              1.860              2.271
 Vibration     9          0.658              1.776              1.790
 Vibration    10          0.663              1.761              1.723
 Vibration    11          0.682              1.705              1.515
 Vibration    12          0.696              1.662              1.384
 Vibration    13          0.718              1.601              1.225
 Vibration    14          0.741              1.537              1.085
 Vibration    15          0.771              1.458              0.942
 Vibration    16          0.779              1.436              0.906
 Vibration    17          0.840              1.287              0.701
 Vibration    18          0.847              1.270              0.681
 Vibration    19          0.856              1.249              0.657
 Vibration    20          0.894              1.164              0.568
 Vibration    21          0.942              1.065              0.477

 Optimization completed on the basis of negligible forces.
    -- Stationary point found.
 Normal termination of Gaussian 16 at Mon Dec 14 17:01:21 2020.

 ----------------------------------------------------------------------
 # B3LYP/6-311++G(d,p) empiricaldispersion=gd3bj scf=xqc pop=npa geom=c
 heck
 ----------------------------------------------------------------------

 ------------------------------------
 CID_747988_JID_7221_Energie_neutraal
 ------------------------------------
 Structure from the checkpoint file:  "JID_7221.chk"
 Charge =  0 Multiplicity = 1

 SCF Done:  E(RB3LYP) =  -1408.74725212     A.U. after   16 cycles
 Normal termination of Gaussian 16 at Mon Dec 14 17:06:31 2020.

 ----------------------------------------------------------------------
 # B3LYP/6-311++G(d,p) empiricaldispersion=gd3bj scf=xqc pop=npa geom=c
 heck
 ----------------------------------------------------------------------

 ----------------------------------
 CID_747988_JID_7221_Energie_kation
 ----------------------------------
 Structure from the checkpoint file:  "JID_7221.chk"
 Charge =  1 Multiplicity = 2

 SCF Done:  E(UB3LYP) =  -1408.47776122     A.U. after   23 cycles
 Normal termination of Gaussian 16 at Mon Dec 14 17:17:12 2020.
 Gaussian 16:  ES64L-G16RevA.03 25-Dec-2016

 ----------------------------------------------------------------------
 # B3LYP/6-311++G(d,p) empiricaldispersion=gd3bj scf=xqc pop=npa geom=c
 heck
 ----------------------------------------------------------------------

 ---------------------------------
 CID_747988_JID_7221_Energie_anion
 ---------------------------------
 Structure from the checkpoint file:  "JID_7221.chk"
 Charge = -1 Multiplicity = 2

                         Standard orientation:
 ---------------------------------------------------------------------
 Center     Atomic      Atomic             Coordinates (Angstroms)
 Number     Number       Type             X           Y           Z
 ---------------------------------------------------------------------
      1          6           0       -4.049169   -3.043743   -0.112897
      2          6           0       -3.383054   -1.690641   -0.061985
      3          6           0       -3.849717   -0.690942    0.803094
      4          6           0       -3.248185    0.561036    0.850858
      5          6           0       -2.156526    0.857159    0.020323
      6          6           0       -1.680120   -0.128996   -0.848654
      7          6           0       -2.291201   -1.384178   -0.876879
      8         16           0       -1.485015    2.506128    0.146517
      9          6           0        0.054583    2.413185   -0.844123
     10          6           0        1.063540    1.425146   -0.346946
     11          6           0        1.399287    1.113193    0.953045
     12          7           0        2.371752    0.131406    0.845255
     13          6           0        3.154609   -0.662598    1.673371
     14          6           0        3.953723   -1.496595    0.972583
     15         16           0        3.763233   -1.328181   -0.774439
     16          6           0        2.556867   -0.085995   -0.507762
     17          7           0        1.787710    0.668220   -1.257801
     18          1           0       -4.180247   -3.465291    0.890805
     19          1           0       -5.046113   -2.982513   -0.568339
     20          1           0       -3.461160   -3.754851   -0.701535
     21          1           0       -4.694614   -0.898712    1.455995
     22          1           0       -3.623193    1.314949    1.538119
     23          1           0       -0.829732    0.053524   -1.493983
     24          1           0       -1.901683   -2.140407   -1.554373
     25          1           0       -0.175642    2.193911   -1.890061
     26          1           0        0.438873    3.438973   -0.808419
     27          1           0        1.022611    1.460739    1.901013
     28          1           0        3.079223   -0.569103    2.747492
     29          1           0        4.656138   -2.211938    1.373699
 ---------------------------------------------------------------------

 SCF Done:  E(UB3LYP) =  -1408.73521808     A.U. after   33 cycles
 SCF Done:  E(UB3LYP) =  -1408.73521808     a.u. after    1 cycles

 The electronic state is 2-A.
 Alpha  occ. eigenvalues --  -88.80034 -88.76921 -14.30272 -14.21665 -10.17010
 Alpha  occ. eigenvalues --  -10.13555 -10.12929 -10.12222 -10.12128 -10.11837
 Alpha  occ. eigenvalues --  -10.11512 -10.09615 -10.09318 -10.08973 -10.08908
 Alpha  occ. eigenvalues --  -10.08821 -10.08295  -7.88601  -7.85538  -5.84935
 Alpha  occ. eigenvalues --   -5.84585  -5.84087  -5.81942  -5.81537  -5.80925
 Alpha  occ. eigenvalues --   -0.95657  -0.83124  -0.78260  -0.75521  -0.73082
 Alpha  occ. eigenvalues --   -0.68901  -0.66420  -0.65535  -0.64204  -0.61000
 Alpha  occ. eigenvalues --   -0.56726  -0.52878  -0.52747  -0.50463  -0.48655
 Alpha  occ. eigenvalues --   -0.48196  -0.42292  -0.41572  -0.39196  -0.38394
 Alpha  occ. eigenvalues --   -0.38267  -0.37452  -0.36752  -0.34600  -0.34303
 Alpha  occ. eigenvalues --   -0.33697  -0.33539  -0.31887  -0.31560  -0.30286
 Alpha  occ. eigenvalues --   -0.28595  -0.28351  -0.27369  -0.26287  -0.25089
 Alpha  occ. eigenvalues --   -0.23939  -0.23553  -0.20508  -0.19950  -0.17277
 Alpha  occ. eigenvalues --   -0.14655  -0.13460  -0.12734   0.04091
 Alpha virt. eigenvalues --    0.05500   0.06331   0.06573   0.06764   0.06953
 Alpha virt. eigenvalues --    0.07152   0.07541   0.08189   0.08811   0.09418
 Alpha virt. eigenvalues --    0.09701   0.09867   0.10274   0.10857   0.11077

  Beta  occ. eigenvalues --  -88.80031 -88.76919 -14.30274 -14.21669 -10.16998
  Beta  occ. eigenvalues --  -10.13514 -10.12927 -10.12218 -10.12072 -10.11832
  Beta  occ. eigenvalues --  -10.11497 -10.09612 -10.09313 -10.08970 -10.08895
  Beta  occ. eigenvalues --  -10.08815 -10.08267  -7.88598  -7.85536  -5.84933
  Beta  occ. eigenvalues --   -5.84583  -5.84079  -5.81938  -5.81536  -5.80924
  Beta  occ. eigenvalues --   -0.95642  -0.83107  -0.78249  -0.75490  -0.73067
  Beta  occ. eigenvalues --   -0.68878  -0.66406  -0.65486  -0.64170  -0.60960
  Beta  occ. eigenvalues --   -0.56692  -0.52821  -0.52723  -0.50433  -0.48624
  Beta  occ. eigenvalues --   -0.48164  -0.42204  -0.41544  -0.39177  -0.38355
  Beta  occ. eigenvalues --   -0.38210  -0.37419  -0.36723  -0.34568  -0.34274
  Beta  occ. eigenvalues --   -0.33669  -0.33522  -0.31853  -0.31532  -0.30256
  Beta  occ. eigenvalues --   -0.28563  -0.28318  -0.27344  -0.26260  -0.25033
  Beta  occ. eigenvalues --   -0.23926  -0.23518  -0.20506  -0.19933  -0.17264
  Beta  occ. eigenvalues --   -0.14575  -0.13408  -0.12717
  Beta virt. eigenvalues --    0.05967   0.06411   0.06673   0.06842   0.07098
  Beta virt. eigenvalues --    0.07260   0.07473   0.08075   0.08372   0.09044
  Beta virt. eigenvalues --    0.09659   0.09906   0.10250   0.10442   0.10976

 Mulliken charges and spin densities:
               1          2
     1  C    1.602572  -2.202776
     2  C   -0.072112   0.536765
     3  C   -0.907850   0.645934
     4  C   -0.374698  -0.044417
     5  C    0.907999   0.052224
     6  C   -0.610987   0.314116
     7  C   -0.188888  -0.538237
     8  S   -0.227646  -0.189116
     9  C   -0.816218   0.031492
    10  C    1.372327  -0.539758
    11  C   -0.648846   0.368458
    12  N    0.187142   0.098636
    13  C    1.225811  -1.390372
    14  C    0.300403  -0.566523
    15  S    0.078193  -0.308835
    16  C   -0.038395  -0.237097
    17  N   -0.046571   0.049883
    18  H   -0.142742   0.294461
    19  H   -0.008352   0.165165
    20  H   -0.175356   0.323027
    21  H   -0.341259   0.510332
    22  H   -0.052925   0.220552
    23  H    0.150382  -0.028912
    24  H   -0.011440   0.176216
    25  H    0.231109   0.004239
    26  H    0.190733   0.050515
    27  H   -0.249765   0.414692
    28  H   -0.943119   1.123872
    29  H   -1.389501   1.665463
 Sum of Mulliken charges =  -1.00000   1.00000

 Dipole moment (field-independent basis, Debye):
    X=             -3.8690    Y=              6.0407    Z=             -6.1448  Tot=              9.4455
 Quadrupole moment (field-independent basis, Debye-Ang):
   XX=           -214.4832   YY=           -160.4417   ZZ=           -161.3554
   XY=              8.9405   XZ=            -18.0510   YZ=             11.1813

 Summary of Natural Population Analysis:

                                       Natural Population
                Natural  -----------------------------------------------
    Atom  No    Charge         Core      Valence    Rydberg      Total
 -----------------------------------------------------------------------
      C    1   -0.29088      0.99964     2.28631    0.00494     3.29088
      C    2   -0.02299      0.99952     2.01358    0.00989     3.02299
      C    3   -0.09462      0.99951     2.08557    0.00954     3.09462
      C    4   -0.10672      0.99951     2.09622    0.01099     3.10672
      C    5   -0.09000      0.99941     2.07875    0.01184     3.09000
      C    6   -0.11414      0.99949     2.10472    0.00993     3.11414
      C    7   -0.09276      0.99951     2.08372    0.00953     3.09276
      S    8    0.12464      4.99955     2.85759    0.01822     7.87536
      C    9   -0.25938      0.99953     2.24981    0.01004     3.25938
      C   10    0.04476      0.99954     1.93949    0.01622     2.95524
      C   11   -0.03399      0.99947     2.02328    0.01124     3.03399
      N   12   -0.20265      0.99960     2.69178    0.01127     3.70265
      C   13   -0.00541      0.99950     1.99251    0.01340     3.00541
      C   14   -0.18412      0.99954     2.17295    0.01163     3.18412
      S   15    0.18713      4.99946     2.79238    0.02103     7.81287
      C   16    0.11351      0.99954     1.86562    0.02133     2.88649
      N   17   -0.27394      0.99965     2.76472    0.00957     3.77394
      H   18    0.10563      0.00000     0.39295    0.00142     0.39437
      H   19    0.10262      0.00000     0.39620    0.00118     0.39738
      H   20    0.10243      0.00000     0.39650    0.00107     0.39757
      H   21    0.10084      0.00000     0.39812    0.00104     0.39916
      H   22    0.10250      0.00000     0.39643    0.00106     0.39750
      H   23    0.10908      0.00000     0.38860    0.00232     0.39092
      H   24    0.10056      0.00000     0.39850    0.00094     0.39944
      H   25    0.11208      0.00000     0.38646    0.00147     0.38792
      H   26    0.11397      0.00000     0.38505    0.00097     0.38603
      H   27    0.11279      0.00000     0.38575    0.00147     0.38721
      H   28    0.11700      0.00000     0.37687    0.00614     0.38300
      H   29    0.12205      0.00000     0.37005    0.00790     0.37795
 =======================================================================
   * Total *    0.00000     24.99195    42.77045    0.23760    68.00000

 Normal termination of Gaussian 16 at Mon Dec 14 17:34:15 2020.
