 Gaussian 16, Revision A.03,

 -----------------------------------------------------------
 # opt freq B3LYP/6-31G(d) empiricaldispersion=gd3bj scf=xqc
 -----------------------------------------------------------

 ------------------------------
 CID_61489282_JID_9104_neutraal
 ------------------------------
 Symbolic Z-matrix:
 Charge =  0 Multiplicity = 1

 SCF Done:  E(RB3LYP) =  -915.449232359     A.U. after   15 cycles
 SCF Done:  E(RB3LYP) =  -915.455221941     A.U. after   14 cycles
 SCF Done:  E(RB3LYP) =  -915.450715455     A.U. after   13 cycles
 SCF Done:  E(RB3LYP) =  -915.456126428     A.U. after   12 cycles
 SCF Done:  E(RB3LYP) =  -915.456852257     A.U. after   12 cycles
 SCF Done:  E(RB3LYP) =  -915.457603656     A.U. after   13 cycles
 SCF Done:  E(RB3LYP) =  -915.458616528     A.U. after   13 cycles
 SCF Done:  E(RB3LYP) =  -915.459890120     A.U. after   12 cycles
 SCF Done:  E(RB3LYP) =  -915.460263537     A.U. after   13 cycles
 SCF Done:  E(RB3LYP) =  -915.460968569     A.U. after   12 cycles
 SCF Done:  E(RB3LYP) =  -915.463205669     A.U. after   10 cycles
 SCF Done:  E(RB3LYP) =  -915.463209061     A.U. after    9 cycles
 SCF Done:  E(RB3LYP) =  -915.463210228     A.U. after    9 cycles
 SCF Done:  E(RB3LYP) =  -915.463210318     A.U. after    7 cycles
 SCF Done:  E(RB3LYP) =  -915.463210331     A.U. after    7 cycles
 Optimization completed.
    -- Stationary point found.
 Normal termination of Gaussian 16 at Sun Dec 13 12:57:48 2020.

 --------------------------------------------------------------------
 #N Geom=AllCheck Guess=TCheck SCRF=Check GenChk RB3LYP/6-31G(d) Freq
 --------------------------------------------------------------------

 Structure from the checkpoint file:  "JID_9104.chk"
 ------------------------------
 CID_61489282_JID_9104_neutraal
 ------------------------------
 Charge =  0 Multiplicity = 1

 SCF Done:  E(RB3LYP) =  -915.463210331     A.U. after    1 cycles

  Exact polarizability: 227.033  10.403 153.302 -16.809   0.470 103.059
 Approx polarizability: 321.241  16.554 253.464 -39.359  -0.082 162.302

                      1                      2                      3
                      A                      A                      A
 Frequencies --     26.8941                38.2548                51.8804
 Red. masses --      5.9003                 6.2183                 4.0840
 Frc consts  --      0.0025                 0.0054                 0.0065
 IR Inten    --      0.1837                 1.2049                 0.1285

                      4                      5                      6
                      A                      A                      A
 Frequencies --     69.8405                77.7903                97.1403
 Red. masses --      6.4575                 5.9446                 2.4725
 Frc consts  --      0.0186                 0.0212                 0.0137
 IR Inten    --      1.3236                 2.5682                 0.7571

                      7                      8                      9
                      A                      A                      A
 Frequencies --    107.5027               116.1124               124.9583
 Red. masses --      4.1015                 1.3022                 4.8636
 Frc consts  --      0.0279                 0.0103                 0.0447
 IR Inten    --      0.3039                 0.1305                 0.6816

                     10                     11                     12
                      A                      A                      A
 Frequencies --    150.1971               198.7627               208.1959
 Red. masses --      4.5940                 5.8407                 3.5856
 Frc consts  --      0.0611                 0.1360                 0.0916
 IR Inten    --      1.9823                 2.8136                 3.1050

                     13                     14                     15
                      A                      A                      A
 Frequencies --    235.0137               284.5760               315.2581
 Red. masses --      3.2917                 4.2672                 4.1139
 Frc consts  --      0.1071                 0.2036                 0.2409
 IR Inten    --      2.0517                 1.6050                 8.1517

                     16                     17                     18
                      A                      A                      A
 Frequencies --    330.9638               353.2083               366.0900
 Red. masses --      2.7200                 7.3879                 3.9125
 Frc consts  --      0.1755                 0.5430                 0.3089
 IR Inten    --      4.3603                 4.2980                 4.7747

                     19                     20                     21
                      A                      A                      A
 Frequencies --    399.3274               404.9311               412.3726
 Red. masses --      3.4063                 1.3433                 2.9641
 Frc consts  --      0.3200                 0.1298                 0.2970
 IR Inten    --      0.7843                46.7555                 4.0496

                     22                     23                     24
                      A                      A                      A
 Frequencies --    437.5899               491.4711               506.5823
 Red. masses --      4.1011                 3.2062                 2.8289
 Frc consts  --      0.4627                 0.4563                 0.4277
 IR Inten    --     13.5198                13.6598                12.2695

                     25                     26                     27
                      A                      A                      A
 Frequencies --    525.5443               554.7753               573.9951
 Red. masses --      4.0233                 3.3508                 2.2902
 Frc consts  --      0.6547                 0.6076                 0.4446
 IR Inten    --     34.2608                 7.0092                20.1169

                     28                     29                     30
                      A                      A                      A
 Frequencies --    580.5488               623.6018               630.4947
 Red. masses --      3.2977                 3.4595                 1.9250
 Frc consts  --      0.6548                 0.7927                 0.4509
 IR Inten    --     44.7377               175.2645                39.0103

                     31                     32                     33
                      A                      A                      A
 Frequencies --    649.0721               687.1625               725.2969
 Red. masses --      1.6554                 3.0488                 4.4582
 Frc consts  --      0.4109                 0.8482                 1.3818
 IR Inten    --    132.9702                 5.2908                33.7204

                     34                     35                     36
                      A                      A                      A
 Frequencies --    742.0846               769.8361               784.7381
 Red. masses --      4.4955                 4.7297                 4.9068
 Frc consts  --      1.4586                 1.6515                 1.7803
 IR Inten    --      4.1512                68.1522                26.6211

                     37                     38                     39
                      A                      A                      A
 Frequencies --    799.9641               809.3490               838.8604
 Red. masses --      1.1642                 3.7074                 1.6200
 Frc consts  --      0.4390                 1.4308                 0.6717
 IR Inten    --      0.4225                10.5593                16.7697

                     40                     41                     42
                      A                      A                      A
 Frequencies --    847.3637               899.9825               918.1338
 Red. masses --      1.3350                 2.8367                 1.4676
 Frc consts  --      0.5647                 1.3537                 0.7289
 IR Inten    --      8.4767                18.2213                 4.9908

                     43                     44                     45
                      A                      A                      A
 Frequencies --    932.6207               969.3757               975.4735
 Red. masses --      4.7506                 1.2998                 3.4509
 Frc consts  --      2.4345                 0.7197                 1.9347
 IR Inten    --      7.7395                 0.7231                 0.5707

                     46                     47                     48
                      A                      A                      A
 Frequencies --    988.5744              1022.0197              1043.2480
 Red. masses --      2.8925                 2.0865                 4.3727
 Frc consts  --      1.6655                 1.2841                 2.8040
 IR Inten    --      7.4606                43.9484                46.3002

                     49                     50                     51
                      A                      A                      A
 Frequencies --   1075.4049              1097.1983              1105.3347
 Red. masses --      1.3282                 1.8812                 1.3563
 Frc consts  --      0.9050                 1.3343                 0.9764
 IR Inten    --     15.4355                63.5174                 7.9202

                     52                     53                     54
                      A                      A                      A
 Frequencies --   1110.4407              1126.6222              1144.1404
 Red. masses --      2.4967                 1.7044                 1.1894
 Frc consts  --      1.8139                 1.2746                 0.9174
 IR Inten    --     44.7588                20.0433                 3.1224

                     55                     56                     57
                      A                      A                      A
 Frequencies --   1162.8479              1172.1492              1177.4790
 Red. masses --      1.7793                 1.4756                 1.4094
 Frc consts  --      1.4175                 1.1945                 1.1513
 IR Inten    --     23.7377                16.7235               199.6410

                     58                     59                     60
                      A                      A                      A
 Frequencies --   1202.5748              1212.1975              1236.0195
 Red. masses --      1.5090                 1.3603                 2.4313
 Frc consts  --      1.2857                 1.1777                 2.1885
 IR Inten    --    100.4135                 7.2825                73.8771

                     61                     62                     63
                      A                      A                      A
 Frequencies --   1243.7142              1289.4260              1304.7219
 Red. masses --      2.4961                 1.7396                 1.7005
 Frc consts  --      2.2748                 1.7041                 1.7055
 IR Inten    --    168.8456                26.2054                 1.9087

                     64                     65                     66
                      A                      A                      A
 Frequencies --   1311.0246              1356.3804              1385.2307
 Red. masses --      1.5342                 2.4621                 2.0405
 Frc consts  --      1.5537                 2.6688                 2.3069
 IR Inten    --     27.5290                78.3454               159.3330

                     67                     68                     69
                      A                      A                      A
 Frequencies --   1392.9861              1401.0135              1409.1776
 Red. masses --      3.9112                 3.5027                 1.7871
 Frc consts  --      4.4715                 4.0508                 2.0909
 IR Inten    --      5.1328                89.8728               201.3892

                     70                     71                     72
                      A                      A                      A
 Frequencies --   1419.9335              1471.9244              1476.5943
 Red. masses --      1.5819                 1.2234                 4.0062
 Frc consts  --      1.8792                 1.5616                 5.1464
 IR Inten    --     33.4836                16.4219                 6.1867

                     73                     74                     75
                      A                      A                      A
 Frequencies --   1494.9098              1513.2205              1516.4381
 Red. masses --      1.0988                 1.1256                 1.0639
 Frc consts  --      1.4468                 1.5186                 1.4415
 IR Inten    --      1.6847                 8.3000                 3.1899

                     76                     77                     78
                      A                      A                      A
 Frequencies --   1536.0101              1539.1332              1567.8771
 Red. masses --      1.3321                 1.0768                 3.2623
 Frc consts  --      1.8517                 1.5030                 4.7250
 IR Inten    --     11.4538                13.6443                75.7359

                     79                     80                     81
                      A                      A                      A
 Frequencies --   1629.9040              1662.3583              1696.7860
 Red. masses --      6.5713                 3.3123                 1.4003
 Frc consts  --     10.2856                 5.3930                 2.3754
 IR Inten    --     37.6627                69.2586               161.1236

                     82                     83                     84
                      A                      A                      A
 Frequencies --   1775.5560              1813.6290              3047.6874
 Red. masses --     10.2443                 9.4763                 1.0482
 Frc consts  --     19.0283                18.3647                 5.7364
 IR Inten    --    208.9313               386.2619                47.9087

                     85                     86                     87
                      A                      A                      A
 Frequencies --   3096.8449              3109.9266              3133.0237
 Red. masses --      1.0582                 1.0874                 1.0873
 Frc consts  --      5.9793                 6.1965                 6.2882
 IR Inten    --     18.1945                38.2441                14.8955

                     88                     89                     90
                      A                      A                      A
 Frequencies --   3154.5747              3159.8853              3166.9636
 Red. masses --      1.0545                 1.1085                 1.0600
 Frc consts  --      6.1828                 6.5214                 6.2640
 IR Inten    --     10.7308                19.2060                10.7520

                     91                     92                     93
                      A                      A                      A
 Frequencies --   3184.2459              3184.9211              3229.5405
 Red. masses --      1.1041                 1.0895                 1.0923
 Frc consts  --      6.5961                 6.5116                 6.7124
 IR Inten    --      7.5058                14.9780                 2.5726

                     94                     95                     96
                      A                      A                      A
 Frequencies --   3232.4362              3235.6318              3264.0593
 Red. masses --      1.0911                 1.1187                 1.1141
 Frc consts  --      6.7167                 6.9005                 6.9932
 IR Inten    --      1.0466                13.2361                 3.2981

                     97                     98                     99
                      A                      A                      A
 Frequencies --   3548.0229              3657.2146              3704.8537
 Red. masses --      1.0484                 1.0987                 1.0642
 Frc consts  --      7.7755                 8.6583                 8.6059
 IR Inten    --    140.3495                61.0458                76.6989

 - Thermochemistry -
 -------------------
 Temperature   298.150 Kelvin.  Pressure   1.00000 Atm.
 Atom     1 has atomic number  6 and mass  12.00000

 Molecular mass:   264.11101 amu.
 Principal axes and moments of inertia in atomic units:
                           1         2         3
     Eigenvalues --  2094.460219510.315809840.45888
           X            0.99999   0.00156  -0.00328
           Y           -0.00141   0.99900   0.04473
           Z            0.00334  -0.04473   0.99899
 This molecule is an asymmetric top.
 Rotational symmetry number  1.
 Warning -- assumption of classical behavior for rotation
           may cause significant error
 Rotational temperatures (Kelvin)      0.04135     0.00911     0.00880
 Rotational constants (GHZ):           0.86167     0.18977     0.18340
 Zero-point vibrational energy     746692.4 (Joules/Mol)
                                  178.46377 (Kcal/Mol)
 Warning -- explicit consideration of  28 degrees of freedom as
           vibrations may cause significant error
 Vibrational temperatures:     38.69    55.04    74.64   100.48   111.92
          (Kelvin)            139.76   154.67   167.06   179.79   216.10
                              285.98   299.55   338.13   409.44   453.59
                              476.18   508.19   526.72   574.54   582.61
                              593.31   629.59   707.12   728.86   756.14
                              798.20   825.85   835.28   897.22   907.14
                              933.87   988.67  1043.54  1067.69  1107.62
                             1129.06  1150.97  1164.47  1206.93  1219.17
                             1294.87  1320.99  1341.83  1394.72  1403.49
                             1422.34  1470.46  1501.00  1547.27  1578.62
                             1590.33  1597.68  1620.96  1646.16  1673.08
                             1686.46  1694.13  1730.24  1744.08  1778.36
                             1789.43  1855.20  1877.20  1886.27  1951.53
                             1993.04  2004.20  2015.75  2027.49  2042.97
                             2117.77  2124.49  2150.84  2177.19  2181.82
                             2209.98  2214.47  2255.83  2345.07  2391.76
                             2441.30  2554.63  2609.41  4384.94  4455.67
                             4474.49  4507.72  4538.73  4546.37  4556.55
                             4581.42  4582.39  4646.59  4650.75  4655.35
                             4696.25  5104.81  5261.92  5330.46

 Zero-point correction=                           0.284400 (Hartree/Particle)
 Thermal correction to Energy=                    0.302723
 Thermal correction to Enthalpy=                  0.303667
 Thermal correction to Gibbs Free Energy=         0.236801
 Sum of electronic and zero-point Energies=           -915.178810
 Sum of electronic and thermal Energies=              -915.160487
 Sum of electronic and thermal Enthalpies=            -915.159543
 Sum of electronic and thermal Free Energies=         -915.226409

                     E (Thermal)             CV                S
                      KCal/Mol        Cal/Mol-Kelvin    Cal/Mol-Kelvin
 Total                  189.961             69.108            140.731
 Electronic               0.000              0.000              0.000
 Translational            0.889              2.981             42.613
 Rotational               0.889              2.981             33.638
 Vibrational            188.184             63.147             64.480
 Vibration     1          0.593              1.984              6.046
 Vibration     2          0.594              1.982              5.347
 Vibration     3          0.596              1.977              4.744
 Vibration     4          0.598              1.969              4.158
 Vibration     5          0.599              1.964              3.946
 Vibration     6          0.603              1.951              3.511
 Vibration     7          0.606              1.943              3.314
 Vibration     8          0.608              1.936              3.164
 Vibration     9          0.610              1.928              3.022
 Vibration    10          0.618              1.902              2.670
 Vibration    11          0.637              1.842              2.145
 Vibration    12          0.642              1.828              2.059
 Vibration    13          0.655              1.787              1.840
 Vibration    14          0.683              1.702              1.506
 Vibration    15          0.703              1.645              1.335
 Vibration    16          0.713              1.614              1.255
 Vibration    17          0.729              1.569              1.152
 Vibration    18          0.739              1.542              1.096
 Vibration    19          0.765              1.472              0.965
 Vibration    20          0.770              1.459              0.945
 Vibration    21          0.776              1.443              0.918
 Vibration    22          0.798              1.388              0.834
 Vibration    23          0.847              1.269              0.680
 Vibration    24          0.862              1.235              0.642
 Vibration    25          0.880              1.193              0.597
 Vibration    26          0.910              1.129              0.534
 Vibration    27          0.930              1.087              0.497
 Vibration    28          0.937              1.073              0.484

 Optimization completed.
    -- Stationary point found.
 Normal termination of Gaussian 16 at Sun Dec 13 13:14:33 2020.

 ----------------------------------------------------------------------
 # B3LYP/6-311++G(d,p) empiricaldispersion=gd3bj scf=xqc pop=npa geom=c
 heck
 ----------------------------------------------------------------------

 --------------------------------------
 CID_61489282_JID_9104_Energie_neutraal
 --------------------------------------
 Structure from the checkpoint file:  "JID_9104.chk"
 Charge =  0 Multiplicity = 1

 SCF Done:  E(RB3LYP) =  -915.734279077     A.U. after   16 cycles
 Normal termination of Gaussian 16 at Sun Dec 13 13:22:34 2020.

 ----------------------------------------------------------------------
 # B3LYP/6-311++G(d,p) empiricaldispersion=gd3bj scf=xqc pop=npa geom=c
 heck
 ----------------------------------------------------------------------

 ------------------------------------
 CID_61489282_JID_9104_Energie_kation
 ------------------------------------
 Structure from the checkpoint file:  "JID_9104.chk"
 Charge =  1 Multiplicity = 2

 SCF Done:  E(UB3LYP) =  -915.450022337     A.U. after   25 cycles
 Normal termination of Gaussian 16 at Sun Dec 13 13:40:33 2020.
 Gaussian 16:  ES64L-G16RevA.03 25-Dec-2016

 ----------------------------------------------------------------------
 # B3LYP/6-311++G(d,p) empiricaldispersion=gd3bj scf=xqc pop=npa geom=c
 heck
 ----------------------------------------------------------------------

 -----------------------------------
 CID_61489282_JID_9104_Energie_anion
 -----------------------------------
 Structure from the checkpoint file:  "JID_9104.chk"
 Charge = -1 Multiplicity = 2

                         Standard orientation:
 ---------------------------------------------------------------------
 Center     Atomic      Atomic             Coordinates (Angstroms)
 Number     Number       Type             X           Y           Z
 ---------------------------------------------------------------------
      1          6           0        3.633069    0.996138    1.536405
      2          7           0        2.941045    0.013182    0.699998
      3          6           0        3.785069   -0.741953   -0.199239
      4          6           0        3.371295   -1.012221   -1.623995
      5          6           0        4.450149   -0.005574   -1.335276
      6          6           0        1.766572   -0.503717    1.229887
      7          8           0        1.291401   -0.084461    2.275854
      8          6           0        0.998181   -1.523258    0.384959
      9          8           0        0.425945   -0.892216   -0.769229
     10          6           0       -0.692480   -0.102928   -0.529774
     11          6           0       -0.537212    1.300479   -0.558681
     12          6           0       -1.685924    2.093161   -0.376744
     13          6           0       -2.925257    1.511951   -0.165299
     14          6           0       -3.065955    0.117242   -0.135675
     15          6           0       -1.931327   -0.684539   -0.325938
     16          6           0       -4.406077   -0.451088    0.089722
     17          8           0       -5.426434    0.191936    0.254715
     18          8           0       -4.415030   -1.814321    0.100481
     19          7           0        0.699482    1.861841   -0.814048
     20          1           0        4.326654    1.562146    0.911763
     21          1           0        4.194692    0.513072    2.346831
     22          1           0        2.896679    1.662442    1.985220
     23          1           0        4.386201   -1.508714    0.292813
     24          1           0        3.654160   -1.973345   -2.043729
     25          1           0        2.401538   -0.648223   -1.941000
     26          1           0        4.194675    1.042705   -1.461980
     27          1           0        5.482601   -0.249529   -1.565713
     28          1           0        1.636876   -2.321223    0.003590
     29          1           0        0.216963   -1.942305    1.024229
     30          1           0       -1.586673    3.175369   -0.399999
     31          1           0       -3.807637    2.125010   -0.018352
     32          1           0       -2.014865   -1.765257   -0.319767
     33          1           0       -5.344730   -2.060855    0.256318
     34          1           0        0.812783    2.818048   -0.505383
     35          1           0        1.498711    1.275833   -0.603160
 ---------------------------------------------------------------------

 SCF Done:  E(UB3LYP) =  -915.734012145     A.U. after   33 cycles
 SCF Done:  E(UB3LYP) =  -915.734012145     a.u. after    1 cycles

 The electronic state is 2-A.
 Alpha  occ. eigenvalues --  -19.05699 -19.04810 -18.99738 -18.98720 -14.25377
 Alpha  occ. eigenvalues --  -14.21655 -10.17553 -10.17274 -10.13497 -10.12507
 Alpha  occ. eigenvalues --  -10.11714 -10.10484 -10.10288 -10.08824 -10.08596
 Alpha  occ. eigenvalues --  -10.06723 -10.06634 -10.06510 -10.06303  -0.99259
 Alpha  occ. eigenvalues --   -0.96615  -0.94383  -0.89854  -0.85182  -0.81994
 Alpha  occ. eigenvalues --   -0.75921  -0.73995  -0.66489  -0.64403  -0.62439
 Alpha  occ. eigenvalues --   -0.59012  -0.54704  -0.54320  -0.51925  -0.51472
 Alpha  occ. eigenvalues --   -0.48010  -0.45541  -0.43866  -0.42883  -0.41687
 Alpha  occ. eigenvalues --   -0.40793  -0.39865  -0.38920  -0.38043  -0.37255
 Alpha  occ. eigenvalues --   -0.35417  -0.35243  -0.34285  -0.33794  -0.33081
 Alpha  occ. eigenvalues --   -0.32870  -0.31340  -0.30405  -0.29925  -0.28750
 Alpha  occ. eigenvalues --   -0.28397  -0.27961  -0.27730  -0.26301  -0.24604
 Alpha  occ. eigenvalues --   -0.22956  -0.22122  -0.21878  -0.20883  -0.20202
 Alpha  occ. eigenvalues --   -0.16884  -0.16659  -0.15698  -0.14193  -0.10830
 Alpha  occ. eigenvalues --    0.03704
 Alpha virt. eigenvalues --    0.05163   0.06615   0.07365   0.07529   0.08029
 Alpha virt. eigenvalues --    0.08376   0.09068   0.09449   0.10242   0.10440
 Alpha virt. eigenvalues --    0.11138   0.11195   0.12242   0.12448   0.13201

  Beta  occ. eigenvalues --  -19.05666 -19.04799 -18.99653 -18.98576 -14.25395
  Beta  occ. eigenvalues --  -14.21599 -10.17381 -10.17213 -10.13493 -10.12477
  Beta  occ. eigenvalues --  -10.11777 -10.10260 -10.10259 -10.08801 -10.08590
  Beta  occ. eigenvalues --  -10.06686 -10.06625 -10.06419 -10.06261  -0.99092
  Beta  occ. eigenvalues --   -0.96574  -0.94271  -0.89639  -0.85152  -0.81810
  Beta  occ. eigenvalues --   -0.75893  -0.73850  -0.66414  -0.64198  -0.62296
  Beta  occ. eigenvalues --   -0.58928  -0.54362  -0.54238  -0.51868  -0.51399
  Beta  occ. eigenvalues --   -0.47893  -0.45468  -0.43797  -0.42825  -0.41574
  Beta  occ. eigenvalues --   -0.40720  -0.39797  -0.38813  -0.37937  -0.37115
  Beta  occ. eigenvalues --   -0.35375  -0.35160  -0.34223  -0.33124  -0.32993
  Beta  occ. eigenvalues --   -0.32798  -0.31286  -0.30296  -0.29867  -0.28535
  Beta  occ. eigenvalues --   -0.28271  -0.27691  -0.27617  -0.26068  -0.24529
  Beta  occ. eigenvalues --   -0.22890  -0.21840  -0.21631  -0.20493  -0.19917
  Beta  occ. eigenvalues --   -0.16781  -0.16530  -0.15541  -0.13925  -0.10284
  Beta virt. eigenvalues --    0.06187   0.07099   0.07351   0.07529   0.07952
  Beta virt. eigenvalues --    0.08217   0.08708   0.09289   0.09678   0.10358
  Beta virt. eigenvalues --    0.10655   0.11341   0.11426   0.12193   0.12515

 Mulliken charges and spin densities:
               1          2
     1  C    0.345734  -0.663839
     2  N    0.095966  -0.038321
     3  C   -0.590605   0.289414
     4  C    0.080052  -0.403682
     5  C    0.845706  -1.173111
     6  C   -0.382409   0.222173
     7  O   -0.237589   0.017741
     8  C   -0.077637  -0.184733
     9  O   -0.057181   0.004748
    10  C   -0.681044   0.031822
    11  C    0.303755   0.256288
    12  C   -0.431715  -0.053064
    13  C   -0.376452  -0.011131
    14  C    0.904592  -0.043985
    15  C   -0.514051   0.084019
    16  C    0.070023   0.101708
    17  O   -0.383896   0.051674
    18  O   -0.225545   0.007160
    19  N   -0.313581   0.029923
    20  H   -0.044638   0.177021
    21  H   -0.141707   0.323997
    22  H    0.006766   0.174690
    23  H   -0.801334   1.040240
    24  H    0.005631   0.153261
    25  H    0.204222   0.028893
    26  H    0.016303   0.122043
    27  H   -0.375951   0.550457
    28  H    0.144732   0.032656
    29  H    0.145014   0.057242
    30  H    0.099447   0.028505
    31  H    0.168740  -0.002864
    32  H    0.182713  -0.006869
    33  H    0.274284  -0.000291
    34  H    0.078636   0.144982
    35  H    0.663019  -0.348769
 Sum of Mulliken charges =  -1.00000   1.00000

 Dipole moment (field-independent basis, Debye):
    X=             -1.7628    Y=              0.2864    Z=             -1.7760  Tot=              2.5186
 Quadrupole moment (field-independent basis, Debye-Ang):
   XX=           -220.7100   YY=           -127.0325   ZZ=           -142.9561
   XY=             17.4729   XZ=             -1.6865   YZ=             -0.7456

 Summary of Natural Population Analysis:

                                       Natural Population
                Natural  -----------------------------------------------
    Atom  No    Charge         Core      Valence    Rydberg      Total
 -----------------------------------------------------------------------
      C    1   -0.17846      0.99963     2.17012    0.00871     3.17846
      N    2   -0.27515      0.99964     2.76234    0.01316     3.77515
      C    3   -0.01893      0.99955     2.00527    0.01411     3.01893
      C    4   -0.20339      0.99961     2.19385    0.00994     3.20339
      C    5   -0.19929      0.99961     2.18988    0.00980     3.19929
      C    6    0.33975      0.99965     1.63738    0.02322     2.66025
      O    7   -0.29868      0.99988     3.29353    0.00527     4.29868
      C    8   -0.04712      0.99952     2.03580    0.01180     3.04712
      O    9   -0.29374      0.99987     3.28466    0.00921     4.29374
      C   10    0.11138      0.99933     1.87493    0.01437     2.88862
      C   11    0.11406      0.99946     1.87520    0.01127     2.88594
      C   12   -0.13624      0.99947     2.12741    0.00936     3.13624
      C   13   -0.05472      0.99957     2.04692    0.00824     3.05472
      C   14   -0.09709      0.99946     2.08828    0.00936     3.09709
      C   15   -0.07128      0.99949     2.06421    0.00758     3.07128
      C   16    0.41452      0.99965     1.56166    0.02417     2.58548
      O   17   -0.31658      0.99987     3.30946    0.00724     4.31658
      O   18   -0.35355      0.99988     3.34791    0.00576     4.35355
      N   19   -0.38807      0.99970     2.87937    0.00900     3.88807
      H   20    0.09615      0.00000     0.40281    0.00104     0.40385
      H   21    0.09550      0.00000     0.40332    0.00118     0.40450
      H   22    0.10925      0.00000     0.38979    0.00097     0.39075
      H   23    0.10139      0.00000     0.39419    0.00442     0.39861
      H   24    0.10347      0.00000     0.39569    0.00084     0.39653
      H   25    0.11916      0.00000     0.37945    0.00140     0.38084
      H   26    0.10345      0.00000     0.39548    0.00108     0.39655
      H   27    0.10698      0.00000     0.39145    0.00157     0.39302
      H   28    0.09750      0.00000     0.40135    0.00115     0.40250
      H   29    0.09740      0.00000     0.40138    0.00122     0.40260
      H   30    0.09506      0.00000     0.40392    0.00102     0.40494
      H   31    0.10689      0.00000     0.39219    0.00091     0.39311
      H   32    0.10848      0.00000     0.39050    0.00103     0.39152
      H   33    0.23422      0.00000     0.26283    0.00295     0.26578
      H   34    0.18338      0.00000     0.31513    0.00149     0.31662
      H   35    0.19434      0.00000     0.30323    0.00243     0.30566
 =======================================================================
   * Total *    0.00000     18.99285    50.77089    0.23626    70.00000

 Normal termination of Gaussian 16 at Sun Dec 13 14:04:34 2020.
