 Gaussian 16, Revision A.03,

 -----------------------------------------------------------
 # opt freq B3LYP/6-31G(d) empiricaldispersion=gd3bj scf=xqc
 -----------------------------------------------------------

 ------------------------------
 CID_141600683_JID_238_neutraal
 ------------------------------
 Symbolic Z-matrix:
 Charge =  0 Multiplicity = 1

 SCF Done:  E(RB3LYP) =  -480.946360544     A.U. after   13 cycles
 SCF Done:  E(RB3LYP) =  -480.949044382     A.U. after   11 cycles
 SCF Done:  E(RB3LYP) =  -480.949457765     A.U. after   11 cycles
 SCF Done:  E(RB3LYP) =  -480.949517119     A.U. after   10 cycles
 SCF Done:  E(RB3LYP) =  -480.949523511     A.U. after    8 cycles
 SCF Done:  E(RB3LYP) =  -480.949524521     A.U. after    7 cycles
 SCF Done:  E(RB3LYP) =  -480.949524727     A.U. after    7 cycles
 Optimization completed.
    -- Stationary point found.
 Normal termination of Gaussian 16 at Tue Dec  8 10:20:12 2020.

 --------------------------------------------------------------------
 #N Geom=AllCheck Guess=TCheck SCRF=Check GenChk RB3LYP/6-31G(d) Freq
 --------------------------------------------------------------------

 Structure from the checkpoint file:  "JID_238.chk"
 ------------------------------
 CID_141600683_JID_238_neutraal
 ------------------------------
 Charge =  0 Multiplicity = 1

 SCF Done:  E(RB3LYP) =  -480.949524727     A.U. after    1 cycles

  Exact polarizability:  87.750  -1.953  89.530  -0.157   0.773  78.031
 Approx polarizability: 120.316  -0.367 120.350   4.044   2.512 115.155

                      1                      2                      3
                      A                      A                      A
 Frequencies --    123.7939               174.5550               216.2561
 Red. masses --      3.2116                 2.6244                 1.6126
 Frc consts  --      0.0290                 0.0471                 0.0444
 IR Inten    --      0.0919                 1.1346                 0.0432

                      4                      5                      6
                      A                      A                      A
 Frequencies --    238.2705               251.4689               273.4088
 Red. masses --      1.1217                 1.2946                 2.2714
 Frc consts  --      0.0375                 0.0482                 0.1000
 IR Inten    --      0.0521                 0.3293                 5.2130

                      7                      8                      9
                      A                      A                      A
 Frequencies --    288.7685               312.5805               315.8883
 Red. masses --      1.4710                 2.2667                 1.5324
 Frc consts  --      0.0723                 0.1305                 0.0901
 IR Inten    --      0.2940                60.5942                19.5413

                     10                     11                     12
                      A                      A                      A
 Frequencies --    332.9337               353.7243               412.3531
 Red. masses --      1.6963                 2.3146                 3.2044
 Frc consts  --      0.1108                 0.1706                 0.3210
 IR Inten    --     16.9607                 2.7922                 1.5882

                     13                     14                     15
                      A                      A                      A
 Frequencies --    428.8650               440.6234               501.1299
 Red. masses --      3.1653                 3.8903                 2.8716
 Frc consts  --      0.3430                 0.4450                 0.4249
 IR Inten    --      5.0546                 0.8294                 2.5824

                     16                     17                     18
                      A                      A                      A
 Frequencies --    534.8673               561.7328               669.5129
 Red. masses --      3.5529                 2.7246                 2.5604
 Frc consts  --      0.5989                 0.5065                 0.6762
 IR Inten    --     13.6738                 3.5930                16.2545

                     19                     20                     21
                      A                      A                      A
 Frequencies --    697.2143               816.7143               860.1510
 Red. masses --      3.7862                 2.0779                 2.6511
 Frc consts  --      1.0844                 0.8166                 1.1556
 IR Inten    --      3.8750                 7.2854                 2.2765

                     22                     23                     24
                      A                      A                      A
 Frequencies --    897.0929               948.2199               952.0557
 Red. masses --      2.0917                 1.9507                 1.7738
 Frc consts  --      0.9918                 1.0334                 0.9473
 IR Inten    --     22.2549                 9.5296                 4.8069

                     25                     26                     27
                      A                      A                      A
 Frequencies --    963.7237               990.6210              1017.5020
 Red. masses --      1.8161                 2.4450                 1.4294
 Frc consts  --      0.9938                 1.4137                 0.8719
 IR Inten    --      6.1927                19.7095                 6.9823

                     28                     29                     30
                      A                      A                      A
 Frequencies --   1061.4606              1075.0895              1127.4294
 Red. masses --      2.2282                 1.8019                 2.9404
 Frc consts  --      1.4792                 1.2271                 2.2021
 IR Inten    --      9.5537                20.9232                40.4296

                     31                     32                     33
                      A                      A                      A
 Frequencies --   1135.5387              1167.3124              1175.6733
 Red. masses --      2.0690                 2.5940                 3.3642
 Frc consts  --      1.5719                 2.0825                 2.7397
 IR Inten    --      0.9201                61.2565                44.9343

                     34                     35                     36
                      A                      A                      A
 Frequencies --   1222.2252              1245.4129              1260.7295
 Red. masses --      2.4270                 2.6220                 1.5105
 Frc consts  --      2.1361                 2.3961                 1.4145
 IR Inten    --      3.7265                 8.6066                14.5284

                     37                     38                     39
                      A                      A                      A
 Frequencies --   1283.3874              1316.9843              1366.2147
 Red. masses --      1.9787                 1.2479                 1.3152
 Frc consts  --      1.9202                 1.2752                 1.4463
 IR Inten    --      4.8300                10.0819                21.5317

                     40                     41                     42
                      A                      A                      A
 Frequencies --   1382.0641              1388.7904              1404.1518
 Red. masses --      1.3897                 1.2468                 1.3273
 Frc consts  --      1.5640                 1.4168                 1.5418
 IR Inten    --     21.5966                 2.5519                 3.5608

                     43                     44                     45
                      A                      A                      A
 Frequencies --   1417.7790              1427.1763              1431.7242
 Red. masses --      1.2640                 1.2682                 1.3574
 Frc consts  --      1.4970                 1.5219                 1.6394
 IR Inten    --     13.2882                21.5313                11.9217

                     46                     47                     48
                      A                      A                      A
 Frequencies --   1438.7194              1511.3863              1517.8266
 Red. masses --      1.2367                 1.0484                 1.0607
 Frc consts  --      1.5082                 1.4111                 1.4398
 IR Inten    --     11.4168                 1.4871                 4.5122

                     49                     50                     51
                      A                      A                      A
 Frequencies --   1525.4277              1527.2640              1531.8206
 Red. masses --      1.0610                 1.0575                 1.0638
 Frc consts  --      1.4546                 1.4533                 1.4707
 IR Inten    --      2.6529                 2.2042                 5.0894

                     52                     53                     54
                      A                      A                      A
 Frequencies --   1542.4210              1547.3893              1556.1014
 Red. masses --      1.0650                 1.0604                 1.0625
 Frc consts  --      1.4929                 1.4959                 1.5158
 IR Inten    --      1.8936                 0.9568                 2.2433

                     55                     56                     57
                      A                      A                      A
 Frequencies --   3022.3509              3031.2762              3058.9293
 Red. masses --      1.0708                 1.0641                 1.0370
 Frc consts  --      5.7630                 5.7607                 5.7172
 IR Inten    --     29.6665                52.8084                13.8556

                     58                     59                     60
                      A                      A                      A
 Frequencies --   3064.8953              3067.7548              3073.4615
 Red. masses --      1.0467                 1.0406                 1.0728
 Frc consts  --      5.7931                 5.7702                 5.9707
 IR Inten    --      7.3472                23.6441                35.9374

                     61                     62                     63
                      A                      A                      A
 Frequencies --   3095.6145              3114.7183              3127.7374
 Red. masses --      1.0962                 1.0969                 1.0996
 Frc consts  --      6.1890                 6.2695                 6.3381
 IR Inten    --     41.5163                38.7565                12.2769

                     64                     65                     66
                      A                      A                      A
 Frequencies --   3132.5954              3134.8766              3145.0255
 Red. masses --      1.0981                 1.1023                 1.1025
 Frc consts  --      6.3489                 6.3824                 6.4251
 IR Inten    --     29.8653                25.1402                16.7743

                     67                     68                     69
                      A                      A                      A
 Frequencies --   3149.0206              3157.8333              3745.9858
 Red. masses --      1.1023                 1.1033                 1.0683
 Frc consts  --      6.4405                 6.4819                 8.8319
 IR Inten    --     24.8197                14.5452                30.2494

 - Thermochemistry -
 -------------------
 Temperature   298.150 Kelvin.  Pressure   1.00000 Atm.
 Atom     1 has atomic number  6 and mass  12.00000

 Molecular mass:   145.11028 amu.
 Principal axes and moments of inertia in atomic units:
                           1         2         3
     Eigenvalues --  1078.908771315.149911683.22702
           X            0.99699  -0.06397  -0.04374
           Y            0.06305   0.99777  -0.02211
           Z            0.04506   0.01929   0.99880
 This molecule is an asymmetric top.
 Rotational symmetry number  1.
 Warning -- assumption of classical behavior for rotation
           may cause significant error
 Rotational temperatures (Kelvin)      0.08028     0.06586     0.05146
 Rotational constants (GHZ):           1.67275     1.37227     1.07219
 Zero-point vibrational energy     587866.5 (Joules/Mol)
                                  140.50346 (Kcal/Mol)
 Warning -- explicit consideration of  17 degrees of freedom as
           vibrations may cause significant error
 Vibrational temperatures:    178.11   251.15   311.14   342.82   361.81
          (Kelvin)            393.37   415.47   449.73   454.49   479.02
                              508.93   593.28   617.04   633.96   721.01
                              769.55   808.21   963.28  1003.14  1175.07
                             1237.57  1290.72  1364.28  1369.80  1386.58
                             1425.28  1463.96  1527.21  1546.81  1622.12
                             1633.79  1679.50  1691.53  1758.51  1791.87
                             1813.91  1846.51  1894.85  1965.68  1988.48
                             1998.16  2020.26  2039.87  2053.39  2059.93
                             2070.00  2174.55  2183.81  2194.75  2197.39
                             2203.95  2219.20  2226.35  2238.88  4348.49
                             4361.33  4401.12  4409.70  4413.81  4422.03
                             4453.90  4481.38  4500.12  4507.11  4510.39
                             4524.99  4530.74  4543.42  5389.64

 Zero-point correction=                           0.223907 (Hartree/Particle)
 Thermal correction to Energy=                    0.234373
 Thermal correction to Enthalpy=                  0.235317
 Thermal correction to Gibbs Free Energy=         0.189739
 Sum of electronic and zero-point Energies=           -480.725618
 Sum of electronic and thermal Energies=              -480.715152
 Sum of electronic and thermal Enthalpies=            -480.714208
 Sum of electronic and thermal Free Energies=         -480.759786

                     E (Thermal)             CV                S
                      KCal/Mol        Cal/Mol-Kelvin    Cal/Mol-Kelvin
 Total                  147.071             41.992             95.927
 Electronic               0.000              0.000              0.000
 Translational            0.889              2.981             40.828
 Rotational               0.889              2.981             29.259
 Vibrational            145.294             36.030             25.841
 Vibration     1          0.610              1.929              3.040
 Vibration     2          0.627              1.874              2.386
 Vibration     3          0.645              1.816              1.990
 Vibration     4          0.656              1.782              1.816
 Vibration     5          0.663              1.760              1.720
 Vibration     6          0.676              1.722              1.575
 Vibration     7          0.685              1.695              1.481
 Vibration     8          0.701              1.650              1.349
 Vibration     9          0.703              1.643              1.331
 Vibration    10          0.715              1.610              1.246
 Vibration    11          0.730              1.568              1.150
 Vibration    12          0.776              1.443              0.918
 Vibration    13          0.790              1.407              0.862
 Vibration    14          0.801              1.382              0.825
 Vibration    15          0.857              1.248              0.655
 Vibration    16          0.890              1.173              0.576
 Vibration    17          0.917              1.114              0.520

 Optimization completed.
    -- Stationary point found.
 Normal termination of Gaussian 16 at Tue Dec  8 10:25:49 2020.

 ----------------------------------------------------------------------
 # B3LYP/6-311++G(d,p) empiricaldispersion=gd3bj scf=xqc pop=npa geom=c
 heck
 ----------------------------------------------------------------------

 --------------------------------------
 CID_141600683_JID_238_Energie_neutraal
 --------------------------------------
 Structure from the checkpoint file:  "JID_238.chk"
 Charge =  0 Multiplicity = 1

 SCF Done:  E(RB3LYP) =  -481.096517904     A.U. after   13 cycles
 Normal termination of Gaussian 16 at Tue Dec  8 10:28:02 2020.

 ----------------------------------------------------------------------
 # B3LYP/6-311++G(d,p) empiricaldispersion=gd3bj scf=xqc pop=npa geom=c
 heck
 ----------------------------------------------------------------------

 ------------------------------------
 CID_141600683_JID_238_Energie_kation
 ------------------------------------
 Structure from the checkpoint file:  "JID_238.chk"
 Charge =  1 Multiplicity = 2

 SCF Done:  E(UB3LYP) =  -480.781922368     A.U. after   22 cycles
 Normal termination of Gaussian 16 at Tue Dec  8 10:35:51 2020.
 Gaussian 16:  ES64L-G16RevA.03 25-Dec-2016

 ----------------------------------------------------------------------
 # B3LYP/6-311++G(d,p) empiricaldispersion=gd3bj scf=xqc pop=npa geom=c
 heck
 ----------------------------------------------------------------------

 -----------------------------------
 CID_141600683_JID_238_Energie_anion
 -----------------------------------
 Structure from the checkpoint file:  "JID_238.chk"
 Charge = -1 Multiplicity = 2

                         Standard orientation:
 ---------------------------------------------------------------------
 Center     Atomic      Atomic             Coordinates (Angstroms)
 Number     Number       Type             X           Y           Z
 ---------------------------------------------------------------------
      1          6           0        1.544508    1.461052   -0.995881
      2          6           0        0.978689    0.894741    0.310347
      3          6           0       -0.537577    0.550163    0.270480
      4          7           0       -0.662194   -0.614492   -0.647099
      5          6           0        0.097391   -1.774958   -0.184253
      6          6           0        1.566288   -1.376064   -0.068679
      7          8           0        1.729715   -0.237784    0.764316
      8          8           0       -2.050894   -1.028607   -0.665782
      9          6           0       -1.034174    0.258438    1.698921
     10          6           0       -1.345693    1.708453   -0.324763
     11          1           0        1.257993    0.858274   -1.861333
     12          1           0        2.636443    1.492995   -0.928500
     13          1           0        1.184108    2.480467   -1.162273
     14          1           0        1.119473    1.636954    1.103787
     15          1           0       -0.018546   -2.571047   -0.927254
     16          1           0       -0.276264   -2.154134    0.778002
     17          1           0        1.982788   -1.192731   -1.069450
     18          1           0        2.142001   -2.180671    0.397529
     19          1           0       -2.300969   -0.856791   -1.586873
     20          1           0       -1.097762    1.192494    2.268043
     21          1           0       -2.029779   -0.191693    1.666058
     22          1           0       -0.355038   -0.409703    2.233258
     23          1           0       -1.118451    1.844545   -1.385991
     24          1           0       -2.415851    1.510080   -0.223152
     25          1           0       -1.121949    2.642592    0.202542
 ---------------------------------------------------------------------

 SCF Done:  E(UB3LYP) =  -481.078216282     A.U. after   29 cycles

 The electronic state is 2-A.
 Alpha  occ. eigenvalues --  -19.03458 -19.01711 -14.24364 -10.11515 -10.10975
 Alpha  occ. eigenvalues --  -10.10068 -10.08388 -10.04789 -10.04647 -10.04639
 Alpha  occ. eigenvalues --   -0.95227  -0.93055  -0.75816  -0.69570  -0.62746
 Alpha  occ. eigenvalues --   -0.59899  -0.58001  -0.52856  -0.50586  -0.42847
 Alpha  occ. eigenvalues --   -0.41234  -0.38642  -0.36292  -0.36161  -0.34237
 Alpha  occ. eigenvalues --   -0.33207  -0.31331  -0.30454  -0.29116  -0.28155
 Alpha  occ. eigenvalues --   -0.27585  -0.26851  -0.26029  -0.25474  -0.24089
 Alpha  occ. eigenvalues --   -0.23134  -0.19364  -0.18284  -0.15485  -0.12459
 Alpha  occ. eigenvalues --    0.05032
 Alpha virt. eigenvalues --    0.07383   0.07638   0.08254   0.10049   0.10300
 Alpha virt. eigenvalues --    0.10581   0.10726   0.11691   0.13282   0.13448
 Alpha virt. eigenvalues --    0.13469   0.14072   0.14892   0.15422   0.16601

  Beta  occ. eigenvalues --  -19.03422 -19.01712 -14.24349 -10.11505 -10.10953
  Beta  occ. eigenvalues --  -10.10066 -10.08368 -10.04757 -10.04630 -10.04602
  Beta  occ. eigenvalues --   -0.95175  -0.93037  -0.75766  -0.69540  -0.62709
  Beta  occ. eigenvalues --   -0.59846  -0.57954  -0.52795  -0.50527  -0.42776
  Beta  occ. eigenvalues --   -0.41183  -0.38624  -0.36237  -0.36121  -0.34190
  Beta  occ. eigenvalues --   -0.33174  -0.31290  -0.30419  -0.29088  -0.28122
  Beta  occ. eigenvalues --   -0.27553  -0.26818  -0.25987  -0.25441  -0.24045
  Beta  occ. eigenvalues --   -0.23103  -0.19340  -0.18246  -0.15469  -0.12410
  Beta virt. eigenvalues --    0.07468   0.08397   0.08704   0.08853   0.10664
  Beta virt. eigenvalues --    0.10989   0.11034   0.11311   0.12192   0.13771
  Beta virt. eigenvalues --    0.13821   0.14042   0.14504   0.15305   0.15684

 Mulliken charges and spin densities:
               1          2
     1  C    1.345985  -1.862708
     2  C   -1.798589   1.518833
     3  C   -0.567910   0.556966
     4  N   -0.172128   0.128696
     5  C    0.376640  -0.504098
     6  C    0.473755  -0.810783
     7  O   -0.075153   0.008741
     8  O   -0.103253  -0.039747
     9  C    0.323909  -0.711187
    10  C    1.651266  -2.330619
    11  H   -0.273803   0.464351
    12  H   -0.234566   0.391307
    13  H   -0.112294   0.262217
    14  H   -0.229035   0.440309
    15  H   -0.672642   0.843617
    16  H    0.213602  -0.060014
    17  H    0.053055   0.097125
    18  H   -0.375576   0.546904
    19  H   -0.105905   0.391802
    20  H   -0.014867   0.158810
    21  H    0.088528   0.078135
    22  H   -0.027035   0.184013
    23  H   -0.421088   0.590548
    24  H   -0.083266   0.252164
    25  H   -0.259629   0.404619
 Sum of Mulliken charges =  -1.00000   1.00000

 Dipole moment (field-independent basis, Debye):
    X=              0.5079    Y=             -0.6912    Z=              3.4604  Tot=              3.5651
 Quadrupole moment (field-independent basis, Debye-Ang):
   XX=           -104.5742   YY=           -109.0197   ZZ=           -100.4484
   XY=              0.6751   XZ=             -3.2636   YZ=             -0.8112

 Summary of Natural Population Analysis:

                                       Natural Population
                Natural  -----------------------------------------------
    Atom  No    Charge         Core      Valence    Rydberg      Total
 -----------------------------------------------------------------------
      C    1   -0.30412      0.99964     2.29848    0.00601     3.30412
      C    2    0.06696      0.99947     1.91695    0.01662     2.93304
      C    3    0.05289      0.99954     1.93023    0.01735     2.94711
      N    4   -0.13851      0.99964     2.62179    0.01708     3.63851
      C    5   -0.10120      0.99960     2.08918    0.01242     3.10120
      C    6   -0.01524      0.99956     2.00248    0.01321     3.01524
      O    7   -0.30494      0.99989     3.29563    0.00942     4.30494
      O    8   -0.30339      0.99991     3.29584    0.00764     4.30339
      C    9   -0.30107      0.99960     2.29543    0.00604     3.30107
      C   10   -0.29200      0.99961     2.28424    0.00815     3.29200
      H   11    0.10602      0.00000     0.39187    0.00211     0.39398
      H   12    0.10296      0.00000     0.39594    0.00110     0.39704
      H   13    0.10522      0.00000     0.39356    0.00122     0.39478
      H   14    0.09307      0.00000     0.40536    0.00157     0.40693
      H   15    0.10378      0.00000     0.39425    0.00197     0.39622
      H   16    0.08719      0.00000     0.41130    0.00152     0.41281
      H   17    0.08340      0.00000     0.41489    0.00172     0.41660
      H   18    0.09208      0.00000     0.40666    0.00126     0.40792
      H   19    0.23836      0.00000     0.25464    0.00699     0.26164
      H   20    0.10049      0.00000     0.39853    0.00097     0.39951
      H   21    0.10901      0.00000     0.38992    0.00108     0.39099
      H   22    0.10448      0.00000     0.39427    0.00126     0.39552
      H   23    0.10743      0.00000     0.39036    0.00221     0.39257
      H   24    0.10698      0.00000     0.39168    0.00134     0.39302
      H   25    0.10015      0.00000     0.39849    0.00136     0.39985
 =======================================================================
   * Total *    0.00000      9.99644    29.86195    0.14161    40.00000

 Normal termination of Gaussian 16 at Tue Dec  8 10:49:39 2020.
