 Gaussian 16, Revision A.03,

 -----------------------------------------------------------
 # opt freq B3LYP/6-31G(d) empiricaldispersion=gd3bj scf=xqc
 -----------------------------------------------------------

 ------------------------------
 CID_64534607_JID_5305_neutraal
 ------------------------------
 Symbolic Z-matrix:
 Charge =  0 Multiplicity = 1

 SCF Done:  E(RB3LYP) =  -998.117238179     A.U. after   15 cycles
 SCF Done:  E(RB3LYP) =  -998.121570018     A.U. after   12 cycles
 SCF Done:  E(RB3LYP) =  -998.122102661     A.U. after   12 cycles
 SCF Done:  E(RB3LYP) =  -998.122343123     A.U. after   11 cycles
 SCF Done:  E(RB3LYP) =  -998.122359919     A.U. after   11 cycles
 SCF Done:  E(RB3LYP) =  -998.122387795     A.U. after   10 cycles
 SCF Done:  E(RB3LYP) =  -998.122391287     A.U. after    9 cycles
 SCF Done:  E(RB3LYP) =  -998.122393690     A.U. after    9 cycles
 SCF Done:  E(RB3LYP) =  -998.122396145     A.U. after   10 cycles
 SCF Done:  E(RB3LYP) =  -998.122398855     A.U. after   11 cycles
 SCF Done:  E(RB3LYP) =  -998.122450115     A.U. after    9 cycles
 SCF Done:  E(RB3LYP) =  -998.122453771     A.U. after    9 cycles
 SCF Done:  E(RB3LYP) =  -998.122453939     A.U. after    8 cycles
 SCF Done:  E(RB3LYP) =  -998.122453989     A.U. after    8 cycles
 SCF Done:  E(RB3LYP) =  -998.122454015     A.U. after    6 cycles
 Optimization completed.
    -- Stationary point found.
 Normal termination of Gaussian 16 at Thu Dec 10 15:47:41 2020.

 --------------------------------------------------------------------
 #N Geom=AllCheck Guess=TCheck SCRF=Check GenChk RB3LYP/6-31G(d) Freq
 --------------------------------------------------------------------

 Structure from the checkpoint file:  "JID_5305.chk"
 ------------------------------
 CID_64534607_JID_5305_neutraal
 ------------------------------
 Charge =  0 Multiplicity = 1

 SCF Done:  E(RB3LYP) =  -998.122454015     A.U. after    1 cycles

  Exact polarizability: 151.744   3.111 163.434 -14.933   1.835 130.107
 Approx polarizability: 191.975   8.219 237.551 -34.318   2.399 225.720

                      1                      2                      3
                      A                      A                      A
 Frequencies --     20.7557                25.8639                43.0262
 Red. masses --      5.6400                 2.9979                 3.4393
 Frc consts  --      0.0014                 0.0012                 0.0038
 IR Inten    --      0.3128                 0.0879                 0.1582

                      4                      5                      6
                      A                      A                      A
 Frequencies --     60.5474                62.2082                81.0668
 Red. masses --      2.5988                 2.5971                 3.5984
 Frc consts  --      0.0056                 0.0059                 0.0139
 IR Inten    --      0.0415                 0.2522                 1.0668

                      7                      8                      9
                      A                      A                      A
 Frequencies --    100.2653               117.7187               149.9132
 Red. masses --      3.0200                 3.5907                 2.4105
 Frc consts  --      0.0179                 0.0293                 0.0319
 IR Inten    --      0.1571                 2.7226                 0.1003

                     10                     11                     12
                      A                      A                      A
 Frequencies --    206.7131               218.8515               234.5799
 Red. masses --      2.1888                 1.7388                 1.6559
 Frc consts  --      0.0551                 0.0491                 0.0537
 IR Inten    --      0.8886                 0.8308                 0.5192

                     13                     14                     15
                      A                      A                      A
 Frequencies --    247.7222               260.2500               276.3868
 Red. masses --      1.1509                 2.8904                 1.7913
 Frc consts  --      0.0416                 0.1153                 0.0806
 IR Inten    --      0.4757                 2.4483                 0.5809

                     16                     17                     18
                      A                      A                      A
 Frequencies --    287.7537               318.1111               349.3008
 Red. masses --      2.4674                 2.3964                 2.7849
 Frc consts  --      0.1204                 0.1429                 0.2002
 IR Inten    --      0.1625                 2.2573                 0.8178

                     19                     20                     21
                      A                      A                      A
 Frequencies --    391.1213               438.9254               454.6183
 Red. masses --      2.7913                 3.2128                 3.6382
 Frc consts  --      0.2516                 0.3647                 0.4430
 IR Inten    --      0.4099                 3.2354                15.4836

                     22                     23                     24
                      A                      A                      A
 Frequencies --    499.7089               531.8178               574.6031
 Red. masses --      3.3331                 3.4438                 3.3206
 Frc consts  --      0.4904                 0.5739                 0.6459
 IR Inten    --      2.5739                 3.5054                 2.8471

                     25                     26                     27
                      A                      A                      A
 Frequencies --    608.3559               636.2125               698.7324
 Red. masses --      5.7976                 3.0585                 1.1883
 Frc consts  --      1.2642                 0.7294                 0.3418
 IR Inten    --      1.4890                 5.9386                65.8764

                     28                     29                     30
                      A                      A                      A
 Frequencies --    744.2389               751.6547               781.7707
 Red. masses --      2.5882                 3.3685                 1.3161
 Frc consts  --      0.8446                 1.1213                 0.4739
 IR Inten    --     21.0343                17.0040                 3.9813

                     31                     32                     33
                      A                      A                      A
 Frequencies --    805.2429               820.7779               836.3006
 Red. masses --      1.2921                 1.5013                 2.1416
 Frc consts  --      0.4936                 0.5959                 0.8825
 IR Inten    --      2.9303                 6.7780                34.2340

                     34                     35                     36
                      A                      A                      A
 Frequencies --    837.2774               863.7351               892.2565
 Red. masses --      1.7446                 3.7025                 2.4718
 Frc consts  --      0.7206                 1.6274                 1.1594
 IR Inten    --     38.1624                 6.2289                10.3224

                     37                     38                     39
                      A                      A                      A
 Frequencies --    902.8742               917.1153               928.1950
 Red. masses --      1.3300                 1.8263                 1.4012
 Frc consts  --      0.6388                 0.9050                 0.7113
 IR Inten    --      0.9088                 1.7015                13.7847

                     40                     41                     42
                      A                      A                      A
 Frequencies --    961.2972              1011.0559              1047.6271
 Red. masses --      2.0026                 1.6085                 2.4668
 Frc consts  --      1.0903                 0.9688                 1.5951
 IR Inten    --     10.6169                 5.3586                29.2827

                     43                     44                     45
                      A                      A                      A
 Frequencies --   1060.2415              1077.8372              1102.8057
 Red. masses --      2.0323                 2.4642                 1.6605
 Frc consts  --      1.3460                 1.6867                 1.1898
 IR Inten    --      0.1287                 5.9167                 6.4398

                     46                     47                     48
                      A                      A                      A
 Frequencies --   1115.1203              1117.5548              1128.8349
 Red. masses --      1.7489                 2.6264                 1.8420
 Frc consts  --      1.2813                 1.9326                 1.3829
 IR Inten    --      6.9315                36.5319                 8.7381

                     49                     50                     51
                      A                      A                      A
 Frequencies --   1134.4324              1155.0700              1169.7810
 Red. masses --      2.0144                 2.5842                 2.1043
 Frc consts  --      1.5274                 2.0314                 1.6965
 IR Inten    --     12.8188                56.5246                57.8773

                     52                     53                     54
                      A                      A                      A
 Frequencies --   1173.9760              1203.9704              1220.7060
 Red. masses --      2.0373                 2.7431                 2.1345
 Frc consts  --      1.6543                 2.3427                 1.8740
 IR Inten    --     28.8916                27.4109                71.1239

                     55                     56                     57
                      A                      A                      A
 Frequencies --   1263.8709              1276.9025              1306.9595
 Red. masses --      1.4755                 1.3219                 1.2449
 Frc consts  --      1.3887                 1.2699                 1.2528
 IR Inten    --     20.6599                11.4022                 0.3311

                     58                     59                     60
                      A                      A                      A
 Frequencies --   1331.0627              1342.6158              1367.6932
 Red. masses --      1.2994                 1.1450                 1.3688
 Frc consts  --      1.3564                 1.2160                 1.5086
 IR Inten    --      4.2864                 8.9255                 6.2120

                     61                     62                     63
                      A                      A                      A
 Frequencies --   1382.9199              1393.9096              1405.6099
 Red. masses --      1.3954                 1.3885                 1.2153
 Frc consts  --      1.5723                 1.5895                 1.4146
 IR Inten    --      1.5179                 5.8953                 8.4530

                     64                     65                     66
                      A                      A                      A
 Frequencies --   1411.0942              1421.8560              1423.1600
 Red. masses --      1.6516                 1.2434                 1.3213
 Frc consts  --      1.9377                 1.4811                 1.5767
 IR Inten    --      2.3958                 1.5391                12.4270

                     67                     68                     69
                      A                      A                      A
 Frequencies --   1430.0163              1442.7678              1445.0718
 Red. masses --      1.3580                 1.3069                 1.2730
 Frc consts  --      1.6362                 1.6028                 1.5662
 IR Inten    --      2.4945                17.4209                13.6328

                     70                     71                     72
                      A                      A                      A
 Frequencies --   1495.5927              1509.4892              1512.4934
 Red. masses --      5.9748                 1.1007                 1.0498
 Frc consts  --      7.8740                 1.4777                 1.4150
 IR Inten    --      5.6759                 3.0276                 6.0821

                     73                     74                     75
                      A                      A                      A
 Frequencies --   1515.9956              1519.2530              1524.2111
 Red. masses --      1.1561                 1.0501                 1.0495
 Frc consts  --      1.5655                 1.4281                 1.4365
 IR Inten    --     26.3287                 4.0429                 2.6741

                     76                     77                     78
                      A                      A                      A
 Frequencies --   1530.8147              1535.4115              1542.0418
 Red. masses --      1.0729                 1.0482                 1.0799
 Frc consts  --      1.4813                 1.4559                 1.5129
 IR Inten    --     20.2883                 1.4845                 6.4201

                     79                     80                     81
                      A                      A                      A
 Frequencies --   1547.4008              1548.2910              1599.6960
 Red. masses --      1.0723                 1.0753                 4.9194
 Frc consts  --      1.5128                 1.5188                 7.4171
 IR Inten    --      6.2373                 2.0511                 0.9065

                     82                     83                     84
                      A                      A                      A
 Frequencies --   2969.4921              3030.8315              3042.0568
 Red. masses --      1.0712                 1.0745                 1.0526
 Frc consts  --      5.5652                 5.8155                 5.7390
 IR Inten    --     44.4705                16.3554                24.0405

                     85                     86                     87
                      A                      A                      A
 Frequencies --   3042.2110              3044.3859              3050.5790
 Red. masses --      1.0591                 1.0584                 1.0795
 Frc consts  --      5.7752                 5.7799                 5.9191
 IR Inten    --     10.7415                25.1298                30.2226

                     88                     89                     90
                      A                      A                      A
 Frequencies --   3052.8937              3060.8653              3062.8218
 Red. masses --      1.0379                 1.0437                 1.0831
 Frc consts  --      5.6993                 5.7610                 5.9864
 IR Inten    --     14.4025                19.7620                65.8711

                     91                     92                     93
                      A                      A                      A
 Frequencies --   3079.9832              3080.7498              3108.7278
 Red. masses --      1.1043                 1.1024                 1.1033
 Frc consts  --      6.1721                 6.1648                 6.2820
 IR Inten    --     24.3508                 7.6755                62.6005

                     94                     95                     96
                      A                      A                      A
 Frequencies --   3115.3681              3121.2323              3125.8141
 Red. masses --      1.1007                 1.1002                 1.1006
 Frc consts  --      6.2944                 6.3149                 6.3360
 IR Inten    --     46.3491                24.3012                37.5149

                     97                     98                     99
                      A                      A                      A
 Frequencies --   3136.7499              3158.4608              3201.9931
 Red. masses --      1.1039                 1.1007                 1.0896
 Frc consts  --      6.3993                 6.4695                 6.5818
 IR Inten    --     38.4832                13.8101                10.8043

                    100                    101                    102
                      A                      A                      A
 Frequencies --   3223.8908              3271.3726              3485.8534
 Red. masses --      1.0936                 1.0969                 1.0725
 Frc consts  --      6.6968                 6.9164                 7.6785
 IR Inten    --      9.7352                 1.7693                 0.8850

 - Thermochemistry -
 -------------------
 Temperature   298.150 Kelvin.  Pressure   1.00000 Atm.
 Atom     1 has atomic number  6 and mass  12.00000

 Molecular mass:   227.13439 amu.
 Principal axes and moments of inertia in atomic units:
                           1         2         3
     Eigenvalues --  3124.225234549.382206686.68442
           X            0.99983  -0.01707  -0.00674
           Y            0.01714   0.99979   0.01084
           Z            0.00656  -0.01095   0.99992
 This molecule is an asymmetric top.
 Rotational symmetry number  1.
 Warning -- assumption of classical behavior for rotation
           may cause significant error
 Rotational temperatures (Kelvin)      0.02772     0.01904     0.01295
 Rotational constants (GHZ):           0.57766     0.39670     0.26990
 Zero-point vibrational energy     832298.3 (Joules/Mol)
                                  198.92407 (Kcal/Mol)
 Warning -- explicit consideration of  25 degrees of freedom as
           vibrations may cause significant error
 Vibrational temperatures:     29.86    37.21    61.91    87.11    89.50
          (Kelvin)            116.64   144.26   169.37   215.69   297.41
                              314.88   337.51   356.42   374.44   397.66
                              414.01   457.69   502.57   562.74   631.52
                              654.09   718.97   765.17   826.73   875.29
                              915.37  1005.32  1070.79  1081.46  1124.79
                             1158.56  1180.92  1203.25  1204.66  1242.72
                             1283.76  1299.03  1319.52  1335.47  1383.09
                             1454.68  1507.30  1525.45  1550.77  1586.69
                             1604.41  1607.91  1624.14  1632.20  1661.89
                             1683.05  1689.09  1732.24  1756.32  1818.43
                             1837.18  1880.42  1915.10  1931.72  1967.81
                             1989.71  2005.53  2022.36  2030.25  2045.73
                             2047.61  2057.47  2075.82  2079.14  2151.82
                             2171.82  2176.14  2181.18  2185.87  2193.00
                             2202.50  2209.11  2218.65  2226.36  2227.65
                             2301.61  4272.44  4360.69  4376.84  4377.06
                             4380.19  4389.10  4392.43  4403.90  4406.72
                             4431.41  4432.51  4472.77  4482.32  4490.76
                             4497.35  4513.08  4544.32  4606.95  4638.46
                             4706.78  5015.37

 Zero-point correction=                           0.317006 (Hartree/Particle)
 Thermal correction to Energy=                    0.334383
 Thermal correction to Enthalpy=                  0.335327
 Thermal correction to Gibbs Free Energy=         0.269439
 Sum of electronic and zero-point Energies=           -997.805448
 Sum of electronic and thermal Energies=              -997.788071
 Sum of electronic and thermal Enthalpies=            -997.787127
 Sum of electronic and thermal Free Energies=         -997.853015

                     E (Thermal)             CV                S
                      KCal/Mol        Cal/Mol-Kelvin    Cal/Mol-Kelvin
 Total                  209.829             63.511            138.674
 Electronic               0.000              0.000              0.000
 Translational            0.889              2.981             42.163
 Rotational               0.889              2.981             32.919
 Vibrational            208.051             57.549             63.592
 Vibration     1          0.593              1.986              6.561
 Vibration     2          0.593              1.985              6.124
 Vibration     3          0.595              1.980              5.115
 Vibration     4          0.597              1.973              4.439
 Vibration     5          0.597              1.972              4.386
 Vibration     6          0.600              1.962              3.865
 Vibration     7          0.604              1.949              3.449
 Vibration     8          0.608              1.935              3.137
 Vibration     9          0.618              1.903              2.673
 Vibration    10          0.641              1.830              2.073
 Vibration    11          0.647              1.812              1.969
 Vibration    12          0.654              1.788              1.844
 Vibration    13          0.661              1.767              1.747
 Vibration    14          0.668              1.745              1.660
 Vibration    15          0.678              1.717              1.556
 Vibration    16          0.685              1.696              1.487
 Vibration    17          0.705              1.639              1.320
 Vibration    18          0.727              1.577              1.169
 Vibration    19          0.759              1.489              0.996
 Vibration    20          0.799              1.385              0.830
 Vibration    21          0.813              1.351              0.782
 Vibration    22          0.855              1.251              0.659
 Vibration    23          0.887              1.180              0.583
 Vibration    24          0.931              1.086              0.495
 Vibration    25          0.967              1.014              0.436

 Optimization completed.
    -- Stationary point found.
 Normal termination of Gaussian 16 at Thu Dec 10 15:59:56 2020.

 ----------------------------------------------------------------------
 # B3LYP/6-311++G(d,p) empiricaldispersion=gd3bj scf=xqc pop=npa geom=c
 heck
 ----------------------------------------------------------------------

 --------------------------------------
 CID_64534607_JID_5305_Energie_neutraal
 --------------------------------------
 Structure from the checkpoint file:  "JID_5305.chk"
 Charge =  0 Multiplicity = 1

 SCF Done:  E(RB3LYP) =  -998.320487857     A.U. after   16 cycles
 Normal termination of Gaussian 16 at Thu Dec 10 16:08:43 2020.

 ----------------------------------------------------------------------
 # B3LYP/6-311++G(d,p) empiricaldispersion=gd3bj scf=xqc pop=npa geom=c
 heck
 ----------------------------------------------------------------------

 ------------------------------------
 CID_64534607_JID_5305_Energie_kation
 ------------------------------------
 Structure from the checkpoint file:  "JID_5305.chk"
 Charge =  1 Multiplicity = 2

 SCF Done:  E(UB3LYP) =  -998.028608798     A.U. after   29 cycles
 Normal termination of Gaussian 16 at Thu Dec 10 16:30:15 2020.
 Gaussian 16:  ES64L-G16RevA.03 25-Dec-2016

 ----------------------------------------------------------------------
 # B3LYP/6-311++G(d,p) empiricaldispersion=gd3bj scf=xqc pop=npa geom=c
 heck
 ----------------------------------------------------------------------

 -----------------------------------
 CID_64534607_JID_5305_Energie_anion
 -----------------------------------
 Structure from the checkpoint file:  "JID_5305.chk"
 Charge = -1 Multiplicity = 2

                         Standard orientation:
 ---------------------------------------------------------------------
 Center     Atomic      Atomic             Coordinates (Angstroms)
 Number     Number       Type             X           Y           Z
 ---------------------------------------------------------------------
      1          6           0       -4.376031   -1.071124    0.591645
      2          6           0       -3.739831   -1.337416   -0.776945
      3          6           0       -2.393952   -0.637992   -0.973089
      4          7           0       -1.385034   -1.153978   -0.047035
      5          6           0       -0.066223   -0.534401   -0.192771
      6          6           0       -0.054313    0.952941    0.093166
      7          6           0       -0.571226    1.608160    1.180493
      8          6           0       -0.390072    3.024194    1.132335
      9          6           0        0.261625    3.436573    0.003396
     10         16           0        0.660788    2.090452   -1.017155
     11          6           0        0.939678   -1.284339    0.722494
     12          6           0        1.042465   -2.769123    0.375661
     13          8           0        2.198184   -0.625036    0.775278
     14          6           0        3.007026   -0.643386   -0.399458
     15          6           0        4.232985   -1.526677   -0.201432
     16          1           0       -3.784490   -1.504493    1.406995
     17          1           0       -5.376831   -1.511735    0.654110
     18          1           0       -4.471623    0.005676    0.779324
     19          1           0       -3.603298   -2.416394   -0.919875
     20          1           0       -4.421406   -0.992212   -1.564916
     21          1           0       -2.028275   -0.826717   -1.990561
     22          1           0       -2.529497    0.454447   -0.882466
     23          1           0       -1.704771   -1.003520    0.908764
     24          1           0        0.235924   -0.692736   -1.236010
     25          1           0       -1.068029    1.097010    1.999217
     26          1           0       -0.732049    3.703278    1.905820
     27          1           0        0.527144    4.442700   -0.290583
     28          1           0        0.564004   -1.188623    1.749868
     29          1           0        1.428294   -2.917298   -0.639380
     30          1           0        1.715129   -3.272300    1.077115
     31          1           0        0.053043   -3.228833    0.423106
     32          1           0        2.435286   -0.974545   -1.275954
     33          1           0        3.310467    0.392493   -0.591200
     34          1           0        3.948326   -2.575377   -0.070190
     35          1           0        4.904740   -1.455023   -1.065442
     36          1           0        4.782274   -1.209365    0.690795
 ---------------------------------------------------------------------

 SCF Done:  E(UB3LYP) =  -998.304969502     A.U. after   33 cycles
 SCF Done:  E(UB3LYP) =  -998.304969502     a.u. after    1 cycles

 The electronic state is 2-A.
 Alpha  occ. eigenvalues --  -88.78151 -19.02684 -14.20991 -10.13333 -10.12519
 Alpha  occ. eigenvalues --  -10.12111 -10.10738 -10.10345 -10.09823 -10.08370
 Alpha  occ. eigenvalues --  -10.07897 -10.07466 -10.07211 -10.06643 -10.06516
 Alpha  occ. eigenvalues --   -7.86773  -5.83049  -5.82688  -5.82388  -0.94107
 Alpha  occ. eigenvalues --   -0.82812  -0.78376  -0.70373  -0.67549  -0.64959
 Alpha  occ. eigenvalues --   -0.64265  -0.63938  -0.59090  -0.56402  -0.54652
 Alpha  occ. eigenvalues --   -0.49666  -0.48111  -0.47095  -0.44563  -0.42197
 Alpha  occ. eigenvalues --   -0.41535  -0.39276  -0.38231  -0.37014  -0.35053
 Alpha  occ. eigenvalues --   -0.34194  -0.32521  -0.32089  -0.31900  -0.31526
 Alpha  occ. eigenvalues --   -0.30798  -0.30687  -0.29637  -0.28825  -0.28299
 Alpha  occ. eigenvalues --   -0.27667  -0.26805  -0.25791  -0.25215  -0.25035
 Alpha  occ. eigenvalues --   -0.24743  -0.24661  -0.21003  -0.16776  -0.16110
 Alpha  occ. eigenvalues --   -0.14820  -0.13514   0.04236
 Alpha virt. eigenvalues --    0.05843   0.06059   0.06730   0.07210   0.07736
 Alpha virt. eigenvalues --    0.07979   0.08358   0.08848   0.09398   0.10127
 Alpha virt. eigenvalues --    0.10598   0.10791   0.10897   0.11468   0.12206

  Beta  occ. eigenvalues --  -88.78149 -19.02679 -14.20976 -10.13325 -10.12509
  Beta  occ. eigenvalues --  -10.12108 -10.10739 -10.10328 -10.09817 -10.08360
  Beta  occ. eigenvalues --  -10.07877 -10.07453 -10.07189 -10.06626 -10.06475
  Beta  occ. eigenvalues --   -7.86771  -5.83046  -5.82687  -5.82386  -0.94095
  Beta  occ. eigenvalues --   -0.82793  -0.78358  -0.70353  -0.67521  -0.64931
  Beta  occ. eigenvalues --   -0.64241  -0.63908  -0.59049  -0.56357  -0.54609
  Beta  occ. eigenvalues --   -0.49613  -0.48069  -0.47053  -0.44532  -0.42156
  Beta  occ. eigenvalues --   -0.41516  -0.39251  -0.38211  -0.36987  -0.35021
  Beta  occ. eigenvalues --   -0.34166  -0.32493  -0.32062  -0.31864  -0.31493
  Beta  occ. eigenvalues --   -0.30760  -0.30659  -0.29610  -0.28805  -0.28275
  Beta  occ. eigenvalues --   -0.27640  -0.26779  -0.25766  -0.25192  -0.24993
  Beta  occ. eigenvalues --   -0.24716  -0.24629  -0.20986  -0.16754  -0.16097
  Beta  occ. eigenvalues --   -0.14803  -0.13496
  Beta virt. eigenvalues --    0.06102   0.06636   0.06795   0.07013   0.07479
  Beta virt. eigenvalues --    0.08131   0.08466   0.08741   0.09201   0.09583
  Beta virt. eigenvalues --    0.10362   0.10852   0.11044   0.11177   0.11660

 Mulliken charges and spin densities:
               1          2
     1  C    0.579703  -1.113389
     2  C   -0.481346   0.193052
     3  C    0.290316  -0.531472
     4  N    0.346104  -0.057143
     5  C   -0.397212  -0.749219
     6  C    1.028880  -1.142513
     7  C   -1.329787   2.578651
     8  C    1.292771  -1.992603
     9  C   -0.737800   0.704930
    10  S    0.403207  -0.608120
    11  C   -1.233174   0.550761
    12  C    0.903074  -1.297085
    13  O    0.019903   0.018269
    14  C   -0.241527   0.246915
    15  C    0.286878  -0.880447
    16  H   -0.565569   0.711495
    17  H   -0.530623   0.681052
    18  H    0.010171   0.130592
    19  H    0.103286   0.045160
    20  H   -0.050882   0.183503
    21  H   -0.010088   0.129631
    22  H    0.205091  -0.027988
    23  H    0.858323  -0.667631
    24  H    0.003901   0.179599
    25  H   -0.464360   0.662176
    26  H   -0.306369   0.463116
    27  H   -0.618983   0.866393
    28  H   -0.178776   0.353411
    29  H   -0.058443   0.209761
    30  H    0.053353   0.109484
    31  H    0.026085   0.141447
    32  H    0.065611   0.066470
    33  H   -0.046022   0.200117
    34  H   -0.059354   0.199760
    35  H   -0.220947   0.346060
    36  H    0.054605   0.095804
 Sum of Mulliken charges =  -1.00000   1.00000

 Dipole moment (field-independent basis, Debye):
    X=              2.6062    Y=             -0.8223    Z=             -2.8451  Tot=              3.9450
 Quadrupole moment (field-independent basis, Debye-Ang):
   XX=           -184.8632   YY=           -164.8841   ZZ=           -137.7025
   XY=             -4.7072   XZ=              9.6378   YZ=             -0.6861

 Summary of Natural Population Analysis:

                                       Natural Population
                Natural  -----------------------------------------------
    Atom  No    Charge         Core      Valence    Rydberg      Total
 -----------------------------------------------------------------------
      C    1   -0.28935      0.99967     2.28441    0.00528     3.28935
      C    2   -0.19348      0.99964     2.18416    0.00968     3.19348
      C    3   -0.08430      0.99962     2.07578    0.00890     3.08430
      N    4   -0.33847      0.99974     2.82774    0.01100     3.83847
      C    5   -0.03486      0.99951     2.02132    0.01403     3.03486
      C    6   -0.09879      0.99948     2.08366    0.01566     3.09879
      C    7   -0.13019      0.99944     2.11842    0.01234     3.13019
      C    8   -0.12204      0.99953     2.11173    0.01077     3.12204
      C    9   -0.19769      0.99954     2.18627    0.01188     3.19769
      S   10    0.20739      4.99938     2.77284    0.02038     7.79261
      C   11    0.07563      0.99953     1.90913    0.01571     2.92437
      C   12   -0.30133      0.99964     2.29682    0.00487     3.30133
      O   13   -0.30421      0.99988     3.29435    0.00998     4.30421
      C   14   -0.01724      0.99958     2.00449    0.01316     3.01724
      C   15   -0.29379      0.99966     2.28958    0.00455     3.29379
      H   16    0.09662      0.00000     0.40185    0.00153     0.40338
      H   17    0.10116      0.00000     0.39749    0.00134     0.39884
      H   18    0.09745      0.00000     0.40120    0.00135     0.40255
      H   19    0.09668      0.00000     0.40212    0.00119     0.40332
      H   20    0.09501      0.00000     0.40409    0.00091     0.40499
      H   21    0.09027      0.00000     0.40841    0.00132     0.40973
      H   22    0.08425      0.00000     0.41404    0.00171     0.41575
      H   23    0.17366      0.00000     0.32235    0.00399     0.32634
      H   24    0.09594      0.00000     0.40146    0.00259     0.40406
      H   25    0.10839      0.00000     0.38982    0.00179     0.39161
      H   26    0.10771      0.00000     0.39107    0.00123     0.39229
      H   27    0.11124      0.00000     0.38717    0.00159     0.38876
      H   28    0.09060      0.00000     0.40715    0.00225     0.40940
      H   29    0.09611      0.00000     0.40284    0.00105     0.40389
      H   30    0.10119      0.00000     0.39778    0.00103     0.39881
      H   31    0.11387      0.00000     0.38483    0.00130     0.38613
      H   32    0.07884      0.00000     0.41950    0.00166     0.42116
      H   33    0.08912      0.00000     0.40945    0.00143     0.41088
      H   34    0.09757      0.00000     0.40106    0.00136     0.40243
      H   35    0.09732      0.00000     0.40146    0.00123     0.40268
      H   36    0.09973      0.00000     0.39901    0.00127     0.40027
 =======================================================================
   * Total *   -0.00000     18.99384    42.80484    0.20132    62.00000

 Normal termination of Gaussian 16 at Thu Dec 10 16:50:12 2020.
