 Gaussian 16, Revision A.03,

 -----------------------------------------------------------
 # opt freq B3LYP/6-31G(d) empiricaldispersion=gd3bj scf=xqc
 -----------------------------------------------------------

 ------------------------------
 CID_84156439_JID_8622_neutraal
 ------------------------------
 Symbolic Z-matrix:
 Charge =  0 Multiplicity = 1

 SCF Done:  E(RB3LYP) =  -748.558554842     A.U. after   15 cycles
 SCF Done:  E(RB3LYP) =  -748.561382274     A.U. after   12 cycles
 SCF Done:  E(RB3LYP) =  -748.561988536     A.U. after   12 cycles
 SCF Done:  E(RB3LYP) =  -748.562410231     A.U. after   12 cycles
 SCF Done:  E(RB3LYP) =  -748.562544017     A.U. after   12 cycles
 SCF Done:  E(RB3LYP) =  -748.562608899     A.U. after   11 cycles
 SCF Done:  E(RB3LYP) =  -748.562636001     A.U. after   10 cycles
 SCF Done:  E(RB3LYP) =  -748.562650232     A.U. after   10 cycles
 SCF Done:  E(RB3LYP) =  -748.562657150     A.U. after   10 cycles
 SCF Done:  E(RB3LYP) =  -748.562660239     A.U. after    9 cycles
 SCF Done:  E(RB3LYP) =  -748.562720082     A.U. after   10 cycles
 SCF Done:  E(RB3LYP) =  -748.562719920     A.U. after    9 cycles
 SCF Done:  E(RB3LYP) =  -748.562722390     A.U. after    9 cycles
 SCF Done:  E(RB3LYP) =  -748.562722780     A.U. after    8 cycles
 SCF Done:  E(RB3LYP) =  -748.562722823     A.U. after    6 cycles
 Optimization completed.
    -- Stationary point found.
 Normal termination of Gaussian 16 at Fri Dec 11 21:27:41 2020.

 --------------------------------------------------------------------
 #N Geom=AllCheck Guess=TCheck SCRF=Check GenChk RB3LYP/6-31G(d) Freq
 --------------------------------------------------------------------

 Structure from the checkpoint file:  "JID_8622.chk"
 ------------------------------
 CID_84156439_JID_8622_neutraal
 ------------------------------
 Charge =  0 Multiplicity = 1

 SCF Done:  E(RB3LYP) =  -748.562722823     A.U. after    1 cycles

  Exact polarizability: 258.112  -8.770 162.452   2.460  19.365 122.888
 Approx polarizability: 341.923 -12.881 248.311   1.947  53.224 200.826

                      1                      2                      3
                      A                      A                      A
 Frequencies --     18.4939                37.2353                44.3365
 Red. masses --      3.2230                 3.6041                 3.3040
 Frc consts  --      0.0006                 0.0029                 0.0038
 IR Inten    --      0.0858                 0.8572                 0.3355

                      4                      5                      6
                      A                      A                      A
 Frequencies --     51.2357                71.5082                93.0119
 Red. masses --      3.4228                 1.0740                 3.9246
 Frc consts  --      0.0053                 0.0032                 0.0200
 IR Inten    --      1.2026                 0.0707                 2.7190

                      7                      8                      9
                      A                      A                      A
 Frequencies --    106.8853               131.6715               149.7509
 Red. masses --      3.8082                 2.6558                 3.5118
 Frc consts  --      0.0256                 0.0271                 0.0464
 IR Inten    --      1.1365                 3.2241                 1.3321

                     10                     11                     12
                      A                      A                      A
 Frequencies --    188.3422               195.3052               231.3680
 Red. masses --      3.1799                 3.2354                 2.1543
 Frc consts  --      0.0665                 0.0727                 0.0679
 IR Inten    --      3.7748                 1.8654                 2.2715

                     13                     14                     15
                      A                      A                      A
 Frequencies --    236.7944               260.6772               267.3314
 Red. masses --      1.1443                 2.7125                 1.5040
 Frc consts  --      0.0378                 0.1086                 0.0633
 IR Inten    --      0.4954                 1.0156                 1.7246

                     16                     17                     18
                      A                      A                      A
 Frequencies --    270.1184               300.3325               351.2767
 Red. masses --      2.4985                 1.2174                 2.7280
 Frc consts  --      0.1074                 0.0647                 0.1983
 IR Inten    --      0.0457                74.8387                10.1642

                     19                     20                     21
                      A                      A                      A
 Frequencies --    371.5124               371.8381               416.9906
 Red. masses --      2.7762                 3.3200                 3.0912
 Frc consts  --      0.2258                 0.2705                 0.3167
 IR Inten    --      2.7496                 1.5826                 0.2712

                     22                     23                     24
                      A                      A                      A
 Frequencies --    420.7276               486.2322               494.0999
 Red. masses --      3.2916                 3.2203                 3.0227
 Frc consts  --      0.3433                 0.4486                 0.4348
 IR Inten    --      0.6580                 4.3519                 1.1143

                     25                     26                     27
                      A                      A                      A
 Frequencies --    514.1942               582.5701               606.5501
 Red. masses --      3.3657                 2.5837                 3.7501
 Frc consts  --      0.5243                 0.5166                 0.8129
 IR Inten    --      2.4871                14.1019                 2.3083

                     28                     29                     30
                      A                      A                      A
 Frequencies --    616.5181               646.7386               660.1717
 Red. masses --      3.3473                 4.5531                 5.5759
 Frc consts  --      0.7496                 1.1221                 1.4318
 IR Inten    --      2.5037                 0.8009                 0.9831

                     31                     32                     33
                      A                      A                      A
 Frequencies --    733.4666               754.8086               766.2457
 Red. masses --      3.1260                 4.5402                 3.1757
 Frc consts  --      0.9908                 1.5240                 1.0986
 IR Inten    --     12.7478                10.3552                 4.8156

                     34                     35                     36
                      A                      A                      A
 Frequencies --    793.1804               796.2546               849.7233
 Red. masses --      2.0230                 3.2163                 1.3501
 Frc consts  --      0.7499                 1.2014                 0.5744
 IR Inten    --      4.9522                 2.3658                 7.4503

                     37                     38                     39
                      A                      A                      A
 Frequencies --    861.0481               862.2370               892.6358
 Red. masses --      1.5795                 1.6618                 1.4492
 Frc consts  --      0.6899                 0.7279                 0.6803
 IR Inten    --     23.1417                78.3959                44.1376

                     40                     41                     42
                      A                      A                      A
 Frequencies --    908.6735               923.6001               942.3160
 Red. masses --      2.5482                 2.0595                 1.1761
 Frc consts  --      1.2396                 1.0351                 0.6153
 IR Inten    --      0.8346                 9.8600                 0.7960

                     43                     44                     45
                      A                      A                      A
 Frequencies --    959.8220               971.4832               976.4098
 Red. masses --      1.3329                 1.4329                 1.3671
 Frc consts  --      0.7235                 0.7968                 0.7679
 IR Inten    --      0.5350                 0.3186                 0.0942

                     46                     47                     48
                      A                      A                      A
 Frequencies --   1030.8851              1044.3562              1065.3513
 Red. masses --      5.1660                 3.4586                 2.8735
 Frc consts  --      3.2347                 2.2225                 1.9215
 IR Inten    --     28.2024                 8.5984                 8.9348

                     49                     50                     51
                      A                      A                      A
 Frequencies --   1067.4711              1086.4233              1092.1117
 Red. masses --      2.3542                 1.5075                 1.6007
 Frc consts  --      1.5805                 1.0484                 1.1249
 IR Inten    --     13.0912                 4.5571                22.7751

                     52                     53                     54
                      A                      A                      A
 Frequencies --   1129.8378              1135.3857              1147.0184
 Red. masses --      2.1670                 2.2997                 1.4792
 Frc consts  --      1.6298                 1.7467                 1.1466
 IR Inten    --      5.4178                 0.7449                 8.3560

                     55                     56                     57
                      A                      A                      A
 Frequencies --   1158.0670              1174.2123              1190.1007
 Red. masses --      1.3314                 1.3351                 1.7846
 Frc consts  --      1.0520                 1.0845                 1.4892
 IR Inten    --     14.8638                 1.6945                 1.1347

                     58                     59                     60
                      A                      A                      A
 Frequencies --   1195.8908              1221.5368              1228.8184
 Red. masses --      1.5696                 1.1390                 1.4896
 Frc consts  --      1.3225                 1.0014                 1.3253
 IR Inten    --      9.5376                 1.2197                 5.3090

                     61                     62                     63
                      A                      A                      A
 Frequencies --   1250.7300              1281.1291              1327.3518
 Red. masses --      2.0404                 2.6238                 3.9805
 Frc consts  --      1.8806                 2.5373                 4.1320
 IR Inten    --      1.7962                15.8851                 7.4735

                     64                     65                     66
                      A                      A                      A
 Frequencies --   1334.3738              1350.1288              1361.1749
 Red. masses --      1.5622                 1.8962                 1.9698
 Frc consts  --      1.6389                 2.0365                 2.1503
 IR Inten    --      2.2926                15.0375                17.2883

                     67                     68                     69
                      A                      A                      A
 Frequencies --   1363.6256              1378.0731              1386.5692
 Red. masses --      1.3232                 1.5272                 3.6103
 Frc consts  --      1.4497                 1.7088                 4.0895
 IR Inten    --      2.9092                 2.5422                21.1496

                     70                     71                     72
                      A                      A                      A
 Frequencies --   1399.4105              1425.6792              1442.3078
 Red. masses --      1.6986                 1.2299                 1.4356
 Frc consts  --      1.9599                 1.4729                 1.7595
 IR Inten    --      1.5009                 2.8621                16.8194

                     73                     74                     75
                      A                      A                      A
 Frequencies --   1445.9373              1466.5068              1469.4290
 Red. masses --      1.2472                 2.5810                 1.6388
 Frc consts  --      1.5364                 3.2704                 2.0849
 IR Inten    --      1.4546                 8.7176                25.3849

                     76                     77                     78
                      A                      A                      A
 Frequencies --   1486.2340              1497.5411              1508.1717
 Red. masses --      2.3887                 2.9516                 1.0599
 Frc consts  --      3.1088                 3.9000                 1.4204
 IR Inten    --     32.1319                 6.8249                 8.7983

                     79                     80                     81
                      A                      A                      A
 Frequencies --   1513.1183              1517.5378              1521.2275
 Red. masses --      1.1322                 1.0442                 1.0489
 Frc consts  --      1.5273                 1.4168                 1.4301
 IR Inten    --      8.2529                 0.0394                 2.0535

                     82                     83                     84
                      A                      A                      A
 Frequencies --   1532.5228              1538.4477              1542.2357
 Red. masses --      1.0487                 1.0710                 1.0978
 Frc consts  --      1.4512                 1.4936                 1.5384
 IR Inten    --      8.5151                 3.3644                 5.7706

                     85                     86                     87
                      A                      A                      A
 Frequencies --   1546.4089              1577.1079              1594.1719
 Red. masses --      1.1841                 3.0524                 5.4435
 Frc consts  --      1.6683                 4.4731                 8.1508
 IR Inten    --      7.9165                 7.9662                17.3582

                     88                     89                     90
                      A                      A                      A
 Frequencies --   1628.4909              1677.5100              1702.2404
 Red. masses --      6.3865                 5.8378                 1.0879
 Frc consts  --      9.9789                 9.6789                 1.8574
 IR Inten    --      1.3354                 0.2646                20.9029

                     91                     92                     93
                      A                      A                      A
 Frequencies --   2946.7117              3033.3128              3043.4207
 Red. masses --      1.0733                 1.0843                 1.0348
 Frc consts  --      5.4908                 5.8778                 5.6470
 IR Inten    --     84.4432                17.9103                25.6988

                     94                     95                     96
                      A                      A                      A
 Frequencies --   3047.7593              3050.0732              3062.9217
 Red. masses --      1.0353                 1.0751                 1.0717
 Frc consts  --      5.6661                 5.8927                 5.9236
 IR Inten    --     40.8747                11.8785               105.2570

                     97                     98                     99
                      A                      A                      A
 Frequencies --   3064.0045              3107.4378              3113.8659
 Red. masses --      1.0452                 1.1025                 1.1016
 Frc consts  --      5.7815                 6.2726                 6.2930
 IR Inten    --     56.2485                 0.3277               107.9713

                    100                    101                    102
                      A                      A                      A
 Frequencies --   3114.0491              3121.1560              3122.8944
 Red. masses --      1.0958                 1.1027                 1.1022
 Frc consts  --      6.2608                 6.3290                 6.3334
 IR Inten    --     12.4203                23.4997                32.9822

                    103                    104                    105
                      A                      A                      A
 Frequencies --   3135.5638              3167.5855              3178.9638
 Red. masses --      1.0995                 1.1056                 1.0890
 Frc consts  --      6.3690                 6.5359                 6.4840
 IR Inten    --     16.3971                 7.8756                20.7267

                    106                    107                    108
                      A                      A                      A
 Frequencies --   3181.9725              3216.9950              3227.5132
 Red. masses --      1.0880                 1.0924                 1.0913
 Frc consts  --      6.4905                 6.6608                 6.6976
 IR Inten    --     21.9561                 7.5114                13.4162

                    109                    110                    111
                      A                      A                      A
 Frequencies --   3261.6670              3471.0008              3556.3107
 Red. masses --      1.0973                 1.0498                 1.0923
 Frc consts  --      6.8781                 7.4519                 8.1396
 IR Inten    --      3.8319                 4.5266                 0.6160

 - Thermochemistry -
 -------------------
 Temperature   298.150 Kelvin.  Pressure   1.00000 Atm.
 Atom     1 has atomic number  6 and mass  12.00000

 Molecular mass:   243.17355 amu.
 Principal axes and moments of inertia in atomic units:
                           1         2         3
     Eigenvalues --  2423.431898148.946229697.40578
           X            0.99999   0.00490   0.00114
           Y           -0.00490   0.99998   0.00344
           Z           -0.00112  -0.00344   0.99999
 This molecule is an asymmetric top.
 Rotational symmetry number  1.
 Warning -- assumption of classical behavior for rotation
           may cause significant error
 Rotational temperatures (Kelvin)      0.03574     0.01063     0.00893
 Rotational constants (GHZ):           0.74470     0.22147     0.18611
 Zero-point vibrational energy     893872.2 (Joules/Mol)
                                  213.64058 (Kcal/Mol)
 Warning -- explicit consideration of  28 degrees of freedom as
           vibrations may cause significant error
 Vibrational temperatures:     26.61    53.57    63.79    73.72   102.88
          (Kelvin)            133.82   153.78   189.45   215.46   270.98
                              281.00   332.89   340.69   375.06   384.63
                              388.64   432.11   505.41   534.52   534.99
                              599.96   605.33   699.58   710.90   739.81
                              838.19   872.69   887.03   930.51   949.84
                             1055.29  1086.00  1102.46  1141.21  1145.63
                             1222.56  1238.86  1240.57  1284.30  1307.38
                             1328.85  1355.78  1380.97  1397.75  1404.84
                             1483.21  1502.60  1532.80  1535.85  1563.12
                             1571.31  1625.58  1633.57  1650.30  1666.20
                             1689.43  1712.29  1720.62  1757.52  1768.00
                             1799.52  1843.26  1909.76  1919.87  1942.53
                             1958.43  1961.95  1982.74  1994.96  2013.44
                             2051.23  2075.16  2080.38  2109.98  2114.18
                             2138.36  2154.63  2169.92  2177.04  2183.40
                             2188.71  2204.96  2213.48  2218.93  2224.94
                             2269.11  2293.66  2343.04  2413.56  2449.14
                             4239.66  4364.26  4378.80  4385.05  4388.38
                             4406.86  4408.42  4470.91  4480.16  4480.42
                             4490.65  4493.15  4511.38  4557.45  4573.82
                             4578.15  4628.54  4643.67  4692.81  4994.00
                             5116.74

 Zero-point correction=                           0.340458 (Hartree/Particle)
 Thermal correction to Energy=                    0.358815
 Thermal correction to Enthalpy=                  0.359759
 Thermal correction to Gibbs Free Energy=         0.292293
 Sum of electronic and zero-point Energies=           -748.222265
 Sum of electronic and thermal Energies=              -748.203908
 Sum of electronic and thermal Enthalpies=            -748.202963
 Sum of electronic and thermal Free Energies=         -748.270429

                     E (Thermal)             CV                S
                      KCal/Mol        Cal/Mol-Kelvin    Cal/Mol-Kelvin
 Total                  225.160             68.820            141.994
 Electronic               0.000              0.000              0.000
 Translational            0.889              2.981             42.367
 Rotational               0.889              2.981             33.615
 Vibrational            223.383             62.858             66.013
 Vibration     1          0.593              1.986              6.790
 Vibration     2          0.594              1.982              5.401
 Vibration     3          0.595              1.980              5.055
 Vibration     4          0.596              1.977              4.769
 Vibration     5          0.598              1.968              4.111
 Vibration     6          0.602              1.954              3.596
 Vibration     7          0.606              1.944              3.325
 Vibration     8          0.612              1.922              2.921
 Vibration     9          0.618              1.903              2.675
 Vibration    10          0.633              1.856              2.244
 Vibration    11          0.636              1.846              2.177
 Vibration    12          0.653              1.793              1.868
 Vibration    13          0.656              1.784              1.827
 Vibration    14          0.669              1.745              1.657
 Vibration    15          0.672              1.733              1.613
 Vibration    16          0.674              1.728              1.595
 Vibration    17          0.693              1.673              1.415
 Vibration    18          0.728              1.573              1.160
 Vibration    19          0.743              1.531              1.074
 Vibration    20          0.744              1.530              1.072
 Vibration    21          0.780              1.433              0.902
 Vibration    22          0.783              1.425              0.890
 Vibration    23          0.842              1.281              0.693
 Vibration    24          0.850              1.263              0.673
 Vibration    25          0.869              1.219              0.624
 Vibration    26          0.939              1.069              0.481
 Vibration    27          0.965              1.018              0.439
 Vibration    28          0.976              0.997              0.422

 Optimization completed.
    -- Stationary point found.
 Normal termination of Gaussian 16 at Fri Dec 11 21:44:45 2020.

 ----------------------------------------------------------------------
 # B3LYP/6-311++G(d,p) empiricaldispersion=gd3bj scf=xqc pop=npa geom=c
 heck
 ----------------------------------------------------------------------

 --------------------------------------
 CID_84156439_JID_8622_Energie_neutraal
 --------------------------------------
 Structure from the checkpoint file:  "JID_8622.chk"
 Charge =  0 Multiplicity = 1

 SCF Done:  E(RB3LYP) =  -748.764992013     A.U. after   15 cycles
 Normal termination of Gaussian 16 at Fri Dec 11 21:51:39 2020.

 ----------------------------------------------------------------------
 # B3LYP/6-311++G(d,p) empiricaldispersion=gd3bj scf=xqc pop=npa geom=c
 heck
 ----------------------------------------------------------------------

 ------------------------------------
 CID_84156439_JID_8622_Energie_kation
 ------------------------------------
 Structure from the checkpoint file:  "JID_8622.chk"
 Charge =  1 Multiplicity = 2

 SCF Done:  E(UB3LYP) =  -748.494010920     A.U. after   25 cycles
 Normal termination of Gaussian 16 at Fri Dec 11 22:07:13 2020.
 Gaussian 16:  ES64L-G16RevA.03 25-Dec-2016

 ----------------------------------------------------------------------
 # B3LYP/6-311++G(d,p) empiricaldispersion=gd3bj scf=xqc pop=npa geom=c
 heck
 ----------------------------------------------------------------------

 -----------------------------------
 CID_84156439_JID_8622_Energie_anion
 -----------------------------------
 Structure from the checkpoint file:  "JID_8622.chk"
 Charge = -1 Multiplicity = 2

                         Standard orientation:
 ---------------------------------------------------------------------
 Center     Atomic      Atomic             Coordinates (Angstroms)
 Number     Number       Type             X           Y           Z
 ---------------------------------------------------------------------
      1          6           0       -4.816026    0.570219   -1.088017
      2          6           0       -4.299212   -0.012901    0.238270
      3          6           0       -4.980084   -1.355375    0.553132
      4          6           0       -2.785918   -0.137341    0.237153
      5          6           0       -2.004621    0.598477    1.132878
      6          6           0       -0.615227    0.501765    1.133806
      7          6           0        0.044071   -0.339403    0.228275
      8          6           0       -0.738098   -1.086468   -0.669135
      9          6           0       -2.124498   -0.986131   -0.661851
     10          6           0        1.511980   -0.472981    0.201325
     11          7           0        2.044276   -1.656146   -0.146112
     12          7           0        3.378287   -1.471582   -0.123746
     13          6           0        3.712303   -0.206642    0.240978
     14          6           0        2.536937    0.492429    0.459231
     15          6           0        2.470359    1.966445    0.760239
     16          6           0        2.229571    2.840431   -0.482707
     17          7           0        0.847283    2.724720   -0.947810
     18          6           0        4.257876   -2.598272   -0.351586
     19          1           0       -4.586850   -0.097813   -1.926510
     20          1           0       -4.353227    1.540285   -1.297663
     21          1           0       -5.903552    0.705765   -1.055657
     22          1           0       -4.566942    0.691373    1.037319
     23          1           0       -4.762008   -2.099554   -0.221628
     24          1           0       -4.632167   -1.758474    1.510018
     25          1           0       -6.068712   -1.235688    0.604001
     26          1           0       -2.492319    1.259998    1.844951
     27          1           0       -0.043039    1.074706    1.853993
     28          1           0       -0.237945   -1.747189   -1.369511
     29          1           0       -2.700603   -1.574241   -1.371748
     30          1           0        4.744007    0.109761    0.311766
     31          1           0        1.691527    2.197734    1.492380
     32          1           0        3.424944    2.268283    1.208759
     33          1           0        2.400903    3.889520   -0.209281
     34          1           0        2.991040    2.576258   -1.239974
     35          1           0        0.724043    3.267843   -1.800599
     36          1           0        0.642636    1.757055   -1.191631
     37          1           0        4.309023   -3.242319    0.533159
     38          1           0        3.875850   -3.180082   -1.192825
     39          1           0        5.257997   -2.227686   -0.587590
 ---------------------------------------------------------------------

 SCF Done:  E(UB3LYP) =  -748.753043982     A.U. after   33 cycles
 SCF Done:  E(UB3LYP) =  -748.753043982     a.u. after    1 cycles

 The electronic state is 2-A.
 Alpha  occ. eigenvalues --  -14.29781 -14.23193 -14.20037 -10.11730 -10.10807
 Alpha  occ. eigenvalues --  -10.10456 -10.10254 -10.09801 -10.09344 -10.09107
 Alpha  occ. eigenvalues --  -10.08470 -10.08458 -10.08385 -10.08366 -10.08236
 Alpha  occ. eigenvalues --  -10.08081 -10.07886 -10.07859  -0.95810  -0.79417
 Alpha  occ. eigenvalues --   -0.77926  -0.75366  -0.71784  -0.70843  -0.65851
 Alpha  occ. eigenvalues --   -0.65761  -0.64554  -0.60440  -0.59661  -0.54709
 Alpha  occ. eigenvalues --   -0.52570  -0.52181  -0.48690  -0.47741  -0.47020
 Alpha  occ. eigenvalues --   -0.43203  -0.40361  -0.40271  -0.38845  -0.38286
 Alpha  occ. eigenvalues --   -0.37733  -0.36773  -0.34916  -0.34767  -0.34125
 Alpha  occ. eigenvalues --   -0.33466  -0.33248  -0.32915  -0.31859  -0.30758
 Alpha  occ. eigenvalues --   -0.30516  -0.29602  -0.28213  -0.27650  -0.27433
 Alpha  occ. eigenvalues --   -0.26679  -0.26374  -0.25860  -0.24461  -0.24044
 Alpha  occ. eigenvalues --   -0.19987  -0.18697  -0.16821  -0.15343  -0.14984
 Alpha  occ. eigenvalues --   -0.12849   0.03847
 Alpha virt. eigenvalues --    0.04916   0.06024   0.06280   0.06953   0.07273
 Alpha virt. eigenvalues --    0.07544   0.07617   0.07977   0.08346   0.08885
 Alpha virt. eigenvalues --    0.09633   0.09965   0.10201   0.10514   0.11374

  Beta  occ. eigenvalues --  -14.29782 -14.23183 -14.20027 -10.11679 -10.10779
  Beta  occ. eigenvalues --  -10.10453 -10.10238 -10.09796 -10.09338 -10.09100
  Beta  occ. eigenvalues --  -10.08468 -10.08449 -10.08381 -10.08362 -10.08230
  Beta  occ. eigenvalues --  -10.08081 -10.07866 -10.07842  -0.95800  -0.79399
  Beta  occ. eigenvalues --   -0.77912  -0.75348  -0.71765  -0.70822  -0.65829
  Beta  occ. eigenvalues --   -0.65743  -0.64525  -0.60403  -0.59614  -0.54681
  Beta  occ. eigenvalues --   -0.52532  -0.52159  -0.48660  -0.47701  -0.46995
  Beta  occ. eigenvalues --   -0.43161  -0.40335  -0.40246  -0.38819  -0.38256
  Beta  occ. eigenvalues --   -0.37705  -0.36754  -0.34898  -0.34746  -0.34098
  Beta  occ. eigenvalues --   -0.33432  -0.33224  -0.32891  -0.31811  -0.30737
  Beta  occ. eigenvalues --   -0.30484  -0.29581  -0.28186  -0.27625  -0.27412
  Beta  occ. eigenvalues --   -0.26661  -0.26354  -0.25839  -0.24445  -0.24026
  Beta  occ. eigenvalues --   -0.19969  -0.18668  -0.16803  -0.15322  -0.14962
  Beta  occ. eigenvalues --   -0.12826
  Beta virt. eigenvalues --    0.05471   0.06076   0.06281   0.06900   0.07148
  Beta virt. eigenvalues --    0.07343   0.07735   0.07979   0.08163   0.08810
  Beta virt. eigenvalues --    0.09295   0.09893   0.10120   0.10386   0.10768

 Mulliken charges and spin densities:
               1          2
     1  C    0.014099  -0.691617
     2  C   -1.751219   1.858221
     3  C    0.126520  -0.809380
     4  C    1.652848  -1.022566
     5  C   -0.806018   0.346424
     6  C   -0.685296  -0.021166
     7  C    1.153488  -0.534120
     8  C   -0.075472  -0.010941
     9  C   -0.416555  -0.067935
    10  C   -0.453246  -0.046301
    11  N   -0.305434   0.190417
    12  N    0.124731   0.067559
    13  C    0.714249  -0.803679
    14  C    0.772230  -0.103599
    15  C   -0.371518  -0.242165
    16  C    0.428212  -0.952122
    17  N   -0.533435   0.109631
    18  C    1.209589  -1.522155
    19  H   -0.013896   0.161029
    20  H    0.089222   0.050304
    21  H   -0.185401   0.327697
    22  H   -0.024835   0.196323
    23  H    0.039320   0.106777
    24  H    0.087318   0.046965
    25  H   -0.302236   0.450300
    26  H    0.060511   0.086796
    27  H    0.057783   0.074706
    28  H    0.027380   0.188701
    29  H    0.116181   0.024451
    30  H   -1.117992   1.326927
    31  H    0.139036   0.002624
    32  H   -0.072437   0.228565
    33  H   -0.046569   0.201880
    34  H   -0.114453   0.245610
    35  H    0.120047   0.126195
    36  H    0.310593  -0.062975
    37  H   -0.183577   0.362781
    38  H   -0.137679   0.302997
    39  H   -0.646090   0.806847
 Sum of Mulliken charges =  -1.00000   1.00000

 Dipole moment (field-independent basis, Debye):
    X=             -5.5854    Y=              1.6146    Z=              0.6740  Tot=              5.8530
 Quadrupole moment (field-independent basis, Debye-Ang):
   XX=           -251.6371   YY=           -155.4668   ZZ=           -135.4076
   XY=              7.8350   XZ=              2.3325   YZ=              1.2141

 Summary of Natural Population Analysis:

                                       Natural Population
                Natural  -----------------------------------------------
    Atom  No    Charge         Core      Valence    Rydberg      Total
 -----------------------------------------------------------------------
      C    1   -0.27895      0.99965     2.27477    0.00454     3.27895
      C    2   -0.12014      0.99958     2.10983    0.01073     3.12014
      C    3   -0.28131      0.99965     2.27555    0.00611     3.28131
      C    4   -0.01100      0.99949     2.00092    0.01058     3.01100
      C    5   -0.09865      0.99951     2.09120    0.00794     3.09865
      C    6   -0.08301      0.99953     2.07577    0.00771     3.08301
      C    7   -0.03977      0.99949     2.03038    0.00991     3.03977
      C    8   -0.08517      0.99954     2.07720    0.00843     3.08517
      C    9   -0.10374      0.99951     2.09623    0.00799     3.10374
      C   10    0.06250      0.99951     1.92278    0.01521     2.93750
      N   11   -0.15299      0.99970     2.64258    0.01071     3.65299
      N   12   -0.09947      0.99967     2.58721    0.01259     3.59947
      C   13    0.00171      0.99949     1.98674    0.01206     2.99829
      C   14   -0.06495      0.99948     2.05464    0.01084     3.06495
      C   15   -0.20203      0.99960     2.19292    0.00952     3.20203
      C   16   -0.08221      0.99964     2.07233    0.01025     3.08221
      N   17   -0.42274      0.99977     2.91297    0.01000     3.92274
      C   18   -0.17136      0.99963     2.16327    0.00845     3.17136
      H   19    0.09652      0.00000     0.40246    0.00102     0.40348
      H   20    0.10161      0.00000     0.39743    0.00097     0.39839
      H   21    0.09797      0.00000     0.40102    0.00101     0.40203
      H   22    0.09475      0.00000     0.40325    0.00200     0.40525
      H   23    0.09655      0.00000     0.40257    0.00088     0.40345
      H   24    0.10088      0.00000     0.39840    0.00072     0.39912
      H   25    0.09891      0.00000     0.40012    0.00098     0.40109
      H   26    0.09773      0.00000     0.40084    0.00143     0.40227
      H   27    0.10094      0.00000     0.39758    0.00148     0.39906
      H   28    0.10817      0.00000     0.39039    0.00144     0.39183
      H   29    0.09919      0.00000     0.39982    0.00099     0.40081
      H   30    0.10825      0.00000     0.38876    0.00300     0.39175
      H   31    0.10234      0.00000     0.39613    0.00153     0.39766
      H   32    0.10484      0.00000     0.39400    0.00116     0.39516
      H   33    0.08691      0.00000     0.41187    0.00122     0.41309
      H   34    0.07918      0.00000     0.41901    0.00180     0.42082
      H   35    0.17260      0.00000     0.32602    0.00138     0.32740
      H   36    0.17764      0.00000     0.32026    0.00209     0.32236
      H   37    0.09839      0.00000     0.40034    0.00128     0.40161
      H   38    0.10436      0.00000     0.39423    0.00141     0.39564
      H   39    0.10553      0.00000     0.39118    0.00329     0.39447
 =======================================================================
   * Total *    0.00000     17.99244    47.80292    0.20465    66.00000

 Normal termination of Gaussian 16 at Fri Dec 11 22:27:58 2020.
