 Gaussian 16, Revision A.03,

 -----------------------------------------------------------
 # opt freq B3LYP/6-31G(d) empiricaldispersion=gd3bj scf=xqc
 -----------------------------------------------------------

 -------------------------------
 CID_104569063_JID_6656_neutraal
 -------------------------------
 Symbolic Z-matrix:
 Charge =  0 Multiplicity = 1

 SCF Done:  E(RB3LYP) =  -1161.26112596     A.U. after   15 cycles
 SCF Done:  E(RB3LYP) =  -1161.26663920     A.U. after   12 cycles
 SCF Done:  E(RB3LYP) =  -1161.26666564     A.U. after   12 cycles
 SCF Done:  E(RB3LYP) =  -1161.26734952     A.U. after   13 cycles
 SCF Done:  E(RB3LYP) =  -1161.26755364     A.U. after   13 cycles
 SCF Done:  E(RB3LYP) =  -1161.26813050     A.U. after   12 cycles
 SCF Done:  E(RB3LYP) =  -1161.26820522     A.U. after   12 cycles
 SCF Done:  E(RB3LYP) =  -1161.26840053     A.U. after   12 cycles
 SCF Done:  E(RB3LYP) =  -1161.26859889     A.U. after   11 cycles
 SCF Done:  E(RB3LYP) =  -1161.26837491     A.U. after   12 cycles
 SCF Done:  E(RB3LYP) =  -1161.27083752     A.U. after    9 cycles
 SCF Done:  E(RB3LYP) =  -1161.27083889     A.U. after    9 cycles
 SCF Done:  E(RB3LYP) =  -1161.27083905     A.U. after    7 cycles
 SCF Done:  E(RB3LYP) =  -1161.27083918     A.U. after    7 cycles
 SCF Done:  E(RB3LYP) =  -1161.27083927     A.U. after    7 cycles
 SCF Done:  E(RB3LYP) =  -1161.27083929     A.U. after    7 cycles
 Optimization completed.
    -- Stationary point found.
 Normal termination of Gaussian 16 at Fri Dec 11 00:22:07 2020.

 --------------------------------------------------------------------
 #N Geom=AllCheck Guess=TCheck SCRF=Check GenChk RB3LYP/6-31G(d) Freq
 --------------------------------------------------------------------

 Structure from the checkpoint file:  "JID_6656.chk"
 -------------------------------
 CID_104569063_JID_6656_neutraal
 -------------------------------
 Charge =  0 Multiplicity = 1

 SCF Done:  E(RB3LYP) =  -1161.27083929     A.U. after    1 cycles

  Exact polarizability: 192.430   8.574 118.997   6.748   1.791 104.865
 Approx polarizability: 232.665  15.998 197.933  15.323   7.007 162.303

                      1                      2                      3
                      A                      A                      A
 Frequencies --     27.2081                31.2257                41.5508
 Red. masses --      7.3612                 7.0528                 4.3873
 Frc consts  --      0.0032                 0.0041                 0.0045
 IR Inten    --      0.2702                 2.1212                 0.5359

                      4                      5                      6
                      A                      A                      A
 Frequencies --     45.2309                53.3620                76.4520
 Red. masses --      6.4166                 4.7986                 3.6846
 Frc consts  --      0.0077                 0.0081                 0.0127
 IR Inten    --      2.3918                 0.1899                 1.0975

                      7                      8                      9
                      A                      A                      A
 Frequencies --     84.7706                97.8973               112.3636
 Red. masses --      1.8805                 3.7457                 2.4906
 Frc consts  --      0.0080                 0.0212                 0.0185
 IR Inten    --      0.3504                 1.1823                 0.4244

                     10                     11                     12
                      A                      A                      A
 Frequencies --    139.0081               160.7641               166.3885
 Red. masses --      1.2298                 3.4882                 5.1081
 Frc consts  --      0.0140                 0.0531                 0.0833
 IR Inten    --      0.1771                 0.8306                 5.4104

                     13                     14                     15
                      A                      A                      A
 Frequencies --    217.1659               228.5118               232.9982
 Red. masses --      9.2669                 1.2042                 1.8367
 Frc consts  --      0.2575                 0.0370                 0.0587
 IR Inten    --      0.8910                 0.2331                 0.6015

                     16                     17                     18
                      A                      A                      A
 Frequencies --    251.0061               279.1513               296.4423
 Red. masses --      3.8647                 3.8339                 5.0774
 Frc consts  --      0.1435                 0.1760                 0.2629
 IR Inten    --      4.0699                 3.7206                 1.6066

                     19                     20                     21
                      A                      A                      A
 Frequencies --    317.8710               401.7502               416.0021
 Red. masses --      3.0518                 3.3289                 2.7545
 Frc consts  --      0.1817                 0.3166                 0.2809
 IR Inten    --      7.7472                30.9037                 7.3522

                     22                     23                     24
                      A                      A                      A
 Frequencies --    419.9567               457.1376               500.9841
 Red. masses --      2.7680                 3.3894                 2.9256
 Frc consts  --      0.2876                 0.4173                 0.4326
 IR Inten    --      1.4601                13.9785                22.1125

                     25                     26                     27
                      A                      A                      A
 Frequencies --    537.5352               574.2533               609.6897
 Red. masses --      3.0442                 4.1586                 1.8368
 Frc consts  --      0.5182                 0.8080                 0.4023
 IR Inten    --     28.9153                11.8087                64.9992

                     28                     29                     30
                      A                      A                      A
 Frequencies --    629.2464               654.7373               684.5882
 Red. masses --      4.4242                 4.0139                 2.4966
 Frc consts  --      1.0321                 1.0138                 0.6894
 IR Inten    --     13.4012                20.0274                81.1102

                     31                     32                     33
                      A                      A                      A
 Frequencies --    702.4418               733.3323               781.6350
 Red. masses --      1.4344                 4.0170                 4.6402
 Frc consts  --      0.4170                 1.2728                 1.6703
 IR Inten    --     68.5683                28.8187                11.2871

                     34                     35                     36
                      A                      A                      A
 Frequencies --    788.5204               794.4668               853.9059
 Red. masses --      3.9707                 3.8084                 3.4548
 Frc consts  --      1.4546                 1.4163                 1.4842
 IR Inten    --      2.0743                 4.4622                 1.3817

                     37                     38                     39
                      A                      A                      A
 Frequencies --    877.6156               895.6921               940.7080
 Red. masses --      2.9586                 2.2737                 2.3918
 Frc consts  --      1.3426                 1.0747                 1.2471
 IR Inten    --      4.4604                 5.5929                31.1630

                     40                     41                     42
                      A                      A                      A
 Frequencies --    963.2614               977.9216              1088.0856
 Red. masses --      2.0446                 2.5734                 1.5399
 Frc consts  --      1.1178                 1.4500                 1.0741
 IR Inten    --      4.0574                 1.2106                25.4193

                     43                     44                     45
                      A                      A                      A
 Frequencies --   1090.3283              1105.9633              1138.8676
 Red. masses --      1.4809                 2.0964                 1.2269
 Frc consts  --      1.0373                 1.5108                 0.9376
 IR Inten    --      1.6275                39.0659                 1.0280

                     46                     47                     48
                      A                      A                      A
 Frequencies --   1150.7023              1155.5050              1187.5817
 Red. masses --      1.4666                 2.0304                 1.3664
 Frc consts  --      1.1441                 1.5972                 1.1354
 IR Inten    --    109.3358               125.1979                 1.8999

                     49                     50                     51
                      A                      A                      A
 Frequencies --   1192.6316              1223.1491              1255.2603
 Red. masses --      1.3082                 2.5707                 1.2855
 Frc consts  --      1.0964                 2.2660                 1.1934
 IR Inten    --    106.8176                17.3875                50.7686

                     52                     53                     54
                      A                      A                      A
 Frequencies --   1269.2548              1285.4539              1294.7684
 Red. masses --      1.2493                 3.6986                 1.2773
 Frc consts  --      1.1858                 3.6008                 1.2616
 IR Inten    --      6.9545                38.9798                 0.6226

                     55                     56                     57
                      A                      A                      A
 Frequencies --   1324.0356              1366.8613              1381.6052
 Red. masses --      1.7273                 1.2418                 2.3462
 Frc consts  --      1.7841                 1.3670                 2.6386
 IR Inten    --     25.3944                 6.4165                56.3153

                     58                     59                     60
                      A                      A                      A
 Frequencies --   1407.8981              1435.3658              1452.7017
 Red. masses --      2.2501                 1.3632                 1.3685
 Frc consts  --      2.6278                 1.6548                 1.7016
 IR Inten    --     76.6938                73.9197                78.3449

                     61                     62                     63
                      A                      A                      A
 Frequencies --   1459.7073              1480.9952              1487.8343
 Red. masses --      1.7252                 1.1361                 1.3664
 Frc consts  --      2.1658                 1.4681                 1.7821
 IR Inten    --    211.2288                21.9013                 8.9305

                     64                     65                     66
                      A                      A                      A
 Frequencies --   1500.3906              1504.8529              1511.5877
 Red. masses --      1.2117                 1.2508                 1.0510
 Frc consts  --      1.6072                 1.6689                 1.4149
 IR Inten    --      5.2284                75.1503                 8.0900

                     67                     68                     69
                      A                      A                      A
 Frequencies --   1524.2873              1531.1279              1532.0877
 Red. masses --      1.0921                 1.0736                 1.0565
 Frc consts  --      1.4951                 1.4829                 1.4611
 IR Inten    --     10.8921                 8.5128                10.2151

                     70                     71                     72
                      A                      A                      A
 Frequencies --   1535.8172              1568.8007              1749.5669
 Red. masses --      1.1174                 1.3068                 9.9240
 Frc consts  --      1.5529                 1.8949                17.8977
 IR Inten    --     11.6848                33.5756               628.7446

                     73                     74                     75
                      A                      A                      A
 Frequencies --   1764.4621              1852.4037              3034.5452
 Red. masses --      7.7466                 9.5813                 1.0431
 Frc consts  --     14.2097                19.3708                 5.6596
 IR Inten    --    130.5918               351.6849                27.4741

                     76                     77                     78
                      A                      A                      A
 Frequencies --   3043.3082              3064.7282              3083.4299
 Red. masses --      1.0410                 1.0349                 1.0833
 Frc consts  --      5.6803                 5.7270                 6.0682
 IR Inten    --     75.6908                20.2226                12.5455

                     79                     80                     81
                      A                      A                      A
 Frequencies --   3086.0296              3090.0496              3093.0425
 Red. masses --      1.1002                 1.0631                 1.1044
 Frc consts  --      6.1736                 5.9808                 6.2249
 IR Inten    --     42.9531                24.4939                21.2547

                     82                     83                     84
                      A                      A                      A
 Frequencies --   3108.8557              3138.2976              3150.5884
 Red. masses --      1.0597                 1.1025                 1.1035
 Frc consts  --      6.0343                 6.3977                 6.4534
 IR Inten    --     16.9720                26.3482                 6.3996

                     85                     86                     87
                      A                      A                      A
 Frequencies --   3170.2720              3176.6917              3193.4275
 Red. masses --      1.1063                 1.1037                 1.0937
 Frc consts  --      6.5514                 6.5623                 6.5716
 IR Inten    --      3.1612                 4.1716                14.8584

                     88                     89                     90
                      A                      A                      A
 Frequencies --   3201.6511              3548.5003              3688.5473
 Red. masses --      1.0966                 1.0751                 1.0640
 Frc consts  --      6.6228                 7.9758                 8.5295
 IR Inten    --      1.6419               118.9244                54.9343

 - Thermochemistry -
 -------------------
 Temperature   298.150 Kelvin.  Pressure   1.00000 Atm.
 Atom     1 has atomic number  6 and mass  12.00000

 Molecular mass:   248.08308 amu.
 Principal axes and moments of inertia in atomic units:
                           1         2         3
     Eigenvalues --  1341.13509********************
           X            0.99994   0.01076   0.00253
           Y           -0.01081   0.99974   0.02030
           Z           -0.00231  -0.02032   0.99979
 This molecule is an asymmetric top.
 Rotational symmetry number  1.
 Warning -- assumption of classical behavior for rotation
           may cause significant error
 Rotational temperatures (Kelvin)      0.06458     0.00824     0.00788
 Rotational constants (GHZ):           1.34568     0.17174     0.16419
 Zero-point vibrational energy     686277.6 (Joules/Mol)
                                  164.02428 (Kcal/Mol)
 Warning -- explicit consideration of  27 degrees of freedom as
           vibrations may cause significant error
 Vibrational temperatures:     39.15    44.93    59.78    65.08    76.78
          (Kelvin)            110.00   121.97   140.85   161.67   200.00
                              231.30   239.40   312.45   328.78   335.23
                              361.14   401.64   426.51   457.35   578.03
                              598.53   604.22   657.72   720.80   773.39
                              826.22   877.21   905.35   942.02   984.97
                             1010.66  1055.10  1124.60  1134.50  1143.06
                             1228.58  1262.69  1288.70  1353.47  1385.92
                             1407.01  1565.51  1568.74  1591.23  1638.58
                             1655.60  1662.51  1708.67  1715.93  1759.84
                             1806.04  1826.17  1849.48  1862.88  1904.99
                             1966.61  1987.82  2025.65  2065.17  2090.11
                             2100.19  2130.82  2140.66  2158.73  2165.15
                             2174.84  2193.11  2202.95  2204.33  2209.70
                             2257.15  2517.24  2538.67  2665.20  4366.03
                             4378.64  4409.46  4436.37  4440.11  4445.89
                             4450.20  4472.95  4515.31  4532.99  4561.31
                             4570.55  4594.63  4606.46  5105.50  5307.00

 Zero-point correction=                           0.261389 (Hartree/Particle)
 Thermal correction to Energy=                    0.280121
 Thermal correction to Enthalpy=                  0.281065
 Thermal correction to Gibbs Free Energy=         0.211609
 Sum of electronic and zero-point Energies=          -1161.009450
 Sum of electronic and thermal Energies=             -1160.990718
 Sum of electronic and thermal Enthalpies=           -1160.989774
 Sum of electronic and thermal Free Energies=        -1161.059230

                     E (Thermal)             CV                S
                      KCal/Mol        Cal/Mol-Kelvin    Cal/Mol-Kelvin
 Total                  175.779             65.332            146.182
 Electronic               0.000              0.000              0.000
 Translational            0.889              2.981             42.426
 Rotational               0.889              2.981             33.404
 Vibrational            174.001             59.370             70.352
 Vibration     1          0.593              1.984              6.023
 Vibration     2          0.594              1.983              5.750
 Vibration     3          0.594              1.981              5.184
 Vibration     4          0.595              1.979              5.016
 Vibration     5          0.596              1.976              4.689
 Vibration     6          0.599              1.965              3.980
 Vibration     7          0.601              1.960              3.777
 Vibration     8          0.603              1.951              3.496
 Vibration     9          0.607              1.939              3.228
 Vibration    10          0.615              1.914              2.817
 Vibration    11          0.622              1.890              2.541
 Vibration    12          0.624              1.884              2.476
 Vibration    13          0.646              1.815              1.983
 Vibration    14          0.651              1.798              1.891
 Vibration    15          0.654              1.790              1.856
 Vibration    16          0.663              1.761              1.724
 Vibration    17          0.679              1.712              1.539
 Vibration    18          0.690              1.680              1.437
 Vibration    19          0.704              1.639              1.321
 Vibration    20          0.767              1.466              0.956
 Vibration    21          0.779              1.435              0.906
 Vibration    22          0.783              1.427              0.892
 Vibration    23          0.815              1.345              0.774
 Vibration    24          0.856              1.248              0.656
 Vibration    25          0.893              1.167              0.571
 Vibration    26          0.931              1.087              0.496
 Vibration    27          0.969              1.011              0.433

 Optimization completed.
    -- Stationary point found.
 Normal termination of Gaussian 16 at Fri Dec 11 00:30:47 2020.

 ----------------------------------------------------------------------
 # B3LYP/6-311++G(d,p) empiricaldispersion=gd3bj scf=xqc pop=npa geom=c
 heck
 ----------------------------------------------------------------------

 ---------------------------------------
 CID_104569063_JID_6656_Energie_neutraal
 ---------------------------------------
 Structure from the checkpoint file:  "JID_6656.chk"
 Charge =  0 Multiplicity = 1

 SCF Done:  E(RB3LYP) =  -1161.53688094     A.U. after   16 cycles
 Normal termination of Gaussian 16 at Fri Dec 11 00:34:52 2020.

 ----------------------------------------------------------------------
 # B3LYP/6-311++G(d,p) empiricaldispersion=gd3bj scf=xqc pop=npa geom=c
 heck
 ----------------------------------------------------------------------

 -------------------------------------
 CID_104569063_JID_6656_Energie_kation
 -------------------------------------
 Structure from the checkpoint file:  "JID_6656.chk"
 Charge =  1 Multiplicity = 2

 SCF Done:  E(UB3LYP) =  -1161.23137378     A.U. after   28 cycles
 Normal termination of Gaussian 16 at Fri Dec 11 00:44:34 2020.
 Gaussian 16:  ES64L-G16RevA.03 25-Dec-2016

 ----------------------------------------------------------------------
 # B3LYP/6-311++G(d,p) empiricaldispersion=gd3bj scf=xqc pop=npa geom=c
 heck
 ----------------------------------------------------------------------

 ------------------------------------
 CID_104569063_JID_6656_Energie_anion
 ------------------------------------
 Structure from the checkpoint file:  "JID_6656.chk"
 Charge = -1 Multiplicity = 2

                         Standard orientation:
 ---------------------------------------------------------------------
 Center     Atomic      Atomic             Coordinates (Angstroms)
 Number     Number       Type             X           Y           Z
 ---------------------------------------------------------------------
      1          6           0       -1.594113   -1.109107    1.273597
      2          6           0       -1.747086   -0.147235    0.079018
      3          6           0       -3.162231    0.466981    0.098756
      4          8           0       -3.320280    1.590710    0.572027
      5          7           0       -4.202187   -0.285638   -0.366155
      6          6           0       -4.115650   -1.633166   -0.902181
      7          6           0       -5.556103    0.240556   -0.243497
      8          7           0       -0.823114    0.968284    0.150825
      9          6           0        0.498124    1.022149   -0.167229
     10          8           0        1.162659    2.039577    0.025623
     11          6           0        1.155225   -0.212032   -0.767993
     12         16           0        2.139359   -1.130437    0.489611
     13          6           0        3.468087    0.096349    0.827498
     14          6           0        4.622770   -0.026018   -0.137438
     15          8           0        5.744332   -0.376171    0.149699
     16          8           0        4.263748    0.310937   -1.403538
     17          1           0       -1.806921   -0.568905    2.201145
     18          1           0       -0.569590   -1.486339    1.328918
     19          1           0       -2.280609   -1.958901    1.201028
     20          1           0       -1.582262   -0.684578   -0.858850
     21          1           0       -4.555506   -2.361124   -0.206935
     22          1           0       -4.670044   -1.687622   -1.846679
     23          1           0       -3.086114   -1.925006   -1.098668
     24          1           0       -5.500828    1.246971    0.166736
     25          1           0       -6.039106    0.267043   -1.227610
     26          1           0       -6.154010   -0.395976    0.421308
     27          1           0       -1.221340    1.813122    0.552162
     28          1           0        0.450823   -0.944645   -1.167430
     29          1           0        1.827488    0.108711   -1.565068
     30          1           0        3.018164    1.092784    0.777301
     31          1           0        3.838035   -0.103433    1.833284
     32          1           0        5.061380    0.185084   -1.950796
 ---------------------------------------------------------------------

 SCF Done:  E(UB3LYP) =  -1161.53598368     A.U. after   30 cycles

 The electronic state is 2-A.
 Alpha  occ. eigenvalues --  -88.76643 -19.09668 -19.03889 -19.00321 -18.99825
 Alpha  occ. eigenvalues --  -14.26073 -14.24482 -10.22737 -10.18852 -10.18748
 Alpha  occ. eigenvalues --  -10.13915 -10.12472 -10.11868 -10.10812 -10.10525
 Alpha  occ. eigenvalues --  -10.07825  -7.85197  -5.81614  -5.81255  -5.80524
 Alpha  occ. eigenvalues --   -1.03588  -0.95978  -0.94873  -0.94651  -0.85140
 Alpha  occ. eigenvalues --   -0.83794  -0.73309  -0.68803  -0.66446  -0.63243
 Alpha  occ. eigenvalues --   -0.61236  -0.57805  -0.56194  -0.52614  -0.48766
 Alpha  occ. eigenvalues --   -0.46488  -0.43071  -0.42380  -0.41633  -0.40721
 Alpha  occ. eigenvalues --   -0.39299  -0.38695  -0.38263  -0.37176  -0.35892
 Alpha  occ. eigenvalues --   -0.35427  -0.34750  -0.33358  -0.33095  -0.31825
 Alpha  occ. eigenvalues --   -0.31514  -0.31238  -0.30131  -0.29802  -0.29410
 Alpha  occ. eigenvalues --   -0.28543  -0.27815  -0.27264  -0.25418  -0.23961
 Alpha  occ. eigenvalues --   -0.21346  -0.18151  -0.17890  -0.16923  -0.15800
 Alpha  occ. eigenvalues --   -0.14462   0.03567
 Alpha virt. eigenvalues --    0.05529   0.05906   0.06897   0.07485   0.07706
 Alpha virt. eigenvalues --    0.08504   0.08781   0.09835   0.09948   0.10620
 Alpha virt. eigenvalues --    0.11037   0.11361   0.11665   0.12109   0.12801

  Beta  occ. eigenvalues --  -88.76622 -19.09651 -19.03840 -19.00309 -18.99815
  Beta  occ. eigenvalues --  -14.26071 -14.24484 -10.22660 -10.18842 -10.18738
  Beta  occ. eigenvalues --  -10.13897 -10.12460 -10.11834 -10.10728 -10.10486
  Beta  occ. eigenvalues --  -10.07794  -7.85177  -5.81550  -5.81244  -5.80511
  Beta  occ. eigenvalues --   -1.03514  -0.95957  -0.94852  -0.94578  -0.85120
  Beta  occ. eigenvalues --   -0.83781  -0.73227  -0.68760  -0.66366  -0.63150
  Beta  occ. eigenvalues --   -0.61163  -0.57703  -0.56125  -0.52563  -0.48710
  Beta  occ. eigenvalues --   -0.46427  -0.43002  -0.42299  -0.41566  -0.40638
  Beta  occ. eigenvalues --   -0.39212  -0.38597  -0.38181  -0.37107  -0.35803
  Beta  occ. eigenvalues --   -0.35383  -0.34665  -0.33323  -0.33050  -0.31774
  Beta  occ. eigenvalues --   -0.31454  -0.31178  -0.30080  -0.29760  -0.29355
  Beta  occ. eigenvalues --   -0.28455  -0.27769  -0.27205  -0.25211  -0.23862
  Beta  occ. eigenvalues --   -0.21297  -0.18124  -0.17869  -0.16895  -0.15753
  Beta  occ. eigenvalues --   -0.14414
  Beta virt. eigenvalues --    0.05828   0.06181   0.06616   0.07438   0.08041
  Beta virt. eigenvalues --    0.08338   0.08706   0.09358   0.09931   0.10307
  Beta virt. eigenvalues --    0.11014   0.11258   0.11820   0.11889   0.12383

 Mulliken charges and spin densities:
               1          2
     1  C    0.377092  -0.762084
     2  C   -1.178373   0.674674
     3  C    0.066769   0.043239
     4  O   -0.364535   0.007592
     5  N   -0.250286   0.273754
     6  C    1.721144  -2.125874
     7  C    0.786414  -1.020503
     8  N   -0.069994   0.003994
     9  C   -0.152074  -0.066166
    10  O   -0.319266  -0.001174
    11  C    0.075534  -0.333895
    12  S    0.265835   0.058481
    13  C   -0.583503   0.038069
    14  C   -0.077585   0.020873
    15  O   -0.303228   0.015024
    16  O   -0.153578   0.004286
    17  H    0.091558   0.081401
    18  H   -0.070303   0.161169
    19  H   -0.106545   0.257770
    20  H    0.384657  -0.161031
    21  H   -0.596544   0.790093
    22  H   -0.500487   0.659028
    23  H   -0.664216   0.827724
    24  H    0.069017   0.109551
    25  H   -0.163764   0.314486
    26  H   -0.259401   0.412579
    27  H    0.310114   0.016794
    28  H   -0.358251   0.622536
    29  H    0.253534   0.062399
    30  H    0.240873   0.008283
    31  H    0.257681  -0.001402
    32  H    0.271709   0.008330
 Sum of Mulliken charges =  -1.00000   1.00000

 Dipole moment (field-independent basis, Debye):
    X=              7.4470    Y=              3.4581    Z=              1.1573  Tot=              8.2919
 Quadrupole moment (field-independent basis, Debye-Ang):
   XX=           -214.3223   YY=           -153.8790   ZZ=           -126.8475
   XY=            -15.2258   XZ=            -13.7933   YZ=             -6.2093

 Summary of Natural Population Analysis:

                                       Natural Population
                Natural  -----------------------------------------------
    Atom  No    Charge         Core      Valence    Rydberg      Total
 -----------------------------------------------------------------------
      C    1   -0.28973      0.99963     2.28396    0.00613     3.28973
      C    2   -0.05006      0.99957     2.03845    0.01203     3.05006
      C    3    0.34917      0.99962     1.62778    0.02343     2.65083
      O    4   -0.33630      0.99988     3.33142    0.00500     4.33630
      N    5   -0.24578      0.99965     2.73547    0.01066     3.74578
      C    6   -0.17641      0.99963     2.16838    0.00840     3.17641
      C    7   -0.17893      0.99963     2.17139    0.00790     3.17893
      N    8   -0.31509      0.99965     2.80519    0.01025     3.81509
      C    9    0.33629      0.99965     1.64049    0.02357     2.66371
      O   10   -0.33305      0.99988     3.32752    0.00565     4.33305
      C   11   -0.29358      0.99955     2.28306    0.01098     3.29358
      S   12    0.11332      4.99965     2.86815    0.01888     7.88668
      C   13   -0.30533      0.99953     2.29703    0.00877     3.30533
      C   14    0.40802      0.99971     1.56804    0.02422     2.59198
      O   15   -0.30516      0.99987     3.29870    0.00659     4.30516
      O   16   -0.34578      0.99988     3.33993    0.00597     4.34578
      H   17    0.10220      0.00000     0.39675    0.00104     0.39780
      H   18    0.10751      0.00000     0.39087    0.00162     0.39249
      H   19    0.10580      0.00000     0.39300    0.00121     0.39420
      H   20    0.10682      0.00000     0.39087    0.00231     0.39318
      H   21    0.10030      0.00000     0.39527    0.00443     0.39970
      H   22    0.10099      0.00000     0.39627    0.00274     0.39901
      H   23    0.10510      0.00000     0.39144    0.00345     0.39490
      H   24    0.11425      0.00000     0.38475    0.00100     0.38575
      H   25    0.09574      0.00000     0.40319    0.00108     0.40426
      H   26    0.09639      0.00000     0.40230    0.00131     0.40361
      H   27    0.21058      0.00000     0.28722    0.00220     0.28942
      H   28    0.11443      0.00000     0.38397    0.00160     0.38557
      H   29    0.12185      0.00000     0.37652    0.00163     0.37815
      H   30    0.13658      0.00000     0.36186    0.00156     0.36342
      H   31    0.11460      0.00000     0.38462    0.00078     0.38540
      H   32    0.23525      0.00000     0.26026    0.00449     0.26475
 =======================================================================
   * Total *   -0.00000     19.99498    45.78412    0.22090    66.00000

 Normal termination of Gaussian 16 at Fri Dec 11 00:54:52 2020.
