 Gaussian 16, Revision A.03,

 -----------------------------------------------------------
 # opt freq B3LYP/6-31G(d) empiricaldispersion=gd3bj scf=xqc
 -----------------------------------------------------------

 ------------------------------
 CID_79358357_JID_6420_neutraal
 ------------------------------
 Symbolic Z-matrix:
 Charge =  0 Multiplicity = 1

 SCF Done:  E(RB3LYP) =  -715.687501413     A.U. after   14 cycles
 SCF Done:  E(RB3LYP) =  -715.691082490     A.U. after   12 cycles
 SCF Done:  E(RB3LYP) =  -715.691793990     A.U. after   11 cycles
 SCF Done:  E(RB3LYP) =  -715.691085025     A.U. after   12 cycles
 SCF Done:  E(RB3LYP) =  -715.692000075     A.U. after   11 cycles
 SCF Done:  E(RB3LYP) =  -715.692183392     A.U. after   12 cycles
 SCF Done:  E(RB3LYP) =  -715.692324175     A.U. after   10 cycles
 SCF Done:  E(RB3LYP) =  -715.692376545     A.U. after   10 cycles
 SCF Done:  E(RB3LYP) =  -715.692410792     A.U. after   11 cycles
 SCF Done:  E(RB3LYP) =  -715.692453312     A.U. after   11 cycles
 SCF Done:  E(RB3LYP) =  -715.692621256     A.U. after   10 cycles
 SCF Done:  E(RB3LYP) =  -715.692620859     A.U. after   10 cycles
 SCF Done:  E(RB3LYP) =  -715.692621613     A.U. after    9 cycles
 SCF Done:  E(RB3LYP) =  -715.692621697     A.U. after    7 cycles
 SCF Done:  E(RB3LYP) =  -715.692621731     A.U. after    7 cycles
 Optimization completed.
    -- Stationary point found.
 Normal termination of Gaussian 16 at Thu Dec 10 22:53:35 2020.

 --------------------------------------------------------------------
 #N Geom=AllCheck Guess=TCheck SCRF=Check GenChk RB3LYP/6-31G(d) Freq
 --------------------------------------------------------------------

 Structure from the checkpoint file:  "JID_6420.chk"
 ------------------------------
 CID_79358357_JID_6420_neutraal
 ------------------------------
 Charge =  0 Multiplicity = 1

 SCF Done:  E(RB3LYP) =  -715.692621731     A.U. after    1 cycles

  Exact polarizability: 173.531   2.643 134.828  -4.382   1.839 130.944
 Approx polarizability: 203.569   2.909 201.468  -7.964   8.505 204.499

                      1                      2                      3
                      A                      A                      A
 Frequencies --     16.4109                20.9744                27.4760
 Red. masses --      4.6325                 4.8342                 4.7290
 Frc consts  --      0.0007                 0.0013                 0.0021
 IR Inten    --      0.3801                 0.1447                 0.6446

                      4                      5                      6
                      A                      A                      A
 Frequencies --     48.0232                58.1796                97.9517
 Red. masses --      4.2324                 4.2805                 2.9757
 Frc consts  --      0.0058                 0.0085                 0.0168
 IR Inten    --      0.9179                 0.1182                 0.5861

                      7                      8                      9
                      A                      A                      A
 Frequencies --    120.4462               138.6247               160.3112
 Red. masses --      3.6187                 1.3814                 1.3474
 Frc consts  --      0.0309                 0.0156                 0.0204
 IR Inten    --      1.8800                 0.0642                 0.0576

                     10                     11                     12
                      A                      A                      A
 Frequencies --    170.7686               182.7433               187.5566
 Red. masses --      1.4278                 2.0778                 1.5717
 Frc consts  --      0.0245                 0.0409                 0.0326
 IR Inten    --      0.3878                 0.2860                 0.1795

                     13                     14                     15
                      A                      A                      A
 Frequencies --    203.8560               207.2887               271.3297
 Red. masses --      1.4717                 1.8870                 2.3449
 Frc consts  --      0.0360                 0.0478                 0.1017
 IR Inten    --      0.2394                 0.6368                 0.5975

                     16                     17                     18
                      A                      A                      A
 Frequencies --    278.2173               305.2464               318.0219
 Red. masses --      2.2251                 1.9045                 2.1269
 Frc consts  --      0.1015                 0.1046                 0.1267
 IR Inten    --      2.3876                 0.3717                 1.0488

                     19                     20                     21
                      A                      A                      A
 Frequencies --    343.4500               368.2778               397.2872
 Red. masses --      2.2902                 2.0341                 2.1415
 Frc consts  --      0.1592                 0.1625                 0.1991
 IR Inten    --      3.0393                 4.5847                 0.4492

                     22                     23                     24
                      A                      A                      A
 Frequencies --    403.4276               430.2879               439.1357
 Red. masses --      2.0828                 2.6790                 2.1984
 Frc consts  --      0.1997                 0.2922                 0.2498
 IR Inten    --      4.9089                 1.0911                 2.4123

                     25                     26                     27
                      A                      A                      A
 Frequencies --    482.8748               515.7854               524.5073
 Red. masses --      2.4967                 3.0922                 2.3826
 Frc consts  --      0.3430                 0.4847                 0.3862
 IR Inten    --      2.3064                 5.2268                22.7513

                     28                     29                     30
                      A                      A                      A
 Frequencies --    531.6350               566.9340               627.9497
 Red. masses --      2.0379                 2.1391                 3.1320
 Frc consts  --      0.3394                 0.4051                 0.7276
 IR Inten    --     11.8343                10.7174                12.4274

                     31                     32                     33
                      A                      A                      A
 Frequencies --    664.7827               672.0247               690.1660
 Red. masses --      2.7944                 2.0136                 1.3464
 Frc consts  --      0.7276                 0.5358                 0.3779
 IR Inten    --     11.1665                40.1844                89.1300

                     34                     35                     36
                      A                      A                      A
 Frequencies --    724.0088               734.8019               795.2206
 Red. masses --      1.8331                 2.3383                 2.3443
 Frc consts  --      0.5661                 0.7438                 0.8735
 IR Inten    --     60.1897                27.3640                10.4960

                     37                     38                     39
                      A                      A                      A
 Frequencies --    828.0006               858.3694               900.3076
 Red. masses --      2.8678                 2.4481                 2.1850
 Frc consts  --      1.1584                 1.0627                 1.0435
 IR Inten    --      2.2319                13.7837                15.6136

                     40                     41                     42
                      A                      A                      A
 Frequencies --    925.6215               956.0340               973.7306
 Red. masses --      2.2385                 1.9632                 1.3911
 Frc consts  --      1.1300                 1.0572                 0.7771
 IR Inten    --     10.2059                 8.9440                 1.6443

                     43                     44                     45
                      A                      A                      A
 Frequencies --    986.1784               992.0502              1003.3333
 Red. masses --      1.3794                 1.8753                 1.6183
 Frc consts  --      0.7904                 1.0874                 0.9598
 IR Inten    --      1.8050                 1.2551                 2.6556

                     46                     47                     48
                      A                      A                      A
 Frequencies --   1008.3687              1016.9840              1031.7703
 Red. masses --      1.5311                 1.4282                 1.5480
 Frc consts  --      0.9172                 0.8703                 0.9709
 IR Inten    --      1.6265                 2.8471                 2.2053

                     49                     50                     51
                      A                      A                      A
 Frequencies --   1052.6062              1081.5614              1104.3180
 Red. masses --      1.6036                 1.3366                 2.0354
 Frc consts  --      1.0468                 0.9212                 1.4625
 IR Inten    --      1.3033                 1.2024                 1.9778

                     52                     53                     54
                      A                      A                      A
 Frequencies --   1113.1307              1128.7042              1149.6245
 Red. masses --      2.6152                 2.4135                 1.8863
 Frc consts  --      1.9092                 1.8116                 1.4689
 IR Inten    --     13.1873                40.8425                66.6959

                     55                     56                     57
                      A                      A                      A
 Frequencies --   1158.3643              1168.1154              1190.1904
 Red. masses --      1.8615                 2.0008                 1.5589
 Frc consts  --      1.4717                 1.6085                 1.3011
 IR Inten    --     15.5075               164.1108                 6.1686

                     58                     59                     60
                      A                      A                      A
 Frequencies --   1205.7766              1215.1571              1237.5965
 Red. masses --      2.1898                 1.8334                 1.4989
 Frc consts  --      1.8758                 1.5951                 1.3526
 IR Inten    --     49.3290                14.9166                39.5079

                     61                     62                     63
                      A                      A                      A
 Frequencies --   1246.4425              1275.4680              1306.9867
 Red. masses --      2.6099                 1.4865                 1.6226
 Frc consts  --      2.3891                 1.4248                 1.6331
 IR Inten    --      0.0430                 7.7900                 2.9737

                     64                     65                     66
                      A                      A                      A
 Frequencies --   1309.1123              1332.0730              1344.7230
 Red. masses --      2.1772                 1.4920                 1.1629
 Frc consts  --      2.1984                 1.5598                 1.2389
 IR Inten    --      1.0663                 6.2411                 2.7886

                     67                     68                     69
                      A                      A                      A
 Frequencies --   1378.3911              1389.8173              1398.3972
 Red. masses --      1.4470                 1.4644                 1.5188
 Frc consts  --      1.6198                 1.6666                 1.7499
 IR Inten    --      2.2499                 6.3989                 2.6865

                     70                     71                     72
                      A                      A                      A
 Frequencies --   1416.2183              1421.4877              1433.2129
 Red. masses --      1.4600                 1.4018                 1.3432
 Frc consts  --      1.7253                 1.6689                 1.6256
 IR Inten    --     12.5432                 2.3659                 2.3004

                     73                     74                     75
                      A                      A                      A
 Frequencies --   1434.8739              1438.8055              1444.1900
 Red. masses --      1.5299                 1.6930                 1.2772
 Frc consts  --      1.8558                 2.0649                 1.5695
 IR Inten    --     31.5439                20.0196                 2.1136

                     76                     77                     78
                      A                      A                      A
 Frequencies --   1446.3281              1469.7410              1490.8025
 Red. masses --      1.3367                 1.2437                 1.0968
 Frc consts  --      1.6475                 1.5828                 1.4362
 IR Inten    --      2.3309                 1.6212                12.8283

                     79                     80                     81
                      A                      A                      A
 Frequencies --   1504.7420              1507.0222              1513.3174
 Red. masses --      1.1024                 1.0504                 1.0869
 Frc consts  --      1.4707                 1.4055                 1.4666
 IR Inten    --      7.9488                 1.1638                 0.9092

                     82                     83                     84
                      A                      A                      A
 Frequencies --   1514.6096              1521.7270              1524.6785
 Red. masses --      1.1096                 1.0776                 1.0582
 Frc consts  --      1.4997                 1.4703                 1.4493
 IR Inten    --      5.8926                 8.3135                 2.0815

                     85                     86                     87
                      A                      A                      A
 Frequencies --   1526.2627              1526.6825              1529.6094
 Red. masses --      1.0812                 1.0526                 1.0777
 Frc consts  --      1.4839                 1.4454                 1.4856
 IR Inten    --     11.6297                 4.4236                 4.8990

                     88                     89                     90
                      A                      A                      A
 Frequencies --   1533.4293              1536.4250              1545.3003
 Red. masses --      1.0834                 1.0934                 1.0533
 Frc consts  --      1.5010                 1.5208                 1.4819
 IR Inten    --      7.6868                21.4818                 7.0140

                     91                     92                     93
                      A                      A                      A
 Frequencies --   1561.7993              1843.8066              3030.4142
 Red. masses --      1.2523                 9.3805                 1.0388
 Frc consts  --      1.7998                18.7891                 5.6206
 IR Inten    --     34.7554               219.7353                34.0418

                     94                     95                     96
                      A                      A                      A
 Frequencies --   3032.2891              3036.8514              3040.8964
 Red. masses --      1.0652                 1.0403                 1.0422
 Frc consts  --      5.7707                 5.6526                 5.6782
 IR Inten    --     14.7320                50.2139                41.4219

                     97                     98                     99
                      A                      A                      A
 Frequencies --   3042.2820              3047.6727              3048.1551
 Red. masses --      1.0586                 1.0411                 1.0677
 Frc consts  --      5.7729                 5.6976                 5.8449
 IR Inten    --     65.5176                27.1708                 5.9146

                    100                    101                    102
                      A                      A                      A
 Frequencies --   3057.8597              3062.5684              3073.8075
 Red. masses --      1.0636                 1.0690                 1.0958
 Frc consts  --      5.8595                 5.9077                 6.1003
 IR Inten    --     24.0401                 9.0858                32.9934

                    103                    104                    105
                      A                      A                      A
 Frequencies --   3081.7116              3084.9219              3089.1302
 Red. masses --      1.1016                 1.0985                 1.1015
 Frc consts  --      6.1639                 6.1592                 6.1933
 IR Inten    --     23.9812                98.8084                21.3386

                    106                    107                    108
                      A                      A                      A
 Frequencies --   3092.5355              3094.5745              3099.1028
 Red. masses --      1.0991                 1.0999                 1.1014
 Frc consts  --      6.1931                 6.2059                 6.2327
 IR Inten    --     33.9347                14.7862                41.5616

                    109                    110                    111
                      A                      A                      A
 Frequencies --   3103.2078              3114.3168              3121.0989
 Red. masses --      1.1003                 1.0942                 1.0980
 Frc consts  --      6.2429                 6.2526                 6.3017
 IR Inten    --     26.9645                26.5144                13.8369

                    112                    113                    114
                      A                      A                      A
 Frequencies --   3123.2502              3126.4074              3141.3198
 Red. masses --      1.0884                 1.0978                 1.0946
 Frc consts  --      6.2552                 6.3224                 6.3638
 IR Inten    --     11.9697                36.2529                45.4311

                    115                    116                    117
                      A                      A                      A
 Frequencies --   3144.5484              3534.7038              3681.7209
 Red. masses --      1.0941                 1.0731                 1.0639
 Frc consts  --      6.3740                 7.8993                 8.4966
 IR Inten    --     50.1848                 0.8639                44.3113

 - Thermochemistry -
 -------------------
 Temperature   298.150 Kelvin.  Pressure   1.00000 Atm.
 Atom     1 has atomic number  6 and mass  12.00000

 Molecular mass:   227.18853 amu.
 Principal axes and moments of inertia in atomic units:
                           1         2         3
     Eigenvalues --  1507.224039504.878249717.98962
           X            0.99997  -0.00754  -0.00085
           Y            0.00745   0.99671  -0.08066
           Z            0.00146   0.08065   0.99674
 This molecule is an asymmetric top.
 Rotational symmetry number  1.
 Warning -- assumption of classical behavior for rotation
           may cause significant error
 Rotational temperatures (Kelvin)      0.05747     0.00911     0.00891
 Rotational constants (GHZ):           1.19739     0.18988     0.18571
 Zero-point vibrational energy     973662.8 (Joules/Mol)
                                  232.71099 (Kcal/Mol)
 Warning -- explicit consideration of  29 degrees of freedom as
           vibrations may cause significant error
 Vibrational temperatures:     23.61    30.18    39.53    69.09    83.71
          (Kelvin)            140.93   173.30   199.45   230.65   245.70
                              262.93   269.85   293.30   298.24   390.38
                              400.29   439.18   457.56   494.15   529.87
                              571.61   580.44   619.09   631.82   694.75
                              742.10   754.65   764.90   815.69   903.48
                              956.47   966.89   993.00  1041.69  1057.22
                             1144.15  1191.31  1235.00  1295.34  1331.76
                             1375.52  1400.98  1418.89  1427.34  1443.57
                             1450.82  1463.21  1484.49  1514.47  1556.13
                             1588.87  1601.55  1623.95  1654.05  1666.63
                             1680.66  1712.42  1734.84  1748.34  1780.63
                             1793.35  1835.11  1880.46  1883.52  1916.56
                             1934.76  1983.20  1999.64  2011.98  2037.62
                             2045.20  2062.07  2064.46  2070.12  2077.87
                             2080.94  2114.63  2144.93  2164.99  2168.27
                             2177.33  2179.19  2189.43  2193.67  2195.95
                             2196.56  2200.77  2206.26  2210.57  2223.34
                             2247.08  2652.83  4360.09  4362.79  4369.35
                             4375.17  4377.17  4384.92  4385.62  4399.58
                             4406.35  4422.52  4433.90  4438.51  4444.57
                             4449.47  4452.40  4458.92  4464.82  4480.81
                             4490.57  4493.66  4498.20  4519.66  4524.30
                             5085.65  5297.18

 Zero-point correction=                           0.370849 (Hartree/Particle)
 Thermal correction to Energy=                    0.390056
 Thermal correction to Enthalpy=                  0.391000
 Thermal correction to Gibbs Free Energy=         0.321171
 Sum of electronic and zero-point Energies=           -715.321773
 Sum of electronic and thermal Energies=              -715.302566
 Sum of electronic and thermal Enthalpies=            -715.301622
 Sum of electronic and thermal Free Energies=         -715.371450

                     E (Thermal)             CV                S
                      KCal/Mol        Cal/Mol-Kelvin    Cal/Mol-Kelvin
 Total                  244.764             71.258            146.967
 Electronic               0.000              0.000              0.000
 Translational            0.889              2.981             42.164
 Rotational               0.889              2.981             33.298
 Vibrational            242.986             65.297             71.505
 Vibration     1          0.593              1.986              7.027
 Vibration     2          0.593              1.986              6.540
 Vibration     3          0.593              1.984              6.004
 Vibration     4          0.595              1.978              4.897
 Vibration     5          0.596              1.974              4.518
 Vibration     6          0.603              1.951              3.495
 Vibration     7          0.609              1.932              3.093
 Vibration     8          0.614              1.915              2.823
 Vibration     9          0.622              1.891              2.546
 Vibration    10          0.626              1.878              2.427
 Vibration    11          0.630              1.863              2.300
 Vibration    12          0.632              1.857              2.252
 Vibration    13          0.640              1.834              2.098
 Vibration    14          0.641              1.829              2.067
 Vibration    15          0.675              1.726              1.588
 Vibration    16          0.679              1.714              1.545
 Vibration    17          0.696              1.664              1.388
 Vibration    18          0.704              1.639              1.320
 Vibration    19          0.722              1.589              1.196
 Vibration    20          0.741              1.537              1.087
 Vibration    21          0.764              1.476              0.973
 Vibration    22          0.769              1.463              0.950
 Vibration    23          0.791              1.404              0.858
 Vibration    24          0.799              1.385              0.829
 Vibration    25          0.839              1.288              0.702
 Vibration    26          0.871              1.215              0.620
 Vibration    27          0.879              1.196              0.600
 Vibration    28          0.887              1.180              0.584
 Vibration    29          0.923              1.103              0.510

 Optimization completed.
    -- Stationary point found.
 Normal termination of Gaussian 16 at Thu Dec 10 23:07:34 2020.

 ----------------------------------------------------------------------
 # B3LYP/6-311++G(d,p) empiricaldispersion=gd3bj scf=xqc pop=npa geom=c
 heck
 ----------------------------------------------------------------------

 --------------------------------------
 CID_79358357_JID_6420_Energie_neutraal
 --------------------------------------
 Structure from the checkpoint file:  "JID_6420.chk"
 Charge =  0 Multiplicity = 1

 SCF Done:  E(RB3LYP) =  -715.907963660     A.U. after   14 cycles
 Normal termination of Gaussian 16 at Thu Dec 10 23:14:29 2020.

 ----------------------------------------------------------------------
 # B3LYP/6-311++G(d,p) empiricaldispersion=gd3bj scf=xqc pop=npa geom=c
 heck
 ----------------------------------------------------------------------

 ------------------------------------
 CID_79358357_JID_6420_Energie_kation
 ------------------------------------
 Structure from the checkpoint file:  "JID_6420.chk"
 Charge =  1 Multiplicity = 2

 SCF Done:  E(UB3LYP) =  -715.632659595     A.U. after   20 cycles
 Normal termination of Gaussian 16 at Thu Dec 10 23:27:12 2020.
 Gaussian 16:  ES64L-G16RevA.03 25-Dec-2016

 ----------------------------------------------------------------------
 # B3LYP/6-311++G(d,p) empiricaldispersion=gd3bj scf=xqc pop=npa geom=c
 heck
 ----------------------------------------------------------------------

 -----------------------------------
 CID_79358357_JID_6420_Energie_anion
 -----------------------------------
 Structure from the checkpoint file:  "JID_6420.chk"
 Charge = -1 Multiplicity = 2

                         Standard orientation:
 ---------------------------------------------------------------------
 Center     Atomic      Atomic             Coordinates (Angstroms)
 Number     Number       Type             X           Y           Z
 ---------------------------------------------------------------------
      1          6           0       -4.821139   -0.284659   -0.744751
      2          6           0       -3.530668   -0.326979    0.059413
      3          6           0       -2.221181   -0.362132   -0.690923
      4          6           0       -2.601550    0.898888    0.088801
      5          6           0       -2.966274    2.141852   -0.706176
      6          6           0       -1.889721    1.252976    1.381623
      7          7           0       -1.175920   -1.305699   -0.383234
      8          6           0        0.079010   -1.075002   -1.100705
      9          6           0        0.882524    0.182702   -0.725493
     10          6           0        1.508963    0.151243    0.676833
     11          6           0        2.528398   -0.973932    0.921035
     12          6           0        3.703702   -0.993902   -0.060601
     13          6           0        4.567557    0.244749    0.023679
     14          8           0        4.626647    1.011390    0.960340
     15          8           0        5.324234    0.404296   -1.091631
     16          6           0       -3.695347   -1.179314    1.308953
     17          1           0       -5.625039    0.202990   -0.177646
     18          1           0       -5.152711   -1.304277   -0.978198
     19          1           0       -4.712289    0.247377   -1.693060
     20          1           0       -2.317250   -0.262707   -1.772540
     21          1           0       -3.701823    2.759540   -0.173638
     22          1           0       -2.073939    2.760533   -0.868405
     23          1           0       -3.380676    1.907085   -1.690287
     24          1           0       -1.497901    0.384759    1.916641
     25          1           0       -1.040511    1.917343    1.181321
     26          1           0       -2.566185    1.779251    2.067089
     27          1           0       -1.011995   -1.373747    0.616638
     28          1           0        0.701715   -1.969075   -0.969961
     29          1           0       -0.170448   -1.032928   -2.168430
     30          1           0        1.669592    0.330450   -1.478010
     31          1           0        0.225410    1.057579   -0.803807
     32          1           0        1.996250    1.112522    0.873196
     33          1           0        0.716133    0.058868    1.428681
     34          1           0        2.924924   -0.868830    1.936602
     35          1           0        2.033436   -1.951556    0.876566
     36          1           0        4.360562   -1.848602    0.152655
     37          1           0        3.377112   -1.122751   -1.097115
     38          1           0        5.867780    1.199492   -0.934712
     39          1           0       -4.472095   -0.760713    1.961220
     40          1           0       -4.004884   -2.193769    1.030743
     41          1           0       -2.786413   -1.273377    1.907294
 ---------------------------------------------------------------------

 SCF Done:  E(UB3LYP) =  -715.896517696     A.U. after   33 cycles
 SCF Done:  E(UB3LYP) =  -715.896517696     a.u. after    1 cycles

 The electronic state is 2-A.
 Alpha  occ. eigenvalues --  -19.07651 -19.02350 -14.20934 -10.21394 -10.10378
 Alpha  occ. eigenvalues --  -10.10114 -10.09310 -10.09022 -10.08887 -10.07983
 Alpha  occ. eigenvalues --  -10.07220 -10.07200 -10.07197 -10.07192 -10.07180
 Alpha  occ. eigenvalues --  -10.07168  -1.01724  -0.92835  -0.82875  -0.76353
 Alpha  occ. eigenvalues --   -0.71949  -0.66805  -0.66310  -0.61639  -0.61468
 Alpha  occ. eigenvalues --   -0.59638  -0.58711  -0.55243  -0.50780  -0.48511
 Alpha  occ. eigenvalues --   -0.46318  -0.42444  -0.41311  -0.40109  -0.39806
 Alpha  occ. eigenvalues --   -0.39300  -0.37766  -0.36982  -0.36021  -0.35598
 Alpha  occ. eigenvalues --   -0.33616  -0.33096  -0.31993  -0.31829  -0.30922
 Alpha  occ. eigenvalues --   -0.30664  -0.30241  -0.29672  -0.29525  -0.29392
 Alpha  occ. eigenvalues --   -0.28579  -0.28105  -0.27676  -0.26308  -0.25111
 Alpha  occ. eigenvalues --   -0.24119  -0.23646  -0.23390  -0.23124  -0.21027
 Alpha  occ. eigenvalues --   -0.19165  -0.17089  -0.11722   0.03933
 Alpha virt. eigenvalues --    0.05229   0.06251   0.06940   0.07302   0.07626
 Alpha virt. eigenvalues --    0.08302   0.09031   0.09328   0.09533   0.09704
 Alpha virt. eigenvalues --    0.10039   0.10762   0.11234   0.11956   0.12208

  Beta  occ. eigenvalues --  -19.07601 -19.02332 -14.20925 -10.21380 -10.10373
  Beta  occ. eigenvalues --  -10.10106 -10.09280 -10.09021 -10.08886 -10.07968
  Beta  occ. eigenvalues --  -10.07211 -10.07189 -10.07179 -10.07165 -10.07158
  Beta  occ. eigenvalues --  -10.07146  -1.01652  -0.92775  -0.82862  -0.76341
  Beta  occ. eigenvalues --   -0.71915  -0.66767  -0.66279  -0.61599  -0.61429
  Beta  occ. eigenvalues --   -0.59593  -0.58664  -0.55191  -0.50712  -0.48479
  Beta  occ. eigenvalues --   -0.46262  -0.42400  -0.41268  -0.40078  -0.39751
  Beta  occ. eigenvalues --   -0.39269  -0.37734  -0.36957  -0.35981  -0.35573
  Beta  occ. eigenvalues --   -0.33587  -0.33069  -0.31956  -0.31795  -0.30897
  Beta  occ. eigenvalues --   -0.30638  -0.30209  -0.29643  -0.29490  -0.29351
  Beta  occ. eigenvalues --   -0.28552  -0.28082  -0.27650  -0.26284  -0.25089
  Beta  occ. eigenvalues --   -0.24097  -0.23621  -0.23334  -0.23100  -0.21010
  Beta  occ. eigenvalues --   -0.19125  -0.17074  -0.11709
  Beta virt. eigenvalues --    0.05745   0.06457   0.06841   0.07368   0.07705
  Beta virt. eigenvalues --    0.07916   0.08673   0.09165   0.09438   0.09724
  Beta virt. eigenvalues --    0.09920   0.10361   0.10886   0.11423   0.11958

 Mulliken charges and spin densities:
               1          2
     1  C    0.091894  -0.562064
     2  C   -0.577057   1.245562
     3  C    0.379908  -1.499978
     4  C   -0.373876   0.491255
     5  C    0.359198  -0.697487
     6  C   -0.121770  -0.434491
     7  N    0.139722   0.032984
     8  C   -0.484217  -0.106402
     9  C    0.142402  -0.189334
    10  C   -0.336771   0.199563
    11  C    0.169708  -0.473758
    12  C    0.460450  -0.752217
    13  C    0.177303  -0.404968
    14  O   -0.289390   0.025453
    15  O   -0.181951   0.067555
    16  C   -0.215867  -0.371752
    17  H   -0.140142   0.293545
    18  H    0.061026   0.083555
    19  H   -0.107410   0.227799
    20  H    0.142129   0.046790
    21  H   -0.087957   0.247565
    22  H    0.028309   0.104904
    23  H   -0.050463   0.166932
    24  H    0.185515  -0.113297
    25  H    0.121603   0.022082
    26  H   -0.086659   0.266061
    27  H    0.301272  -0.095228
    28  H   -0.062738   0.252270
    29  H    0.085769   0.042219
    30  H   -0.125532   0.288174
    31  H    0.289380  -0.091975
    32  H    0.071111   0.086410
    33  H   -0.113357   0.283473
    34  H    0.073004   0.131621
    35  H    0.092672   0.040154
    36  H   -0.470984   0.661199
    37  H    0.272438  -0.045802
    38  H   -0.376926   0.662985
    39  H   -0.059004   0.219923
    40  H    0.031380   0.125933
    41  H   -0.414120   0.522785
 Sum of Mulliken charges =  -1.00000   1.00000

 Dipole moment (field-independent basis, Debye):
    X=             -3.5520    Y=             -0.7874    Z=             -0.8292  Tot=              3.7315
 Quadrupole moment (field-independent basis, Debye-Ang):
   XX=           -232.8811   YY=           -141.1498   ZZ=           -136.9168
   XY=             -2.9007   XZ=              5.8560   YZ=              0.5741

 Summary of Natural Population Analysis:

                                       Natural Population
                Natural  -----------------------------------------------
    Atom  No    Charge         Core      Valence    Rydberg      Total
 -----------------------------------------------------------------------
      C    1   -0.27986      0.99963     2.27436    0.00588     3.27986
      C    2   -0.04323      0.99952     2.03219    0.01152     3.04323
      C    3   -0.00140      0.99947     1.98879    0.01314     3.00140
      C    4   -0.05054      0.99952     2.03876    0.01226     3.05054
      C    5   -0.28147      0.99962     2.27517    0.00667     3.28147
      C    6   -0.28516      0.99962     2.27849    0.00705     3.28516
      N    7   -0.33708      0.99973     2.82566    0.01168     3.83708
      C    8   -0.08430      0.99961     2.07451    0.01018     3.08430
      C    9   -0.20240      0.99962     2.19605    0.00672     3.20240
      C   10   -0.19579      0.99962     2.18877    0.00740     3.19579
      C   11   -0.19209      0.99963     2.18283    0.00963     3.19209
      C   12   -0.24260      0.99957     2.23405    0.00898     3.24260
      C   13    0.40906      0.99972     1.56571    0.02552     2.59094
      O   14   -0.30867      0.99987     3.30246    0.00634     4.30867
      O   15   -0.34507      0.99988     3.33854    0.00665     4.34507
      C   16   -0.28326      0.99962     2.27710    0.00654     3.28326
      H   17    0.09934      0.00000     0.39963    0.00103     0.40066
      H   18    0.09903      0.00000     0.40015    0.00082     0.40097
      H   19    0.09994      0.00000     0.39915    0.00091     0.40006
      H   20    0.09480      0.00000     0.40366    0.00154     0.40520
      H   21    0.09956      0.00000     0.39944    0.00100     0.40044
      H   22    0.09896      0.00000     0.40014    0.00090     0.40104
      H   23    0.09973      0.00000     0.39938    0.00089     0.40027
      H   24    0.09802      0.00000     0.40054    0.00144     0.40198
      H   25    0.10081      0.00000     0.39826    0.00093     0.39919
      H   26    0.10221      0.00000     0.39689    0.00090     0.39779
      H   27    0.17510      0.00000     0.32152    0.00337     0.32490
      H   28    0.09165      0.00000     0.40714    0.00121     0.40835
      H   29    0.09124      0.00000     0.40777    0.00099     0.40876
      H   30    0.09650      0.00000     0.40233    0.00117     0.40350
      H   31    0.09972      0.00000     0.39861    0.00167     0.40028
      H   32    0.10497      0.00000     0.39380    0.00123     0.39503
      H   33    0.09643      0.00000     0.40209    0.00148     0.40357
      H   34    0.10537      0.00000     0.39358    0.00105     0.39463
      H   35    0.09686      0.00000     0.40201    0.00114     0.40314
      H   36    0.11871      0.00000     0.37960    0.00170     0.38129
      H   37    0.11016      0.00000     0.38846    0.00138     0.38984
      H   38    0.24270      0.00000     0.24374    0.01355     0.25730
      H   39    0.10147      0.00000     0.39750    0.00103     0.39853
      H   40    0.10136      0.00000     0.39778    0.00086     0.39864
      H   41    0.09922      0.00000     0.39980    0.00098     0.40078
 =======================================================================
   * Total *    0.00000     15.99425    46.80642    0.19932    63.00000

 Normal termination of Gaussian 16 at Thu Dec 10 23:47:56 2020.
