 Gaussian 16, Revision A.03,

 -----------------------------------------------------------
 # opt freq B3LYP/6-31G(d) empiricaldispersion=gd3bj scf=xqc
 -----------------------------------------------------------

 -------------------------------
 CID_136463125_JID_1819_neutraal
 -------------------------------
 Symbolic Z-matrix:
 Charge =  0 Multiplicity = 1

 SCF Done:  E(RB3LYP) =  -580.797361785     A.U. after   16 cycles
 SCF Done:  E(RB3LYP) =  -580.806627844     A.U. after   13 cycles
 SCF Done:  E(RB3LYP) =  -580.808200738     A.U. after   13 cycles
 SCF Done:  E(RB3LYP) =  -580.808870458     A.U. after   13 cycles
 SCF Done:  E(RB3LYP) =  -580.809318860     A.U. after   13 cycles
 SCF Done:  E(RB3LYP) =  -580.809598706     A.U. after   12 cycles
 SCF Done:  E(RB3LYP) =  -580.809760729     A.U. after   12 cycles
 SCF Done:  E(RB3LYP) =  -580.809871214     A.U. after   12 cycles
 SCF Done:  E(RB3LYP) =  -580.809995339     A.U. after   11 cycles
 SCF Done:  E(RB3LYP) =  -580.810225518     A.U. after   13 cycles
 SCF Done:  E(RB3LYP) =  -580.810818509     A.U. after   12 cycles
 SCF Done:  E(RB3LYP) =  -580.810776090     A.U. after   11 cycles
 SCF Done:  E(RB3LYP) =  -580.810820228     A.U. after   11 cycles
 SCF Done:  E(RB3LYP) =  -580.810820273     A.U. after    8 cycles
 SCF Done:  E(RB3LYP) =  -580.810820294     A.U. after    8 cycles
 SCF Done:  E(RB3LYP) =  -580.810820407     A.U. after    8 cycles
 Optimization completed.
    -- Stationary point found.
 Normal termination of Gaussian 16 at Tue Dec  8 21:29:38 2020.

 --------------------------------------------------------------------
 #N Geom=AllCheck Guess=TCheck SCRF=Check GenChk RB3LYP/6-31G(d) Freq
 --------------------------------------------------------------------

 Structure from the checkpoint file:  "JID_1819.chk"
 -------------------------------
 CID_136463125_JID_1819_neutraal
 -------------------------------
 Charge =  0 Multiplicity = 1

 SCF Done:  E(RB3LYP) =  -580.810820407     A.U. after    1 cycles

  Exact polarizability: 122.692  -2.867  81.988   2.765   0.240  45.097
 Approx polarizability: 199.832 -13.284 124.632   8.200  -2.173  70.498

                      1                      2                      3
                      A                      A                      A
 Frequencies --     44.5568                98.7490               157.1575
 Red. masses --      5.4677                 5.9108                 5.6940
 Frc consts  --      0.0064                 0.0340                 0.0829
 IR Inten    --      1.0788                 0.5512                 0.9967

                      4                      5                      6
                      A                      A                      A
 Frequencies --    224.8668               279.6771               303.7173
 Red. masses --      5.7984                 6.2617                 2.0383
 Frc consts  --      0.1727                 0.2886                 0.1108
 IR Inten    --      0.8549                 2.0123                 9.6307

                      7                      8                      9
                      A                      A                      A
 Frequencies --    312.7445               345.0998               362.1926
 Red. masses --      1.7705                 4.2455                 4.4972
 Frc consts  --      0.1020                 0.2979                 0.3476
 IR Inten    --     47.9173                 7.2761                 4.5843

                     10                     11                     12
                      A                      A                      A
 Frequencies --    400.8074               463.5448               488.4766
 Red. masses --      2.9001                 1.8286                 2.0586
 Frc consts  --      0.2745                 0.2315                 0.2894
 IR Inten    --     10.4368                85.7055                25.2651

                     13                     14                     15
                      A                      A                      A
 Frequencies --    509.8702               524.1329               551.7971
 Red. masses --      1.7794                 3.3073                 1.9658
 Frc consts  --      0.2725                 0.5353                 0.3527
 IR Inten    --    130.0632                 4.5108               136.1672

                     16                     17                     18
                      A                      A                      A
 Frequencies --    572.8096               615.9731               646.8079
 Red. masses --      2.1336                 1.4198                 3.1784
 Frc consts  --      0.4125                 0.3174                 0.7834
 IR Inten    --     16.9975               180.7166                58.8934

                     19                     20                     21
                      A                      A                      A
 Frequencies --    699.5176               731.1087               795.5162
 Red. masses --      5.1035                 3.9557                11.3914
 Frc consts  --      1.4714                 1.2458                 4.2474
 IR Inten    --     11.8561                12.2644                 9.3560

                     22                     23                     24
                      A                      A                      A
 Frequencies --    797.4129               928.9518               950.2761
 Red. masses --      5.4969                 2.2698                 2.3847
 Frc consts  --      2.0594                 1.1540                 1.2688
 IR Inten    --     20.2647               183.6690                 9.8127

                     25                     26                     27
                      A                      A                      A
 Frequencies --   1012.5643              1064.0098              1145.1935
 Red. masses --      6.0329                 3.3984                 3.6402
 Frc consts  --      3.6444                 2.2668                 2.8127
 IR Inten    --    280.9141                47.1274                 9.4809

                     28                     29                     30
                      A                      A                      A
 Frequencies --   1159.3986              1239.8843              1266.7449
 Red. masses --      2.0351                 1.9474                 1.5740
 Frc consts  --      1.6118                 1.7639                 1.4881
 IR Inten    --     32.3376                28.0750                28.5889

                     31                     32                     33
                      A                      A                      A
 Frequencies --   1310.1376              1372.1746              1411.7132
 Red. masses --      1.9229                 1.4811                 1.4718
 Frc consts  --      1.9447                 1.6430                 1.7282
 IR Inten    --     71.4900                 3.8237                28.8268

                     34                     35                     36
                      A                      A                      A
 Frequencies --   1422.0854              1448.8884              1477.7230
 Red. masses --      2.0784                 2.0667                 2.1761
 Frc consts  --      2.4765                 2.5562                 2.7997
 IR Inten    --     84.2384               100.5550               152.5699

                     37                     38                     39
                      A                      A                      A
 Frequencies --   1644.2694              1693.6767              1695.5956
 Red. masses --      1.4458                 4.6853                 1.1056
 Frc consts  --      2.3030                 7.9186                 1.8728
 IR Inten    --     70.8288                19.1413                33.3166

                     40                     41                     42
                      A                      A                      A
 Frequencies --   1711.5508              1814.5570              2994.6959
 Red. masses --      5.4933                 9.7432                 1.0833
 Frc consts  --      9.4813                18.9014                 5.7239
 IR Inten    --    348.4331               327.0345                62.7053

                     43                     44                     45
                      A                      A                      A
 Frequencies --   3459.3617              3550.3306              3574.7295
 Red. masses --      1.0512                 1.0904                 1.0459
 Frc consts  --      7.4116                 8.0977                 7.8747
 IR Inten    --      0.1420                 0.7263                36.8699

                     46                     47                     48
                      A                      A                      A
 Frequencies --   3603.8069              3699.3104              3753.0315
 Red. masses --      1.0766                 1.1024                 1.0679
 Frc consts  --      8.2385                 8.8886                 8.8623
 IR Inten    --     43.3926                60.6973               132.7914

 - Thermochemistry -
 -------------------
 Temperature   298.150 Kelvin.  Pressure   1.00000 Atm.
 Atom     1 has atomic number  6 and mass  12.00000

 Molecular mass:   157.05997 amu.
 Principal axes and moments of inertia in atomic units:
                           1         2         3
     Eigenvalues --  1056.039531863.372832805.54317
           X            0.99997   0.00731   0.00098
           Y           -0.00731   0.99995   0.00747
           Z           -0.00092  -0.00747   0.99997
 This molecule is an asymmetric top.
 Rotational symmetry number  1.
 Warning -- assumption of classical behavior for rotation
           may cause significant error
 Rotational temperatures (Kelvin)      0.08202     0.04648     0.03087
 Rotational constants (GHZ):           1.70897     0.96853     0.64328
 Zero-point vibrational energy     360860.7 (Joules/Mol)
                                   86.24778 (Kcal/Mol)
 Warning -- explicit consideration of  17 degrees of freedom as
           vibrations may cause significant error
 Vibrational temperatures:     64.11   142.08   226.11   323.53   402.39
          (Kelvin)            436.98   449.97   496.52   521.11   576.67
                              666.94   702.81   733.59   754.11   793.91
                              824.15   886.25   930.61  1006.45  1051.90
                             1144.57  1147.30  1336.55  1367.24  1456.85
                             1530.87  1647.68  1668.12  1783.92  1822.56
                             1885.00  1974.25  2031.14  2046.06  2084.63
                             2126.11  2365.74  2436.82  2439.58  2462.54
                             2610.74  4308.70  4977.25  5108.13  5143.24
                             5185.07  5322.48  5399.78

 Zero-point correction=                           0.137445 (Hartree/Particle)
 Thermal correction to Energy=                    0.147516
 Thermal correction to Enthalpy=                  0.148460
 Thermal correction to Gibbs Free Energy=         0.101928
 Sum of electronic and zero-point Energies=           -580.673376
 Sum of electronic and thermal Energies=              -580.663305
 Sum of electronic and thermal Enthalpies=            -580.662360
 Sum of electronic and thermal Free Energies=         -580.708893

                     E (Thermal)             CV                S
                      KCal/Mol        Cal/Mol-Kelvin    Cal/Mol-Kelvin
 Total                   92.568             38.527             97.936
 Electronic               0.000              0.000              0.000
 Translational            0.889              2.981             41.064
 Rotational               0.889              2.981             30.091
 Vibrational             90.790             32.565             26.781
 Vibration     1          0.595              1.980              5.045
 Vibration     2          0.604              1.950              3.479
 Vibration     3          0.621              1.895              2.584
 Vibration     4          0.650              1.803              1.920
 Vibration     5          0.680              1.711              1.536
 Vibration     6          0.695              1.667              1.396
 Vibration     7          0.701              1.649              1.348
 Vibration     8          0.723              1.585              1.188
 Vibration     9          0.736              1.550              1.113
 Vibration    10          0.767              1.468              0.960
 Vibration    11          0.821              1.331              0.756
 Vibration    12          0.844              1.276              0.688
 Vibration    13          0.865              1.228              0.634
 Vibration    14          0.879              1.197              0.600
 Vibration    15          0.907              1.136              0.540
 Vibration    16          0.929              1.090              0.499
 Vibration    17          0.976              0.998              0.423

 Optimization completed.
    -- Stationary point found.
 Normal termination of Gaussian 16 at Tue Dec  8 21:33:16 2020.

 ----------------------------------------------------------------------
 # B3LYP/6-311++G(d,p) empiricaldispersion=gd3bj scf=xqc pop=npa geom=c
 heck
 ----------------------------------------------------------------------

 ---------------------------------------
 CID_136463125_JID_1819_Energie_neutraal
 ---------------------------------------
 Structure from the checkpoint file:  "JID_1819.chk"
 Charge =  0 Multiplicity = 1

 SCF Done:  E(RB3LYP) =  -581.003148341     A.U. after   15 cycles
 Normal termination of Gaussian 16 at Tue Dec  8 21:34:56 2020.

 ----------------------------------------------------------------------
 # B3LYP/6-311++G(d,p) empiricaldispersion=gd3bj scf=xqc pop=npa geom=c
 heck
 ----------------------------------------------------------------------

 -------------------------------------
 CID_136463125_JID_1819_Energie_kation
 -------------------------------------
 Structure from the checkpoint file:  "JID_1819.chk"
 Charge =  1 Multiplicity = 2

 SCF Done:  E(UB3LYP) =  -580.677316319     A.U. after   27 cycles
 Normal termination of Gaussian 16 at Tue Dec  8 21:43:10 2020.
 Gaussian 16:  ES64L-G16RevA.03 25-Dec-2016

 ----------------------------------------------------------------------
 # B3LYP/6-311++G(d,p) empiricaldispersion=gd3bj scf=xqc pop=npa geom=c
 heck
 ----------------------------------------------------------------------

 ------------------------------------
 CID_136463125_JID_1819_Energie_anion
 ------------------------------------
 Structure from the checkpoint file:  "JID_1819.chk"
 Charge = -1 Multiplicity = 2

                         Standard orientation:
 ---------------------------------------------------------------------
 Center     Atomic      Atomic             Coordinates (Angstroms)
 Number     Number       Type             X           Y           Z
 ---------------------------------------------------------------------
      1          6           0        1.855118   -0.304411    0.486259
      2          7           0        1.438560    1.015468    0.025171
      3          6           0        0.154192    1.444158   -0.123758
      4          8           0       -0.154900    2.601379   -0.355559
      5          6           0       -0.852978    0.321371   -0.006266
      6          7           0       -2.057292    0.726999    0.186211
      7          8           0       -2.996143   -0.295222    0.312730
      8          6           0       -0.316368   -1.071358   -0.093323
      9          7           0        0.913972   -1.350658    0.166700
     10          7           0       -1.156747   -2.059989   -0.530194
     11          7           0        3.173717   -0.530374   -0.083189
     12          1           0        1.986803   -0.295527    1.580078
     13          1           0        2.156144    1.729811   -0.004833
     14          1           0       -3.822844    0.198370    0.433475
     15          1           0       -0.787167   -2.997251   -0.437165
     16          1           0       -2.148380   -1.933020   -0.391074
     17          1           0        3.545349   -1.392484    0.313336
     18          1           0        3.053188   -0.707834   -1.081542
 ---------------------------------------------------------------------

 SCF Done:  E(UB3LYP) =  -581.022286660     A.U. after   24 cycles

 The electronic state is 2-A.
 Alpha  occ. eigenvalues --  -19.01955 -18.91951 -14.17787 -14.17220 -14.17028
 Alpha  occ. eigenvalues --  -14.16935 -14.12342 -10.12134 -10.10524 -10.08864
 Alpha  occ. eigenvalues --  -10.02478  -0.93868  -0.87716  -0.82510  -0.78568
 Alpha  occ. eigenvalues --   -0.73177  -0.70272  -0.69499  -0.54479  -0.49395
 Alpha  occ. eigenvalues --   -0.46561  -0.41804  -0.39663  -0.38324  -0.35437
 Alpha  occ. eigenvalues --   -0.33052  -0.32137  -0.31369  -0.29914  -0.28823
 Alpha  occ. eigenvalues --   -0.27114  -0.24933  -0.23759  -0.21981  -0.14609
 Alpha  occ. eigenvalues --   -0.13990  -0.12167  -0.11031  -0.10010  -0.09670
 Alpha  occ. eigenvalues --   -0.08801   0.04644
 Alpha virt. eigenvalues --    0.09140   0.09631   0.10990   0.11190   0.12434
 Alpha virt. eigenvalues --    0.14480   0.14777   0.16186   0.17300   0.18456
 Alpha virt. eigenvalues --    0.19110   0.19898   0.20416   0.20685   0.21887

  Beta  occ. eigenvalues --  -19.01815 -18.91845 -14.17727 -14.17173 -14.16998
  Beta  occ. eigenvalues --  -14.15909 -14.12103 -10.12150 -10.10429 -10.08750
  Beta  occ. eigenvalues --  -10.02374  -0.93204  -0.87510  -0.82291  -0.78418
  Beta  occ. eigenvalues --   -0.73046  -0.69907  -0.68529  -0.54055  -0.48900
  Beta  occ. eigenvalues --   -0.46135  -0.41647  -0.39556  -0.38122  -0.35231
  Beta  occ. eigenvalues --   -0.32819  -0.31825  -0.30989  -0.29561  -0.28512
  Beta  occ. eigenvalues --   -0.25368  -0.24739  -0.23007  -0.21108  -0.14431
  Beta  occ. eigenvalues --   -0.13348  -0.10540  -0.10240  -0.09669  -0.08930
  Beta  occ. eigenvalues --   -0.07300
  Beta virt. eigenvalues --    0.08948   0.09577   0.10902   0.11218   0.12293
  Beta virt. eigenvalues --    0.12924   0.14508   0.14745   0.16976   0.17292
  Beta virt. eigenvalues --    0.18639   0.19264   0.19971   0.20476   0.20754

 Mulliken charges and spin densities:
               1          2
     1  C   -0.200719  -0.205997
     2  N   -0.339631   0.005192
     3  C    0.106599   0.094409
     4  O   -0.417508   0.039686
     5  C    0.001794   0.061079
     6  N   -0.423976   0.457030
     7  O   -0.114577   0.030899
     8  C   -0.029474   0.011337
     9  N   -0.282942   0.155418
    10  N   -0.307356   0.011819
    11  N   -0.329448   0.024017
    12  H    0.062614   0.120484
    13  H    0.260932   0.031231
    14  H    0.262095  -0.001551
    15  H    0.216989  -0.002850
    16  H    0.259032  -0.001729
    17  H    0.124538   0.094905
    18  H    0.151039   0.074621
 Sum of Mulliken charges =  -1.00000   1.00000

 Dipole moment (field-independent basis, Debye):
    X=             -0.5257    Y=             -4.0104    Z=              0.6368  Tot=              4.0945
 Quadrupole moment (field-independent basis, Debye-Ang):
   XX=            -78.7928   YY=            -87.7456   ZZ=            -71.8069
   XY=              5.0779   XZ=             -1.5735   YZ=              2.2396

 Summary of Natural Population Analysis:

                                       Natural Population
                Natural  -----------------------------------------------
    Atom  No    Charge         Core      Valence    Rydberg      Total
 -----------------------------------------------------------------------
      C    1    0.16242      0.99967     1.81676    0.02116     2.83758
      N    2   -0.32589      0.99965     2.81579    0.01045     3.82589
      C    3    0.34670      0.99965     1.62975    0.02390     2.65330
      O    4   -0.32244      0.99987     3.31626    0.00630     4.32244
      C    5    0.00400      0.99953     1.98021    0.01626     2.99600
      N    6    0.09372      0.99960     2.38813    0.01856     3.40628
      O    7   -0.29661      0.99989     3.28944    0.00728     4.29661
      C    8    0.23086      0.99957     1.75368    0.01588     2.76914
      N    9   -0.28611      0.99963     2.77143    0.01505     3.78611
      N   10   -0.39957      0.99970     2.88949    0.01038     3.89957
      N   11   -0.42349      0.99976     2.91407    0.00965     3.92349
      H   12    0.07357      0.00000     0.42421    0.00222     0.42643
      H   13    0.18985      0.00000     0.30681    0.00334     0.31015
      H   14    0.22880      0.00000     0.26757    0.00362     0.27120
      H   15    0.17954      0.00000     0.31750    0.00296     0.32046
      H   16    0.20007      0.00000     0.29764    0.00229     0.29993
      H   17    0.17190      0.00000     0.32515    0.00295     0.32810
      H   18    0.17267      0.00000     0.32452    0.00281     0.32733
 =======================================================================
   * Total *    0.00000     10.99652    29.82841    0.17507    41.00000

 Normal termination of Gaussian 16 at Tue Dec  8 21:46:53 2020.
