 Gaussian 16, Revision A.03,

 -----------------------------------------------------------
 # opt freq B3LYP/6-31G(d) empiricaldispersion=gd3bj scf=xqc
 -----------------------------------------------------------

 -----------------------------
 CID_23055930_JID_142_neutraal
 -----------------------------
 Symbolic Z-matrix:
 Charge =  0 Multiplicity = 1

 SCF Done:  E(RB3LYP) =  -786.742380406     A.U. after   14 cycles
 SCF Done:  E(RB3LYP) =  -786.745699075     A.U. after   12 cycles
 SCF Done:  E(RB3LYP) =  -786.744083606     A.U. after   12 cycles
 SCF Done:  E(RB3LYP) =  -786.746240591     A.U. after   11 cycles
 SCF Done:  E(RB3LYP) =  -786.746265769     A.U. after   11 cycles
 SCF Done:  E(RB3LYP) =  -786.746269756     A.U. after   10 cycles
 SCF Done:  E(RB3LYP) =  -786.746271595     A.U. after    9 cycles
 SCF Done:  E(RB3LYP) =  -786.746274851     A.U. after   11 cycles
 SCF Done:  E(RB3LYP) =  -786.746279342     A.U. after   12 cycles
 SCF Done:  E(RB3LYP) =  -786.746284158     A.U. after   12 cycles
 SCF Done:  E(RB3LYP) =  -786.746221704     A.U. after   11 cycles
 SCF Done:  E(RB3LYP) =  -786.746362998     A.U. after   11 cycles
 SCF Done:  E(RB3LYP) =  -786.746321489     A.U. after   11 cycles
 SCF Done:  E(RB3LYP) =  -786.746352517     A.U. after   10 cycles
 Optimization completed.
    -- Stationary point found.
 Normal termination of Gaussian 16 at Sun Dec 13 16:13:56 2020.

 --------------------------------------------------------------------
 #N Geom=AllCheck Guess=TCheck SCRF=Check GenChk RB3LYP/6-31G(d) Freq
 --------------------------------------------------------------------

 Structure from the checkpoint file:  "JID_142.chk"
 -----------------------------
 CID_23055930_JID_142_neutraal
 -----------------------------
 Charge =  0 Multiplicity = 1

 SCF Done:  E(RB3LYP) =  -786.746352517     A.U. after    1 cycles

  Exact polarizability: 110.198  -9.654  99.019   1.394   1.321  88.362
 Approx polarizability: 134.770 -18.636 152.495   4.311  11.351 142.853

                      1                      2                      3
                      A                      A                      A
 Frequencies --      9.4149                11.9776                45.1674
 Red. masses --      7.7893                 1.7328                 3.0158
 Frc consts  --      0.0004                 0.0001                 0.0036
 IR Inten    --      0.3291                 0.0135                 0.3126

                      4                      5                      6
                      A                      A                      A
 Frequencies --     77.0789               163.1348               173.9940
 Red. masses --      3.8657                 2.8173                 3.2756
 Frc consts  --      0.0135                 0.0442                 0.0584
 IR Inten    --      0.8809                 0.6351                 0.0847

                      7                      8                      9
                      A                      A                      A
 Frequencies --    269.0458               292.2281               379.5008
 Red. masses --      2.4726                 2.8679                 1.2906
 Frc consts  --      0.1055                 0.1443                 0.1095
 IR Inten    --      0.4962                 6.0451                13.2695

                     10                     11                     12
                      A                      A                      A
 Frequencies --    412.4333               432.5535               450.5978
 Red. masses --      1.9952                 2.8418                 5.0285
 Frc consts  --      0.2000                 0.3133                 0.6015
 IR Inten    --      7.3166                 6.7438                 9.9312

                     13                     14                     15
                      A                      A                      A
 Frequencies --    529.5941               554.2869               629.9967
 Red. masses --      2.4427                 3.1820                 2.6138
 Frc consts  --      0.4037                 0.5760                 0.6112
 IR Inten    --     11.9211                 4.4785                 0.3990

                     16                     17                     18
                      A                      A                      A
 Frequencies --    716.3304               765.0231               823.9748
 Red. masses --      2.7581                 1.3313                 1.7798
 Frc consts  --      0.8338                 0.4591                 0.7119
 IR Inten    --     24.4933                 1.1094                26.6571

                     19                     20                     21
                      A                      A                      A
 Frequencies --    837.5095               849.2043               896.2813
 Red. masses --      1.6787                 1.6809                 2.7376
 Frc consts  --      0.6938                 0.7142                 1.2957
 IR Inten    --     27.4049                21.6320                 1.4644

                     22                     23                     24
                      A                      A                      A
 Frequencies --    912.5794               943.3094               966.6974
 Red. masses --      2.0340                 1.9670                 2.3178
 Frc consts  --      0.9980                 1.0313                 1.2761
 IR Inten    --      0.5175                 9.2962                 1.0853

                     25                     26                     27
                      A                      A                      A
 Frequencies --    989.6048              1002.0350              1028.0588
 Red. masses --      1.4173                 1.5247                 1.8704
 Frc consts  --      0.8178                 0.9020                 1.1647
 IR Inten    --     10.8161                 7.8745                 6.6295

                     28                     29                     30
                      A                      A                      A
 Frequencies --   1052.6874              1067.5364              1121.6595
 Red. masses --      2.4646                 2.1358                 2.4041
 Frc consts  --      1.6091                 1.4341                 1.7821
 IR Inten    --     93.1931                43.3507                19.0324

                     31                     32                     33
                      A                      A                      A
 Frequencies --   1124.1762              1185.7694              1217.5202
 Red. masses --      2.3183                 1.3599                 1.2892
 Frc consts  --      1.7262                 1.1266                 1.1260
 IR Inten    --      5.6347                 9.5213                 1.4820

                     34                     35                     36
                      A                      A                      A
 Frequencies --   1222.8261              1244.4647              1277.7156
 Red. masses --      1.3943                 1.3312                 1.2133
 Frc consts  --      1.2284                 1.2147                 1.1670
 IR Inten    --      1.0922                 2.9988                 1.7145

                     37                     38                     39
                      A                      A                      A
 Frequencies --   1284.5170              1315.8409              1341.7896
 Red. masses --      1.4248                 1.2820                 1.2696
 Frc consts  --      1.3851                 1.3078                 1.3467
 IR Inten    --      3.9314                 0.3636                 3.9873

                     40                     41                     42
                      A                      A                      A
 Frequencies --   1345.4365              1357.3699              1371.2577
 Red. masses --      1.2552                 1.3513                 1.3175
 Frc consts  --      1.3387                 1.4669                 1.4596
 IR Inten    --      1.2173                 0.1493                 3.6182

                     43                     44                     45
                      A                      A                      A
 Frequencies --   1387.0118              1403.4196              1424.4363
 Red. masses --      1.4561                 1.3759                 1.6029
 Frc consts  --      1.6504                 1.5967                 1.9162
 IR Inten    --      2.5170                 5.4720                 2.1567

                     46                     47                     48
                      A                      A                      A
 Frequencies --   1492.7884              1510.7358              1515.2881
 Red. masses --      1.0880                 1.0930                 1.0784
 Frc consts  --      1.4285                 1.4698                 1.4589
 IR Inten    --     13.6541                 4.1901                 0.6109

                     49                     50                     51
                      A                      A                      A
 Frequencies --   1525.2241              1527.6122              1550.3046
 Red. masses --      1.0903                 1.0855                 1.1046
 Frc consts  --      1.4944                 1.4924                 1.5642
 IR Inten    --      1.5359                 4.0495                 0.3882

                     52                     53                     54
                      A                      A                      A
 Frequencies --   1820.0188              2698.3317              3021.2000
 Red. masses --     11.1082                 1.0383                 1.0787
 Frc consts  --     21.6793                 4.4540                 5.8013
 IR Inten    --    216.9256                 4.1566                 4.2271

                     55                     56                     57
                      A                      A                      A
 Frequencies --   3026.9673              3035.0033              3045.2819
 Red. masses --      1.0683                 1.0689                 1.0671
 Frc consts  --      5.7672                 5.8009                 5.8304
 IR Inten    --     17.6835                13.9602                40.8491

                     58                     59                     60
                      A                      A                      A
 Frequencies --   3052.8485              3057.6623              3070.5167
 Red. masses --      1.0654                 1.0638                 1.0646
 Frc consts  --      5.8501                 5.8597                 5.9138
 IR Inten    --     38.0851                20.8151                51.2033

                     61                     62                     63
                      A                      A                      A
 Frequencies --   3087.8422              3091.3717              3098.6062
 Red. masses --      1.0965                 1.0971                 1.0975
 Frc consts  --      6.1599                 6.1775                 6.2084
 IR Inten    --     34.6701                 4.0703                14.7894

                     64                     65                     66
                      A                      A                      A
 Frequencies --   3099.8632              3110.7371              3117.1445
 Red. masses --      1.1010                 1.0970                 1.1055
 Frc consts  --      6.2332                 6.2546                 6.3287
 IR Inten    --      6.0331                32.0375                87.6021

 - Thermochemistry -
 -------------------
 Temperature   298.150 Kelvin.  Pressure   1.00000 Atm.
 Atom     1 has atomic number  6 and mass  12.00000

 Molecular mass:   158.07654 amu.
 Principal axes and moments of inertia in atomic units:
                           1         2         3
     Eigenvalues --   875.804593219.266223545.88801
           X            0.99995   0.00743  -0.00594
           Y           -0.00768   0.99898  -0.04451
           Z            0.00560   0.04456   0.99899
 This molecule is an asymmetric top.
 Rotational symmetry number  1.
 Warning -- assumption of classical behavior for rotation
           may cause significant error
 Rotational temperatures (Kelvin)      0.09890     0.02690     0.02443
 Rotational constants (GHZ):           2.06067     0.56061     0.50897
 Zero-point vibrational energy     547066.6 (Joules/Mol)
                                  130.75206 (Kcal/Mol)
 Warning -- explicit consideration of  14 degrees of freedom as
           vibrations may cause significant error
 Vibrational temperatures:     13.55    17.23    64.99   110.90   234.71
          (Kelvin)            250.34   387.10   420.45   546.02   593.40
                              622.35   648.31   761.97   797.50   906.42
                             1030.64  1100.70  1185.52  1204.99  1221.82
                             1289.55  1313.00  1357.21  1390.86  1423.82
                             1441.70  1479.15  1514.58  1535.95  1613.82
                             1617.44  1706.06  1751.74  1759.37  1790.51
                             1838.35  1848.13  1893.20  1930.54  1935.78
                             1952.95  1972.93  1995.60  2019.21  2049.45
                             2147.79  2173.61  2180.16  2194.46  2197.89
                             2230.54  2618.60  3882.30  4346.83  4355.13
                             4366.69  4381.48  4392.37  4399.29  4417.79
                             4442.72  4447.79  4458.20  4460.01  4475.66
                             4484.88

 Zero-point correction=                           0.208367 (Hartree/Particle)
 Thermal correction to Energy=                    0.219472
 Thermal correction to Enthalpy=                  0.220416
 Thermal correction to Gibbs Free Energy=         0.167120
 Sum of electronic and zero-point Energies=           -786.537986
 Sum of electronic and thermal Energies=              -786.526881
 Sum of electronic and thermal Enthalpies=            -786.525937
 Sum of electronic and thermal Free Energies=         -786.579232

                     E (Thermal)             CV                S
                      KCal/Mol        Cal/Mol-Kelvin    Cal/Mol-Kelvin
 Total                  137.720             39.940            112.170
 Electronic               0.000              0.000              0.000
 Translational            0.889              2.981             41.083
 Rotational               0.889              2.981             30.681
 Vibrational            135.943             33.978             40.406
 Vibration     1          0.593              1.987              8.131
 Vibration     2          0.593              1.987              7.653
 Vibration     3          0.595              1.979              5.018
 Vibration     4          0.599              1.964              3.964
 Vibration     5          0.623              1.888              2.513
 Vibration     6          0.627              1.874              2.392
 Vibration     7          0.673              1.730              1.602
 Vibration     8          0.688              1.688              1.461
 Vibration     9          0.750              1.514              1.041
 Vibration    10          0.776              1.443              0.918
 Vibration    11          0.793              1.399              0.850
 Vibration    12          0.809              1.360              0.794
 Vibration    13          0.885              1.185              0.588
 Vibration    14          0.910              1.130              0.535

                           ! Non-Optimized Parameters !
 Normal termination of Gaussian 16 at Sun Dec 13 16:18:24 2020.

 ----------------------------------------------------------------------
 # B3LYP/6-311++G(d,p) empiricaldispersion=gd3bj scf=xqc pop=npa geom=c
 heck
 ----------------------------------------------------------------------

 -------------------------------------
 CID_23055930_JID_142_Energie_neutraal
 -------------------------------------
 Structure from the checkpoint file:  "JID_142.chk"
 Charge =  0 Multiplicity = 1

 SCF Done:  E(RB3LYP) =  -786.887254966     A.U. after   15 cycles
 Normal termination of Gaussian 16 at Sun Dec 13 16:20:12 2020.

 ----------------------------------------------------------------------
 # B3LYP/6-311++G(d,p) empiricaldispersion=gd3bj scf=xqc pop=npa geom=c
 heck
 ----------------------------------------------------------------------

 -----------------------------------
 CID_23055930_JID_142_Energie_kation
 -----------------------------------
 Structure from the checkpoint file:  "JID_142.chk"
 Charge =  1 Multiplicity = 2

 SCF Done:  E(UB3LYP) =  -786.528392966     A.U. after   33 cycles
 SCF Done:  E(UB3LYP) =  -786.528392966     a.u. after    1 cycles
 Normal termination of Gaussian 16 at Sun Dec 13 16:25:23 2020.
 Gaussian 16:  ES64L-G16RevA.03 25-Dec-2016

 ----------------------------------------------------------------------
 # B3LYP/6-311++G(d,p) empiricaldispersion=gd3bj scf=xqc pop=npa geom=c
 heck
 ----------------------------------------------------------------------

 ----------------------------------
 CID_23055930_JID_142_Energie_anion
 ----------------------------------
 Structure from the checkpoint file:  "JID_142.chk"
 Charge = -1 Multiplicity = 2

                         Standard orientation:
 ---------------------------------------------------------------------
 Center     Atomic      Atomic             Coordinates (Angstroms)
 Number     Number       Type             X           Y           Z
 ---------------------------------------------------------------------
      1          6           0        2.671739    1.469669    0.009478
      2          6           0        3.325184    0.253870   -0.714323
      3          6           0        2.495142   -0.972237   -0.288036
      4          6           0        1.092092   -0.403996   -0.021176
      5          6           0        1.405470    0.916240    0.708072
      6          6           0        0.169802   -1.361419    0.734829
      7          6           0       -1.207823   -0.766838    1.058085
      8          6           0       -1.996255   -0.441076   -0.198444
      9          8           0       -2.001537   -1.119718   -1.195774
     10         16           0       -2.971457    1.089037   -0.052774
     11          1           0        2.405112    2.247553   -0.713641
     12          1           0        3.352518    1.933716    0.730156
     13          1           0        3.262733    0.385148   -1.800515
     14          1           0        4.386284    0.140539   -0.470729
     15          1           0        2.892442   -1.395321    0.645765
     16          1           0        2.496908   -1.773578   -1.034891
     17          1           0        0.630540   -0.166743   -0.990783
     18          1           0        1.618605    0.696603    1.763949
     19          1           0        0.572562    1.626915    0.688711
     20          1           0        0.026596   -2.275069    0.147568
     21          1           0        0.647169   -1.654851    1.679352
     22          1           0       -1.811253   -1.494260    1.618433
     23          1           0       -1.121229    0.123695    1.688886
     24          1           0       -3.535484    0.973526   -1.272609
 ---------------------------------------------------------------------

 SCF Done:  E(UB3LYP) =  -786.873245422     A.U. after   33 cycles
 SCF Done:  E(UB3LYP) =  -786.873245422     a.u. after    1 cycles

 The electronic state is 2-A.
 Alpha  occ. eigenvalues --  -88.74063 -18.99232 -10.14692 -10.06263 -10.05963
 Alpha  occ. eigenvalues --  -10.05863 -10.05680 -10.05416 -10.05264 -10.05212
 Alpha  occ. eigenvalues --   -7.82813  -5.79157  -5.78753  -5.78299  -0.93220
 Alpha  occ. eigenvalues --   -0.73304  -0.67701  -0.64328  -0.60213  -0.59493
 Alpha  occ. eigenvalues --   -0.52216  -0.46063  -0.45337  -0.40844  -0.37864
 Alpha  occ. eigenvalues --   -0.36548  -0.35324  -0.33001  -0.32720  -0.31205
 Alpha  occ. eigenvalues --   -0.30567  -0.26978  -0.26631  -0.25737  -0.24933
 Alpha  occ. eigenvalues --   -0.23422  -0.23130  -0.21372  -0.20975  -0.20895
 Alpha  occ. eigenvalues --   -0.20362  -0.15374  -0.13921   0.05165
 Alpha virt. eigenvalues --    0.06941   0.08142   0.08595   0.08979   0.09444
 Alpha virt. eigenvalues --    0.10420   0.10893   0.11275   0.11388   0.11921
 Alpha virt. eigenvalues --    0.13046   0.13521   0.14235   0.14456   0.14787

  Beta  occ. eigenvalues --  -88.74060 -18.99052 -10.14399 -10.06265 -10.05950
  Beta  occ. eigenvalues --  -10.05848 -10.05677 -10.05401 -10.05234 -10.05194
  Beta  occ. eigenvalues --   -7.82808  -5.79156  -5.78757  -5.78289  -0.92834
  Beta  occ. eigenvalues --   -0.73277  -0.67529  -0.64218  -0.60175  -0.59424
  Beta  occ. eigenvalues --   -0.52066  -0.46016  -0.45207  -0.40473  -0.37827
  Beta  occ. eigenvalues --   -0.36431  -0.35215  -0.32802  -0.32251  -0.31110
  Beta  occ. eigenvalues --   -0.30487  -0.26864  -0.26252  -0.25411  -0.24742
  Beta  occ. eigenvalues --   -0.23393  -0.23097  -0.21341  -0.20877  -0.20818
  Beta  occ. eigenvalues --   -0.20317  -0.15108  -0.13787
  Beta virt. eigenvalues --    0.07373   0.08244   0.08795   0.09077   0.09772
  Beta virt. eigenvalues --    0.10156   0.10871   0.11311   0.11769   0.11823
  Beta virt. eigenvalues --    0.12090   0.13277   0.13785   0.14438   0.14575

 Mulliken charges and spin densities:
               1          2
     1  C    0.728325  -1.220959
     2  C   -0.529198   0.207393
     3  C    0.450646  -0.920850
     4  C   -0.493598   1.155821
     5  C   -0.321015  -0.201690
     6  C    0.720011  -1.061347
     7  C    0.807539  -0.988783
     8  C   -0.617717   0.676653
     9  O   -0.286843   0.053920
    10  S    0.067828  -0.233902
    11  H    0.018427   0.110560
    12  H   -0.164846   0.302088
    13  H    0.096722   0.028460
    14  H   -0.191073   0.333620
    15  H   -0.081151   0.218004
    16  H    0.032062   0.108572
    17  H    0.147972   0.031546
    18  H   -0.248109   0.405099
    19  H    0.111014   0.001889
    20  H    0.136134   0.043511
    21  H   -0.321501   0.466071
    22  H   -0.949291   1.211116
    23  H   -0.020510   0.129501
    24  H   -0.091830   0.143707
 Sum of Mulliken charges =  -1.00000   1.00000

 Dipole moment (field-independent basis, Debye):
    X=              0.4502    Y=              3.0934    Z=             -4.0524  Tot=              5.1180
 Quadrupole moment (field-independent basis, Debye-Ang):
   XX=           -129.1566   YY=           -101.1560   ZZ=           -102.9974
   XY=             -7.6337   XZ=             -1.9674   YZ=              3.9691

 Summary of Natural Population Analysis:

                                       Natural Population
                Natural  -----------------------------------------------
    Atom  No    Charge         Core      Valence    Rydberg      Total
 -----------------------------------------------------------------------
      C    1   -0.19216      0.99965     2.18472    0.00779     3.19216
      C    2   -0.19230      0.99965     2.18470    0.00795     3.19230
      C    3   -0.18679      0.99962     2.17907    0.00810     3.18679
      C    4   -0.11244      0.99959     2.10325    0.00960     3.11244
      C    5   -0.19273      0.99962     2.18504    0.00807     3.19273
      C    6   -0.18433      0.99961     2.17303    0.01170     3.18433
      C    7   -0.24011      0.99956     2.22981    0.01074     3.24011
      C    8    0.26253      0.99969     1.71210    0.02569     2.73747
      O    9   -0.27702      0.99986     3.26885    0.00831     4.27702
      S   10   -0.04780      4.99958     3.03452    0.01369     8.04780
      H   11    0.09340      0.00000     0.40564    0.00096     0.40660
      H   12    0.09775      0.00000     0.40111    0.00114     0.40225
      H   13    0.09182      0.00000     0.40715    0.00103     0.40818
      H   14    0.09792      0.00000     0.40096    0.00111     0.40208
      H   15    0.09497      0.00000     0.40368    0.00135     0.40503
      H   16    0.09791      0.00000     0.40125    0.00083     0.40209
      H   17    0.09734      0.00000     0.40064    0.00202     0.40266
      H   18    0.09557      0.00000     0.40286    0.00158     0.40443
      H   19    0.10168      0.00000     0.39729    0.00103     0.39832
      H   20    0.10362      0.00000     0.39516    0.00122     0.39638
      H   21    0.10019      0.00000     0.39771    0.00210     0.39981
      H   22    0.12436      0.00000     0.36833    0.00731     0.37564
      H   23    0.10257      0.00000     0.39614    0.00128     0.39743
      H   24    0.06406      0.00000     0.43253    0.00340     0.43594
 =======================================================================
   * Total *   -0.00000     13.99643    28.86556    0.13801    43.00000

 Normal termination of Gaussian 16 at Sun Dec 13 16:30:49 2020.
