 Gaussian 16, Revision A.03,

 -----------------------------------------------------------
 # opt freq B3LYP/6-31G(d) empiricaldispersion=gd3bj scf=xqc
 -----------------------------------------------------------

 -----------------------------
 CID_84762577_JID_370_neutraal
 -----------------------------
 Symbolic Z-matrix:
 Charge =  0 Multiplicity = 1

 SCF Done:  E(RB3LYP) =  -442.635077675     A.U. after   14 cycles
 SCF Done:  E(RB3LYP) =  -442.640240345     A.U. after   12 cycles
 SCF Done:  E(RB3LYP) =  -442.640317312     A.U. after   12 cycles
 SCF Done:  E(RB3LYP) =  -442.640941537     A.U. after   12 cycles
 SCF Done:  E(RB3LYP) =  -442.641028438     A.U. after   10 cycles
 SCF Done:  E(RB3LYP) =  -442.641043941     A.U. after   10 cycles
 SCF Done:  E(RB3LYP) =  -442.641047118     A.U. after    9 cycles
 SCF Done:  E(RB3LYP) =  -442.641049282     A.U. after    8 cycles
 SCF Done:  E(RB3LYP) =  -442.641052732     A.U. after   10 cycles
 SCF Done:  E(RB3LYP) =  -442.641058853     A.U. after   10 cycles
 SCF Done:  E(RB3LYP) =  -442.641153341     A.U. after   10 cycles
 SCF Done:  E(RB3LYP) =  -442.641155465     A.U. after    8 cycles
 SCF Done:  E(RB3LYP) =  -442.641155739     A.U. after    8 cycles
 SCF Done:  E(RB3LYP) =  -442.641156254     A.U. after   10 cycles
 SCF Done:  E(RB3LYP) =  -442.641157373     A.U. after   10 cycles
 SCF Done:  E(RB3LYP) =  -442.641157361     A.U. after    8 cycles
 Optimization completed.
    -- Stationary point found.
 Normal termination of Gaussian 16 at Tue Dec  8 10:38:08 2020.

 --------------------------------------------------------------------
 #N Geom=AllCheck Guess=TCheck SCRF=Check GenChk RB3LYP/6-31G(d) Freq
 --------------------------------------------------------------------

 Structure from the checkpoint file:  "JID_370.chk"
 -----------------------------
 CID_84762577_JID_370_neutraal
 -----------------------------
 Charge =  0 Multiplicity = 1

 SCF Done:  E(RB3LYP) =  -442.641157361     A.U. after    1 cycles

  Exact polarizability:  99.514   3.034  83.208   5.079   1.746  76.395
 Approx polarizability: 128.822   9.663 120.359  14.479   8.505 116.098

                      1                      2                      3
                      A                      A                      A
 Frequencies --     38.9464                93.9970                96.5107
 Red. masses --      3.5630                 4.9274                 2.3691
 Frc consts  --      0.0032                 0.0257                 0.0130
 IR Inten    --      5.1699                 3.1472                 0.4117

                      4                      5                      6
                      A                      A                      A
 Frequencies --    139.7701               155.8024               196.1130
 Red. masses --      5.5010                 2.1448                 1.4819
 Frc consts  --      0.0633                 0.0307                 0.0336
 IR Inten    --      5.5987                 1.8302                 0.2078

                      7                      8                      9
                      A                      A                      A
 Frequencies --    265.5786               308.4261               326.4930
 Red. masses --      1.5375                 2.9152                 3.0183
 Frc consts  --      0.0639                 0.1634                 0.1896
 IR Inten    --      0.6635                 0.5845                 1.2298

                     10                     11                     12
                      A                      A                      A
 Frequencies --    357.1799               390.2739               435.1679
 Red. masses --      2.2840                 3.2116                 3.8433
 Frc consts  --      0.1717                 0.2882                 0.4288
 IR Inten    --      1.4147                 0.7430                 8.3944

                     13                     14                     15
                      A                      A                      A
 Frequencies --    472.9858               539.4457               661.0818
 Red. masses --      3.2610                 4.5183                 2.2043
 Frc consts  --      0.4298                 0.7747                 0.5676
 IR Inten    --      0.4269                 6.4581                 1.8621

                     16                     17                     18
                      A                      A                      A
 Frequencies --    736.9973               807.8867               815.8106
 Red. masses --      2.0100                 1.2215                 1.1655
 Frc consts  --      0.6432                 0.4697                 0.4570
 IR Inten    --      4.8332                 0.7360                 4.1152

                     19                     20                     21
                      A                      A                      A
 Frequencies --    843.8789               876.7380               905.5640
 Red. masses --      1.9765                 2.1101                 2.1642
 Frc consts  --      0.8293                 0.9556                 1.0457
 IR Inten    --      1.3385                 6.9861                 0.1535

                     22                     23                     24
                      A                      A                      A
 Frequencies --    943.2766               949.6289               969.9777
 Red. masses --      2.4970                 2.6150                 2.8964
 Frc consts  --      1.3090                 1.3894                 1.6056
 IR Inten    --      1.1136                 2.6612                 2.8455

                     25                     26                     27
                      A                      A                      A
 Frequencies --    986.5161              1064.6968              1075.8845
 Red. masses --      2.6792                 1.1449                 3.6216
 Frc consts  --      1.5362                 0.7646                 2.4699
 IR Inten    --      8.5417                 2.9073                55.5236

                     28                     29                     30
                      A                      A                      A
 Frequencies --   1107.6733              1131.7485              1162.5749
 Red. masses --      3.0013                 2.0408                 2.7889
 Frc consts  --      2.1696                 1.5401                 2.2209
 IR Inten    --      4.4735                11.0537               102.5327

                     31                     32                     33
                      A                      A                      A
 Frequencies --   1196.4614              1215.3286              1222.8303
 Red. masses --      2.0290                 1.5543                 1.5351
 Frc consts  --      1.7113                 1.3526                 1.3524
 IR Inten    --     10.1972                34.9279                 7.8041

                     34                     35                     36
                      A                      A                      A
 Frequencies --   1265.9573              1267.6499              1289.0434
 Red. masses --      1.2542                 1.2944                 1.5557
 Frc consts  --      1.1843                 1.2255                 1.5230
 IR Inten    --      1.0272                 3.9317                16.1579

                     37                     38                     39
                      A                      A                      A
 Frequencies --   1291.6351              1325.1788              1345.2952
 Red. masses --      1.4855                 1.4522                 1.3521
 Frc consts  --      1.4602                 1.5025                 1.4418
 IR Inten    --     11.9524                42.5141                23.9158

                     40                     41                     42
                      A                      A                      A
 Frequencies --   1348.3198              1422.3361              1447.0375
 Red. masses --      1.4557                 1.2444                 1.3068
 Frc consts  --      1.5592                 1.4833                 1.6122
 IR Inten    --     28.7073                 1.2925                17.5711

                     43                     44                     45
                      A                      A                      A
 Frequencies --   1481.0692              1502.4963              1515.9949
 Red. masses --      1.0899                 1.0899                 1.0846
 Frc consts  --      1.4086                 1.4497                 1.4687
 IR Inten    --      8.5607                 2.3875                 2.4062

                     46                     47                     48
                      A                      A                      A
 Frequencies --   1519.1157              1524.5735              1538.4757
 Red. masses --      1.0424                 1.0470                 1.1265
 Frc consts  --      1.4173                 1.4338                 1.5709
 IR Inten    --      4.2442                 0.7930                 3.6880

                     49                     50                     51
                      A                      A                      A
 Frequencies --   1546.8144              2364.1631              3043.2251
 Red. masses --      1.0892                12.5939                 1.0633
 Frc consts  --      1.5355                41.4730                 5.8017
 IR Inten    --      2.0315                 9.7629                43.0656

                     52                     53                     54
                      A                      A                      A
 Frequencies --   3058.7361              3062.6392              3078.1658
 Red. masses --      1.0363                 1.0597                 1.0607
 Frc consts  --      5.7123                 5.8561                 5.9214
 IR Inten    --     19.4552                 2.3878                33.5763

                     55                     56                     57
                      A                      A                      A
 Frequencies --   3081.0049              3085.9470              3097.1328
 Red. masses --      1.0588                 1.0632                 1.1009
 Frc consts  --      5.9218                 5.9656                 6.2219
 IR Inten    --     43.6524                 4.8326                15.0387

                     58                     59                     60
                      A                      A                      A
 Frequencies --   3109.2537              3126.2427              3126.8009
 Red. masses --      1.1025                 1.1068                 1.1010
 Frc consts  --      6.2796                 6.3730                 6.3423
 IR Inten    --      5.0932                11.4461                28.1264

                     61                     62                     63
                      A                      A                      A
 Frequencies --   3138.7646              3143.9069              3148.0173
 Red. masses --      1.1086                 1.1038                 1.1063
 Frc consts  --      6.4349                 6.4278                 6.4594
 IR Inten    --      5.4450                30.9454                49.3908

 - Thermochemistry -
 -------------------
 Temperature   298.150 Kelvin.  Pressure   1.00000 Atm.
 Atom     1 has atomic number  6 and mass  12.00000

 Molecular mass:   139.09971 amu.
 Principal axes and moments of inertia in atomic units:
                           1         2         3
     Eigenvalues --   998.406241638.898622167.48939
           X            0.99778  -0.06652  -0.00169
           Y            0.06647   0.99753  -0.02278
           Z            0.00320   0.02261   0.99974
 This molecule is an asymmetric top.
 Rotational symmetry number  1.
 Warning -- assumption of classical behavior for rotation
           may cause significant error
 Rotational temperatures (Kelvin)      0.08675     0.05285     0.03996
 Rotational constants (GHZ):           1.80762     1.10119     0.83264
 Zero-point vibrational energy     525078.3 (Joules/Mol)
                                  125.49673 (Kcal/Mol)
 Warning -- explicit consideration of  14 degrees of freedom as
           vibrations may cause significant error
 Vibrational temperatures:     56.04   135.24   138.86   201.10   224.16
          (Kelvin)            282.16   382.11   443.76   469.75   513.90
                              561.52   626.11   680.52   776.14   951.15
                             1060.37  1162.37  1173.77  1214.15  1261.43
                             1302.90  1357.16  1366.30  1395.58  1419.38
                             1531.86  1547.96  1593.69  1628.33  1672.69
                             1721.44  1748.59  1759.38  1821.43  1823.87
                             1854.65  1858.37  1906.64  1935.58  1939.93
                             2046.42  2081.96  2130.93  2161.76  2181.18
                             2185.67  2193.52  2213.52  2225.52  3401.50
                             4378.52  4400.84  4406.45  4428.79  4432.88
                             4439.99  4456.08  4473.52  4497.97  4498.77
                             4515.98  4523.38  4529.29

 Zero-point correction=                           0.199992 (Hartree/Particle)
 Thermal correction to Energy=                    0.210704
 Thermal correction to Enthalpy=                  0.211648
 Thermal correction to Gibbs Free Energy=         0.163412
 Sum of electronic and zero-point Energies=           -442.441166
 Sum of electronic and thermal Energies=              -442.430453
 Sum of electronic and thermal Enthalpies=            -442.429509
 Sum of electronic and thermal Free Energies=         -442.477745

                     E (Thermal)             CV                S
                      KCal/Mol        Cal/Mol-Kelvin    Cal/Mol-Kelvin
 Total                  132.219             39.329            101.521
 Electronic               0.000              0.000              0.000
 Translational            0.889              2.981             40.702
 Rotational               0.889              2.981             29.651
 Vibrational            130.441             33.368             31.168
 Vibration     1          0.594              1.981              5.312
 Vibration     2          0.603              1.953              3.575
 Vibration     3          0.603              1.952              3.524
 Vibration     4          0.615              1.914              2.807
 Vibration     5          0.620              1.896              2.600
 Vibration     6          0.636              1.845              2.169
 Vibration     7          0.671              1.736              1.625
 Vibration     8          0.698              1.658              1.371
 Vibration     9          0.710              1.623              1.277
 Vibration    10          0.732              1.561              1.134
 Vibration    11          0.758              1.491              0.999
 Vibration    12          0.796              1.394              0.842
 Vibration    13          0.830              1.310              0.729
 Vibration    14          0.894              1.163              0.566

 Optimization completed.
    -- Stationary point found.
 Normal termination of Gaussian 16 at Tue Dec  8 10:45:57 2020.

 ----------------------------------------------------------------------
 # B3LYP/6-311++G(d,p) empiricaldispersion=gd3bj scf=xqc pop=npa geom=c
 heck
 ----------------------------------------------------------------------

 -------------------------------------
 CID_84762577_JID_370_Energie_neutraal
 -------------------------------------
 Structure from the checkpoint file:  "JID_370.chk"
 Charge =  0 Multiplicity = 1

 SCF Done:  E(RB3LYP) =  -442.766022249     A.U. after   14 cycles
 Normal termination of Gaussian 16 at Tue Dec  8 10:48:44 2020.

 ----------------------------------------------------------------------
 # B3LYP/6-311++G(d,p) empiricaldispersion=gd3bj scf=xqc pop=npa geom=c
 heck
 ----------------------------------------------------------------------

 -----------------------------------
 CID_84762577_JID_370_Energie_kation
 -----------------------------------
 Structure from the checkpoint file:  "JID_370.chk"
 Charge =  1 Multiplicity = 2

 SCF Done:  E(UB3LYP) =  -442.425450171     A.U. after   20 cycles
 Normal termination of Gaussian 16 at Tue Dec  8 10:54:57 2020.
 Gaussian 16:  ES64L-G16RevA.03 25-Dec-2016

 ----------------------------------------------------------------------
 # B3LYP/6-311++G(d,p) empiricaldispersion=gd3bj scf=xqc pop=npa geom=c
 heck
 ----------------------------------------------------------------------

 ----------------------------------
 CID_84762577_JID_370_Energie_anion
 ----------------------------------
 Structure from the checkpoint file:  "JID_370.chk"
 Charge = -1 Multiplicity = 2

                         Standard orientation:
 ---------------------------------------------------------------------
 Center     Atomic      Atomic             Coordinates (Angstroms)
 Number     Number       Type             X           Y           Z
 ---------------------------------------------------------------------
      1          6           0        2.710844   -1.105303   -0.184947
      2          6           0        1.405425   -1.227907    0.586972
      3          8           0        0.288387   -1.270887   -0.313465
      4          6           0       -0.657636   -0.236168   -0.227758
      5          6           0       -2.037832   -0.661437   -0.785908
      6          6           0       -2.708513    0.049909    0.418343
      7          6           0       -1.337609    0.042809    1.145538
      8          6           0       -0.164596    1.056442   -0.930515
      9          6           0        0.853681    1.792031   -0.180454
     10          7           0        1.648374    2.366609    0.441268
     11          1           0        2.791925   -1.909642   -0.923263
     12          1           0        3.563978   -1.174917    0.499678
     13          1           0        2.773328   -0.144862   -0.704567
     14          1           0        1.390577   -2.163428    1.160526
     15          1           0        1.297040   -0.401795    1.297662
     16          1           0       -2.297711   -0.333213   -1.797459
     17          1           0       -2.127359   -1.748708   -0.725819
     18          1           0       -3.530736   -0.477288    0.907902
     19          1           0       -3.045230    1.062333    0.174644
     20          1           0       -1.230462   -0.826751    1.799706
     21          1           0       -1.035180    0.942017    1.690225
     22          1           0        0.233211    0.781670   -1.913554
     23          1           0       -1.011681    1.733158   -1.094463
 ---------------------------------------------------------------------

 SCF Done:  E(UB3LYP) =  -442.750732895     A.U. after   31 cycles

 The electronic state is 2-A.
 Alpha  occ. eigenvalues --  -19.02368 -14.21174 -10.13992 -10.11753 -10.11270
 Alpha  occ. eigenvalues --  -10.10767 -10.06641 -10.06380 -10.06274 -10.06270
 Alpha  occ. eigenvalues --   -0.93980  -0.80967  -0.75173  -0.66859  -0.65567
 Alpha  occ. eigenvalues --   -0.56946  -0.54692  -0.50735  -0.44659  -0.42561
 Alpha  occ. eigenvalues --   -0.39976  -0.39063  -0.36597  -0.35126  -0.32962
 Alpha  occ. eigenvalues --   -0.32131  -0.29572  -0.28701  -0.28186  -0.26949
 Alpha  occ. eigenvalues --   -0.25724  -0.24334  -0.23655  -0.23010  -0.22514
 Alpha  occ. eigenvalues --   -0.22135  -0.19694  -0.15626   0.04806
 Alpha virt. eigenvalues --    0.07055   0.07573   0.08909   0.09434   0.09668
 Alpha virt. eigenvalues --    0.10404   0.11357   0.11402   0.11967   0.12387
 Alpha virt. eigenvalues --    0.12902   0.13476   0.13970   0.14330   0.16165

  Beta  occ. eigenvalues --  -19.02362 -14.21162 -10.13995 -10.11739 -10.11268
  Beta  occ. eigenvalues --  -10.10715 -10.06615 -10.06337 -10.06256 -10.06241
  Beta  occ. eigenvalues --   -0.93969  -0.80942  -0.75144  -0.66791  -0.65532
  Beta  occ. eigenvalues --   -0.56883  -0.54624  -0.50657  -0.44585  -0.42524
  Beta  occ. eigenvalues --   -0.39914  -0.38998  -0.36546  -0.35071  -0.32925
  Beta  occ. eigenvalues --   -0.32091  -0.29542  -0.28667  -0.28157  -0.26929
  Beta  occ. eigenvalues --   -0.25684  -0.24293  -0.23606  -0.22982  -0.22473
  Beta  occ. eigenvalues --   -0.22090  -0.19663  -0.15590
  Beta virt. eigenvalues --    0.07183   0.08175   0.08560   0.09533   0.09981
  Beta virt. eigenvalues --    0.10444   0.10759   0.11583   0.11842   0.12293
  Beta virt. eigenvalues --    0.12789   0.13447   0.13803   0.14247   0.14581

 Mulliken charges and spin densities:
               1          2
     1  C    0.299848  -0.853397
     2  C   -0.222177   0.194863
     3  O   -0.043086   0.003705
     4  C   -2.723559   2.846273
     5  C    0.311787  -0.467121
     6  C    1.646829  -2.089013
     7  C    0.146910  -0.425672
     8  C    1.767497  -2.104130
     9  C    0.908922  -0.986247
    10  N   -0.361319   0.057749
    11  H   -0.039941   0.189922
    12  H   -0.039693   0.163937
    13  H   -0.124822   0.261747
    14  H   -0.395567   0.553961
    15  H    0.219078  -0.074098
    16  H   -0.701330   0.871137
    17  H   -0.095068   0.256310
    18  H   -0.313113   0.464046
    19  H   -0.307647   0.463651
    20  H   -0.241981   0.405713
    21  H    0.009140   0.143770
    22  H   -0.096536   0.323097
    23  H   -0.604172   0.799797
 Sum of Mulliken charges =  -1.00000   1.00000

 Dipole moment (field-independent basis, Debye):
    X=              3.6181    Y=             -1.5278    Z=              1.1414  Tot=              4.0900
 Quadrupole moment (field-independent basis, Debye-Ang):
   XX=           -117.4494   YY=           -106.9475   ZZ=            -96.4520
   XY=              0.3860   XZ=             -4.0287   YZ=              3.6361

 Summary of Natural Population Analysis:

                                       Natural Population
                Natural  -----------------------------------------------
    Atom  No    Charge         Core      Valence    Rydberg      Total
 -----------------------------------------------------------------------
      C    1   -0.29246      0.99966     2.28833    0.00447     3.29246
      C    2   -0.01524      0.99957     2.00373    0.01194     3.01524
      O    3   -0.30851      0.99985     3.29811    0.01055     4.30851
      C    4    0.14739      0.99948     1.83348    0.01966     2.85261
      C    5   -0.18803      0.99958     2.17892    0.00952     3.18803
      C    6   -0.19021      0.99965     2.18202    0.00854     3.19021
      C    7   -0.20317      0.99958     2.19483    0.00876     3.20317
      C    8   -0.26612      0.99947     2.25403    0.01261     3.26612
      C    9    0.16661      0.99965     1.81663    0.01710     2.83339
      N   10   -0.19095      0.99979     2.68038    0.01078     3.69095
      H   11    0.09888      0.00000     0.39985    0.00127     0.40112
      H   12    0.09735      0.00000     0.40159    0.00106     0.40265
      H   13    0.10138      0.00000     0.39745    0.00118     0.39862
      H   14    0.08420      0.00000     0.41441    0.00140     0.41580
      H   15    0.08695      0.00000     0.41096    0.00209     0.41305
      H   16    0.10131      0.00000     0.39613    0.00256     0.39869
      H   17    0.10634      0.00000     0.39184    0.00183     0.39366
      H   18    0.10004      0.00000     0.39819    0.00177     0.39996
      H   19    0.09976      0.00000     0.39715    0.00308     0.40024
      H   20    0.10549      0.00000     0.39303    0.00148     0.39451
      H   21    0.10180      0.00000     0.39689    0.00130     0.39820
      H   22    0.12692      0.00000     0.37110    0.00198     0.37308
      H   23    0.13028      0.00000     0.36566    0.00406     0.36972
 =======================================================================
   * Total *    0.00000      9.99629    27.86471    0.13899    38.00000

 Normal termination of Gaussian 16 at Tue Dec  8 11:02:52 2020.
