 Gaussian 16, Revision A.03,

 -----------------------------------------------------------
 # opt freq B3LYP/6-31G(d) empiricaldispersion=gd3bj scf=xqc
 -----------------------------------------------------------

 ------------------------------
 CID_81671908_JID_8867_neutraal
 ------------------------------
 Symbolic Z-matrix:
 Charge =  0 Multiplicity = 1

 SCF Done:  E(RB3LYP) =  -768.230888127     A.U. after   14 cycles
 SCF Done:  E(RB3LYP) =  -768.235533309     A.U. after   12 cycles
 SCF Done:  E(RB3LYP) =  -768.236216136     A.U. after   12 cycles
 SCF Done:  E(RB3LYP) =  -768.237590514     A.U. after   12 cycles
 SCF Done:  E(RB3LYP) =  -768.238329246     A.U. after   11 cycles
 SCF Done:  E(RB3LYP) =  -768.238450325     A.U. after   11 cycles
 SCF Done:  E(RB3LYP) =  -768.238679763     A.U. after   11 cycles
 SCF Done:  E(RB3LYP) =  -768.238714449     A.U. after   10 cycles
 SCF Done:  E(RB3LYP) =  -768.238728639     A.U. after    9 cycles
 SCF Done:  E(RB3LYP) =  -768.238733559     A.U. after    9 cycles
 SCF Done:  E(RB3LYP) =  -768.219151940     A.U. after   12 cycles
 SCF Done:  E(RB3LYP) =  -768.238802062     A.U. after   10 cycles
 SCF Done:  E(RB3LYP) =  -768.238803935     A.U. after    7 cycles
 SCF Done:  E(RB3LYP) =  -768.238804941     A.U. after    9 cycles
 SCF Done:  E(RB3LYP) =  -768.238805159     A.U. after    7 cycles
 SCF Done:  E(RB3LYP) =  -768.238805154     A.U. after    6 cycles
 Optimization completed.
    -- Stationary point found.
 Normal termination of Gaussian 16 at Fri Dec 11 23:11:00 2020.

 --------------------------------------------------------------------
 #N Geom=AllCheck Guess=TCheck SCRF=Check GenChk RB3LYP/6-31G(d) Freq
 --------------------------------------------------------------------

 Structure from the checkpoint file:  "JID_8867.chk"
 ------------------------------
 CID_81671908_JID_8867_neutraal
 ------------------------------
 Charge =  0 Multiplicity = 1

 SCF Done:  E(RB3LYP) =  -768.238805153     A.U. after    1 cycles

  Exact polarizability: 195.504  -6.728 153.615   5.837   2.325 147.973
 Approx polarizability: 243.314 -13.603 230.609  17.080   9.962 236.217

                      1                      2                      3
                      A                      A                      A
 Frequencies --     17.7222                20.8114                31.2156
 Red. masses --      3.2717                 3.6425                 3.2717
 Frc consts  --      0.0006                 0.0009                 0.0019
 IR Inten    --      0.1446                 0.1486                 0.0652

                      4                      5                      6
                      A                      A                      A
 Frequencies --     47.2670                70.7730               103.7605
 Red. masses --      3.5153                 4.3971                 4.7894
 Frc consts  --      0.0046                 0.0130                 0.0304
 IR Inten    --      0.0487                 0.1547                 0.3991

                      7                      8                      9
                      A                      A                      A
 Frequencies --    141.4251               166.1882               195.4371
 Red. masses --      2.8850                 2.7011                 3.2384
 Frc consts  --      0.0340                 0.0440                 0.0729
 IR Inten    --      0.5590                 0.2211                 1.4758

                     10                     11                     12
                      A                      A                      A
 Frequencies --    231.7090               234.9190               257.8222
 Red. masses --      1.1718                 2.6999                 2.3889
 Frc consts  --      0.0371                 0.0878                 0.0936
 IR Inten    --      0.2115                 2.0081                 1.0412

                     13                     14                     15
                      A                      A                      A
 Frequencies --    269.1000               290.6409               302.3051
 Red. masses --      1.7669                 1.4777                 1.3206
 Frc consts  --      0.0754                 0.0735                 0.0711
 IR Inten    --      0.3935                 0.7890                 0.4893

                     16                     17                     18
                      A                      A                      A
 Frequencies --    309.9594               350.4325               351.6882
 Red. masses --      1.8860                 2.0050                 2.1505
 Frc consts  --      0.1068                 0.1451                 0.1567
 IR Inten    --      3.1136                 0.8489                 1.1824

                     19                     20                     21
                      A                      A                      A
 Frequencies --    358.4186               391.5988               413.3155
 Red. masses --      1.9996                 2.1978                 2.1651
 Frc consts  --      0.1513                 0.1986                 0.2179
 IR Inten    --      1.1975                 2.4614                 0.4081

                     22                     23                     24
                      A                      A                      A
 Frequencies --    422.4245               437.3021               443.0890
 Red. masses --      2.9091                 2.2636                 3.0441
 Frc consts  --      0.3059                 0.2550                 0.3521
 IR Inten    --      2.1612                 1.0846                 0.1380

                     25                     26                     27
                      A                      A                      A
 Frequencies --    463.6124               488.2433               555.3606
 Red. masses --      2.2701                 1.6930                 3.1958
 Frc consts  --      0.2875                 0.2378                 0.5807
 IR Inten    --     10.0387                 0.4797                 3.1924

                     28                     29                     30
                      A                      A                      A
 Frequencies --    631.6839               649.9302               686.1023
 Red. masses --      3.3711                 4.0416                 3.8385
 Frc consts  --      0.7926                 1.0059                 1.0646
 IR Inten    --     25.1042                 2.0815                 6.4896

                     31                     32                     33
                      A                      A                      A
 Frequencies --    727.5751               730.6166               749.7379
 Red. masses --      3.7587                 3.3382                 2.3957
 Frc consts  --      1.1723                 1.0499                 0.7934
 IR Inten    --     22.0316                 4.3343                32.9999

                     34                     35                     36
                      A                      A                      A
 Frequencies --    792.7884               798.8481               828.0778
 Red. masses --      1.6399                 2.4245                 2.8666
 Frc consts  --      0.6073                 0.9116                 1.1581
 IR Inten    --      0.3230                 0.1636                76.5219

                     37                     38                     39
                      A                      A                      A
 Frequencies --    841.2993               846.9438               861.0325
 Red. masses --      1.4393                 2.5397                 2.2496
 Frc consts  --      0.6002                 1.0734                 0.9826
 IR Inten    --     11.7304                 0.7338                 0.4813

                     40                     41                     42
                      A                      A                      A
 Frequencies --    896.7340               908.5616               923.3612
 Red. masses --      1.6378                 2.0880                 1.7127
 Frc consts  --      0.7760                 1.0155                 0.8604
 IR Inten    --      7.1321                20.7752                 0.1701

                     43                     44                     45
                      A                      A                      A
 Frequencies --    930.9245               943.3463               965.8276
 Red. masses --      1.5882                 1.7225                 1.7761
 Frc consts  --      0.8109                 0.9031                 0.9761
 IR Inten    --      0.7130                 4.9022                 2.7514

                     46                     47                     48
                      A                      A                      A
 Frequencies --    972.4981               973.7265              1004.4685
 Red. masses --      1.2027                 2.2259                 2.0420
 Frc consts  --      0.6702                 1.2434                 1.2139
 IR Inten    --      0.0780                 5.2870                 4.2222

                     49                     50                     51
                      A                      A                      A
 Frequencies --   1037.4095              1046.2254              1051.2120
 Red. masses --      2.9855                 2.2105                 4.6951
 Frc consts  --      1.8931                 1.4256                 3.0569
 IR Inten    --      3.6781                 1.3087                26.4847

                     52                     53                     54
                      A                      A                      A
 Frequencies --   1063.3021              1067.5137              1070.2049
 Red. masses --      1.4080                 1.6725                 1.7665
 Frc consts  --      0.9379                 1.1230                 1.1920
 IR Inten    --      8.1332                 1.8580                 4.0697

                     55                     56                     57
                      A                      A                      A
 Frequencies --   1074.9995              1118.4571              1146.0587
 Red. masses --      2.0488                 1.9872                 3.2251
 Frc consts  --      1.3950                 1.4646                 2.4958
 IR Inten    --      2.9058                 0.0495                21.0415

                     58                     59                     60
                      A                      A                      A
 Frequencies --   1147.5789              1159.8985              1165.2847
 Red. masses --      1.1371                 1.3790                 1.6698
 Frc consts  --      0.8823                 1.0931                 1.3359
 IR Inten    --      0.6166                 2.6489                 0.1429

                     61                     62                     63
                      A                      A                      A
 Frequencies --   1226.4821              1234.2284              1235.3800
 Red. masses --      1.6403                 1.6512                 1.6520
 Frc consts  --      1.4538                 1.4820                 1.4855
 IR Inten    --     22.8128                31.7914                 3.1541

                     64                     65                     66
                      A                      A                      A
 Frequencies --   1251.2587              1273.4615              1284.6916
 Red. masses --      2.4326                 2.7074                 1.2756
 Frc consts  --      2.2439                 2.5868                 1.2404
 IR Inten    --     24.1536                58.6973                 1.3658

                     67                     68                     69
                      A                      A                      A
 Frequencies --   1308.0275              1317.6750              1324.1398
 Red. masses --      1.2866                 1.3001                 2.1622
 Frc consts  --      1.2970                 1.3300                 2.2336
 IR Inten    --      0.5871                 2.1028                 5.8650

                     70                     71                     72
                      A                      A                      A
 Frequencies --   1347.4475              1365.5321              1372.2677
 Red. masses --      1.7457                 3.4042                 1.3625
 Frc consts  --      1.8674                 3.7400                 1.5117
 IR Inten    --      1.6506                26.7429                 4.1158

                     73                     74                     75
                      A                      A                      A
 Frequencies --   1377.0441              1380.0228              1388.9845
 Red. masses --      1.5466                 1.4042                 1.6215
 Frc consts  --      1.7280                 1.5757                 1.8432
 IR Inten    --      0.8731                24.1210                 4.0980

                     76                     77                     78
                      A                      A                      A
 Frequencies --   1401.9096              1405.6646              1410.5255
 Red. masses --      1.3890                 1.4071                 1.4767
 Frc consts  --      1.6084                 1.6381                 1.7310
 IR Inten    --      5.4270                 1.2178                 1.1959

                     79                     80                     81
                      A                      A                      A
 Frequencies --   1421.7540              1423.9343              1424.8718
 Red. masses --      1.3924                 1.2747                 1.2424
 Frc consts  --      1.6583                 1.5227                 1.4861
 IR Inten    --      1.2196                 9.2554                 5.3867

                     82                     83                     84
                      A                      A                      A
 Frequencies --   1430.9535              1452.1365              1462.4703
 Red. masses --      1.3636                 1.2418                 3.4376
 Frc consts  --      1.6450                 1.5428                 4.3320
 IR Inten    --     16.5622                16.5369                 2.3936

                     85                     86                     87
                      A                      A                      A
 Frequencies --   1486.4295              1497.5862              1503.4863
 Red. masses --      2.6445                 1.0813                 1.2935
 Frc consts  --      3.4426                 1.4289                 1.7228
 IR Inten    --     10.0598                 1.1539                14.5564

                     88                     89                     90
                      A                      A                      A
 Frequencies --   1509.3969              1510.2269              1515.7941
 Red. masses --      1.0650                 1.0858                 1.1029
 Frc consts  --      1.4295                 1.4590                 1.4931
 IR Inten    --      2.4223                 3.8126                 9.0253

                     91                     92                     93
                      A                      A                      A
 Frequencies --   1516.4297              1519.5500              1521.2385
 Red. masses --      1.0820                 1.0600                 1.1366
 Frc consts  --      1.4659                 1.4421                 1.5497
 IR Inten    --      8.4062                 0.2537                 7.0342

                     94                     95                     96
                      A                      A                      A
 Frequencies --   1525.0429              1527.2309              1535.8782
 Red. masses --      1.1028                 1.0930                 1.0608
 Frc consts  --      1.5112                 1.5020                 1.4743
 IR Inten    --      8.2240                 6.0894                 5.0304

                     97                     98                     99
                      A                      A                      A
 Frequencies --   1541.6695              1551.0498              1552.6211
 Red. masses --      1.1056                 1.1783                 1.1046
 Frc consts  --      1.5482                 1.6702                 1.5688
 IR Inten    --      9.0986                29.6471                 7.3300

                    100                    101                    102
                      A                      A                      A
 Frequencies --   1566.6934              3008.1240              3016.2392
 Red. masses --      3.6186                 1.0786                 1.0680
 Frc consts  --      5.2331                 5.7504                 5.7244
 IR Inten    --     51.1523                 7.7227                35.2961

                    103                    104                    105
                      A                      A                      A
 Frequencies --   3023.2729              3032.0038              3039.2713
 Red. masses --      1.0626                 1.0675                 1.0715
 Frc consts  --      5.7221                 5.7819                 5.8313
 IR Inten    --     28.5976                63.9370                31.5223

                    106                    107                    108
                      A                      A                      A
 Frequencies --   3042.0126              3046.4927              3052.0181
 Red. masses --      1.0370                 1.0365                 1.0696
 Frc consts  --      5.6540                 5.6680                 5.8703
 IR Inten    --     22.0959                31.4084                46.5863

                    109                    110                    111
                      A                      A                      A
 Frequencies --   3053.0007              3055.3870              3059.5253
 Red. masses --      1.0702                 1.0369                 1.0991
 Frc consts  --      5.8774                 5.7031                 6.0619
 IR Inten    --     35.4837                 9.0878                50.8431

                    112                    113                    114
                      A                      A                      A
 Frequencies --   3067.1961              3073.0218              3074.4038
 Red. masses --      1.0975                 1.0666                 1.0889
 Frc consts  --      6.0831                 5.9345                 6.0641
 IR Inten    --     35.4484                73.9970                13.7339

                    115                    116                    117
                      A                      A                      A
 Frequencies --   3103.7022              3106.3135              3111.0555
 Red. masses --      1.0978                 1.0996                 1.1008
 Frc consts  --      6.2304                 6.2513                 6.2773
 IR Inten    --     39.7551                 3.7148                19.3443

                    118                    119                    120
                      A                      A                      A
 Frequencies --   3116.8243              3117.1325              3124.2207
 Red. masses --      1.1000                 1.0967                 1.1048
 Frc consts  --      6.2960                 6.2782                 6.3538
 IR Inten    --    101.4988                 9.1922                12.5882

                    121                    122                    123
                      A                      A                      A
 Frequencies --   3128.2761              3132.6350              3134.0218
 Red. masses --      1.1030                 1.0993                 1.1019
 Frc consts  --      6.3597                 6.3561                 6.3766
 IR Inten    --      1.8507                13.0168                45.0166

                    124                    125                    126
                      A                      A                      A
 Frequencies --   3136.9099              3268.9517              3488.2802
 Red. masses --      1.0945                 1.0978                 1.0733
 Frc consts  --      6.3453                 6.9118                 7.6947
 IR Inten    --     28.3585                 2.2969                 0.1343

 - Thermochemistry -
 -------------------
 Temperature   298.150 Kelvin.  Pressure   1.00000 Atm.
 Atom     1 has atomic number  6 and mass  12.00000

 Molecular mass:   250.21575 amu.
 Principal axes and moments of inertia in atomic units:
                           1         2         3
     Eigenvalues --  1901.578988960.132089196.34802
           X            0.99999   0.00256  -0.00469
           Y           -0.00257   0.99999  -0.00308
           Z            0.00468   0.00309   0.99998
 This molecule is an asymmetric top.
 Rotational symmetry number  1.
 Warning -- assumption of classical behavior for rotation
           may cause significant error
 Rotational temperatures (Kelvin)      0.04555     0.00967     0.00942
 Rotational constants (GHZ):           0.94908     0.20142     0.19625
 Zero-point vibrational energy    1050861.1 (Joules/Mol)
                                  251.16182 (Kcal/Mol)
 Warning -- explicit consideration of  27 degrees of freedom as
           vibrations may cause significant error
 Vibrational temperatures:     25.50    29.94    44.91    68.01   101.83
          (Kelvin)            149.29   203.48   239.11   281.19   333.38
                              338.00   370.95   387.17   418.17   434.95
                              445.96   504.19   506.00   515.68   563.42
                              594.67   607.77   629.18   637.51   667.03
                              702.47   799.04   908.85   935.10   987.15
                             1046.82  1051.19  1078.71  1140.65  1149.36
                             1191.42  1210.44  1218.56  1238.83  1290.20
                             1307.22  1328.51  1339.39  1357.26  1389.61
                             1399.21  1400.98  1445.21  1492.60  1505.29
                             1512.46  1529.85  1535.91  1539.79  1546.68
                             1609.21  1648.92  1651.11  1668.84  1676.58
                             1764.63  1775.78  1777.44  1800.28  1832.23
                             1848.38  1881.96  1895.84  1905.14  1938.68
                             1964.70  1974.39  1981.26  1985.54  1998.44
                             2017.04  2022.44  2029.43  2045.59  2048.72
                             2050.07  2058.82  2089.30  2104.17  2138.64
                             2154.69  2163.18  2171.69  2172.88  2180.89
                             2181.80  2186.29  2188.72  2194.20  2197.34
                             2209.79  2218.12  2231.61  2233.88  2254.12
                             4328.02  4339.70  4349.82  4362.38  4372.83
                             4376.78  4383.22  4391.17  4392.59  4396.02
                             4401.97  4413.01  4421.39  4423.38  4465.54
                             4469.29  4476.11  4484.41  4484.86  4495.06
                             4500.89  4507.16  4509.16  4513.31  4703.29
                             5018.86

 Zero-point correction=                           0.400252 (Hartree/Particle)
 Thermal correction to Energy=                    0.418502
 Thermal correction to Enthalpy=                  0.419446
 Thermal correction to Gibbs Free Energy=         0.352178
 Sum of electronic and zero-point Energies=           -767.838553
 Sum of electronic and thermal Energies=              -767.820303
 Sum of electronic and thermal Enthalpies=            -767.819359
 Sum of electronic and thermal Free Energies=         -767.886627

                     E (Thermal)             CV                S
                      KCal/Mol        Cal/Mol-Kelvin    Cal/Mol-Kelvin
 Total                  262.614             71.303            141.577
 Electronic               0.000              0.000              0.000
 Translational            0.889              2.981             42.452
 Rotational               0.889              2.981             33.416
 Vibrational            260.836             65.341             65.710
 Vibration     1          0.593              1.986              6.874
 Vibration     2          0.593              1.986              6.555
 Vibration     3          0.594              1.983              5.751
 Vibration     4          0.595              1.979              4.929
 Vibration     5          0.598              1.968              4.132
 Vibration     6          0.605              1.946              3.382
 Vibration     7          0.615              1.912              2.785
 Vibration     8          0.624              1.884              2.478
 Vibration     9          0.636              1.846              2.176
 Vibration    10          0.653              1.792              1.866
 Vibration    11          0.655              1.787              1.841
 Vibration    12          0.667              1.750              1.676
 Vibration    13          0.673              1.730              1.602
 Vibration    14          0.687              1.691              1.470
 Vibration    15          0.694              1.669              1.404
 Vibration    16          0.699              1.655              1.363
 Vibration    17          0.727              1.574              1.164
 Vibration    18          0.728              1.572              1.159
 Vibration    19          0.733              1.558              1.129
 Vibration    20          0.759              1.488              0.994
 Vibration    21          0.777              1.441              0.915
 Vibration    22          0.785              1.421              0.884
 Vibration    23          0.798              1.389              0.835
 Vibration    24          0.803              1.376              0.817
 Vibration    25          0.821              1.331              0.756
 Vibration    26          0.844              1.276              0.688
 Vibration    27          0.911              1.128              0.533

 Optimization completed.
    -- Stationary point found.
 Normal termination of Gaussian 16 at Fri Dec 11 23:32:34 2020.

 ----------------------------------------------------------------------
 # B3LYP/6-311++G(d,p) empiricaldispersion=gd3bj scf=xqc pop=npa geom=c
 heck
 ----------------------------------------------------------------------

 --------------------------------------
 CID_81671908_JID_8867_Energie_neutraal
 --------------------------------------
 Structure from the checkpoint file:  "JID_8867.chk"
 Charge =  0 Multiplicity = 1

 SCF Done:  E(RB3LYP) =  -768.446800094     A.U. after   14 cycles
 Normal termination of Gaussian 16 at Fri Dec 11 23:42:50 2020.

 ----------------------------------------------------------------------
 # B3LYP/6-311++G(d,p) empiricaldispersion=gd3bj scf=xqc pop=npa geom=c
 heck
 ----------------------------------------------------------------------

 ------------------------------------
 CID_81671908_JID_8867_Energie_kation
 ------------------------------------
 Structure from the checkpoint file:  "JID_8867.chk"
 Charge =  1 Multiplicity = 2

 SCF Done:  E(UB3LYP) =  -768.150601838     A.U. after   23 cycles
 Normal termination of Gaussian 16 at Sat Dec 12 00:06:40 2020.
 Gaussian 16:  ES64L-G16RevA.03 25-Dec-2016

 ----------------------------------------------------------------------
 # B3LYP/6-311++G(d,p) empiricaldispersion=gd3bj scf=xqc pop=npa geom=c
 heck
 ----------------------------------------------------------------------

 -----------------------------------
 CID_81671908_JID_8867_Energie_anion
 -----------------------------------
 Structure from the checkpoint file:  "JID_8867.chk"
 Charge = -1 Multiplicity = 2

                         Standard orientation:
 ---------------------------------------------------------------------
 Center     Atomic      Atomic             Coordinates (Angstroms)
 Number     Number       Type             X           Y           Z
 ---------------------------------------------------------------------
      1          6           0       -4.246183    1.171408    1.251963
      2          6           0       -3.919926    0.121319    0.179408
      3          6           0       -3.254179   -1.105434    0.839583
      4          6           0       -5.222954   -0.320091   -0.504031
      5          7           0       -3.112778    0.757911   -0.885925
      6          6           0       -1.764662    1.218135   -0.561031
      7          6           0       -0.722227    0.138769   -0.445678
      8          7           0        0.136093    0.049888    0.564891
      9          7           0        0.856967   -1.064315    0.256246
     10          6           0        0.396044   -1.587170   -0.900882
     11          7           0       -0.597530   -0.855834   -1.378757
     12          6           0        1.973063   -1.511259    1.075642
     13          6           0        3.338926   -0.830648    0.837403
     14          6           0        3.768394   -0.813698   -0.646129
     15          6           0        3.207221    0.367280   -1.455947
     16          6           0        3.512187    1.704833   -0.771215
     17          6           0        2.950078    1.729243    0.654563
     18          6           0        3.500014    0.562457    1.486221
     19          1           0       -4.953783    0.761586    1.981027
     20          1           0       -4.690843    2.058874    0.790601
     21          1           0       -3.353038    1.480918    1.805561
     22          1           0       -3.943977   -1.581804    1.546828
     23          1           0       -2.972334   -1.846904    0.083918
     24          1           0       -2.351658   -0.824830    1.390546
     25          1           0       -5.710851    0.534772   -0.982652
     26          1           0       -5.021278   -1.074895   -1.274882
     27          1           0       -5.914129   -0.761434    0.222014
     28          1           0       -3.036636    0.109179   -1.668350
     29          1           0       -1.455430    1.907491   -1.358138
     30          1           0       -1.775769    1.796394    0.365482
     31          1           0        0.809619   -2.481879   -1.345902
     32          1           0        1.669723   -1.392889    2.119774
     33          1           0        2.076724   -2.583118    0.876285
     34          1           0        4.031610   -1.500075    1.368114
     35          1           0        4.864925   -0.753635   -0.674900
     36          1           0        3.503831   -1.766699   -1.124831
     37          1           0        2.123854    0.269118   -1.584648
     38          1           0        3.641380    0.346561   -2.463335
     39          1           0        3.096565    2.532324   -1.358915
     40          1           0        4.601894    1.856373   -0.739452
     41          1           0        1.857826    1.672003    0.619911
     42          1           0        3.208069    2.674511    1.148397
     43          1           0        3.043279    0.557378    2.484162
     44          1           0        4.576394    0.726273    1.638975
 ---------------------------------------------------------------------

 SCF Done:  E(UB3LYP) =  -768.438243691     A.U. after   31 cycles

 The electronic state is 2-A.
 Alpha  occ. eigenvalues --  -14.29943 -14.23883 -14.20915 -14.20907 -10.13971
 Alpha  occ. eigenvalues --  -10.12619 -10.12525 -10.11408 -10.11245 -10.07919
 Alpha  occ. eigenvalues --  -10.07793 -10.07678 -10.06573 -10.06567 -10.06563
 Alpha  occ. eigenvalues --  -10.06449 -10.06345 -10.05874  -0.98177  -0.82989
 Alpha  occ. eigenvalues --   -0.80652  -0.75325  -0.73016  -0.70303  -0.66575
 Alpha  occ. eigenvalues --   -0.64193  -0.61838  -0.60750  -0.60057  -0.58537
 Alpha  occ. eigenvalues --   -0.52588  -0.51175  -0.50058  -0.49295  -0.46646
 Alpha  occ. eigenvalues --   -0.44854  -0.42700  -0.40201  -0.38686  -0.38003
 Alpha  occ. eigenvalues --   -0.37611  -0.36528  -0.35551  -0.35091  -0.34176
 Alpha  occ. eigenvalues --   -0.33810  -0.33523  -0.32371  -0.31663  -0.30735
 Alpha  occ. eigenvalues --   -0.30160  -0.29507  -0.28289  -0.27864  -0.27581
 Alpha  occ. eigenvalues --   -0.27305  -0.26766  -0.25821  -0.25191  -0.24631
 Alpha  occ. eigenvalues --   -0.24022  -0.23314  -0.22090  -0.20374  -0.20148
 Alpha  occ. eigenvalues --   -0.18996  -0.18611  -0.16484  -0.14251   0.04028
 Alpha virt. eigenvalues --    0.05727   0.06799   0.07371   0.07739   0.08105
 Alpha virt. eigenvalues --    0.08234   0.08955   0.09157   0.09494   0.09727
 Alpha virt. eigenvalues --    0.10165   0.10367   0.10674   0.11138   0.11677

  Beta  occ. eigenvalues --  -14.29930 -14.23859 -14.20909 -14.20905 -10.13926
  Beta  occ. eigenvalues --  -10.12617 -10.12524 -10.11370 -10.11243 -10.07913
  Beta  occ. eigenvalues --  -10.07779 -10.07671 -10.06564 -10.06553 -10.06543
  Beta  occ. eigenvalues --  -10.06445 -10.06326 -10.05872  -0.98144  -0.82980
  Beta  occ. eigenvalues --   -0.80622  -0.75278  -0.72986  -0.70293  -0.66535
  Beta  occ. eigenvalues --   -0.64165  -0.61817  -0.60722  -0.60038  -0.58501
  Beta  occ. eigenvalues --   -0.52531  -0.51134  -0.50030  -0.49249  -0.46629
  Beta  occ. eigenvalues --   -0.44810  -0.42616  -0.40175  -0.38637  -0.37972
  Beta  occ. eigenvalues --   -0.37577  -0.36514  -0.35504  -0.35048  -0.34146
  Beta  occ. eigenvalues --   -0.33783  -0.33504  -0.32339  -0.31630  -0.30720
  Beta  occ. eigenvalues --   -0.30148  -0.29495  -0.28278  -0.27837  -0.27550
  Beta  occ. eigenvalues --   -0.27283  -0.26726  -0.25786  -0.25179  -0.24621
  Beta  occ. eigenvalues --   -0.23993  -0.23280  -0.22055  -0.20335  -0.20114
  Beta  occ. eigenvalues --   -0.18920  -0.18572  -0.16386  -0.14242
  Beta virt. eigenvalues --    0.05680   0.06545   0.07388   0.07589   0.08101
  Beta virt. eigenvalues --    0.08250   0.08474   0.09223   0.09506   0.09861
  Beta virt. eigenvalues --    0.09904   0.10363   0.10509   0.10945   0.11200

 Mulliken charges and spin densities:
               1          2
     1  C   -0.217014  -0.340884
     2  C   -0.668769   0.353848
     3  C   -0.023858  -0.286043
     4  C   -0.307350  -0.141525
     5  N    0.155046   0.004747
     6  C   -0.260749  -0.338337
     7  C    0.207553  -0.806542
     8  N   -0.278815   0.289738
     9  N    0.257109  -0.043596
    10  C    0.102735   0.052606
    11  N   -0.074922   0.086376
    12  C    1.566306  -2.158812
    13  C   -0.764829   1.329206
    14  C    0.296252  -0.975599
    15  C   -0.186036   0.201270
    16  C   -0.035319  -0.506026
    17  C   -0.495402   0.252337
    18  C    0.808062  -1.345184
    19  H    0.076233   0.045325
    20  H    0.122263   0.034867
    21  H    0.075067   0.064148
    22  H   -0.006524   0.176681
    23  H    0.117703   0.030063
    24  H    0.013260   0.172491
    25  H    0.109824   0.041742
    26  H    0.075169   0.064678
    27  H    0.084670   0.040975
    28  H    0.220976   0.008384
    29  H    0.151311   0.039959
    30  H    0.153885   0.006742
    31  H   -0.711197   0.913996
    32  H   -0.181403   0.359007
    33  H   -0.623385   0.830333
    34  H   -0.766634   1.020348
    35  H   -0.368993   0.541137
    36  H   -0.029840   0.179277
    37  H    0.279024  -0.130997
    38  H    0.014989   0.171939
    39  H    0.034252   0.102652
    40  H    0.020509   0.097498
    41  H    0.214571  -0.057273
    42  H    0.036853   0.130415
    43  H   -0.089175   0.235776
    44  H   -0.103409   0.252258
 Sum of Mulliken charges =  -1.00000   1.00000

 Dipole moment (field-independent basis, Debye):
    X=             -7.5565    Y=              5.5939    Z=             -1.7983  Tot=              9.5721
 Quadrupole moment (field-independent basis, Debye-Ang):
   XX=           -205.2643   YY=           -163.3649   ZZ=           -152.0392
   XY=             15.2648   XZ=             -8.6560   YZ=              3.8321

 Summary of Natural Population Analysis:

                                       Natural Population
                Natural  -----------------------------------------------
    Atom  No    Charge         Core      Valence    Rydberg      Total
 -----------------------------------------------------------------------
      C    1   -0.28991      0.99962     2.28438    0.00591     3.28991
      C    2    0.05619      0.99960     1.93239    0.01182     2.94381
      C    3   -0.30111      0.99962     2.29418    0.00731     3.30111
      C    4   -0.28464      0.99962     2.27907    0.00595     3.28464
      N    5   -0.34486      0.99973     2.83390    0.01123     3.84486
      C    6   -0.10781      0.99957     2.09700    0.01123     3.10781
      C    7    0.16321      0.99964     1.81801    0.01914     2.83679
      N    8   -0.16285      0.99968     2.65283    0.01034     3.66285
      N    9   -0.11388      0.99965     2.59858    0.01566     3.61388
      C   10    0.12185      0.99960     1.86216    0.01639     2.87815
      N   11   -0.27685      0.99970     2.76795    0.00919     3.77685
      C   12   -0.08119      0.99957     2.06786    0.01376     3.08119
      C   13   -0.11569      0.99958     2.10218    0.01394     3.11569
      C   14   -0.19092      0.99961     2.18112    0.01019     3.19092
      C   15   -0.19182      0.99962     2.18447    0.00773     3.19182
      C   16   -0.18773      0.99963     2.18062    0.00748     3.18773
      C   17   -0.19796      0.99962     2.19059    0.00776     3.19796
      C   18   -0.18696      0.99961     2.17786    0.00949     3.18696
      H   19    0.09853      0.00000     0.40073    0.00073     0.40147
      H   20    0.10150      0.00000     0.39750    0.00100     0.39850
      H   21    0.10056      0.00000     0.39859    0.00085     0.39944
      H   22    0.09726      0.00000     0.40201    0.00073     0.40274
      H   23    0.10490      0.00000     0.39415    0.00095     0.39510
      H   24    0.10719      0.00000     0.39164    0.00116     0.39281
      H   25    0.10185      0.00000     0.39710    0.00105     0.39815
      H   26    0.09832      0.00000     0.40080    0.00088     0.40168
      H   27    0.09785      0.00000     0.40142    0.00073     0.40215
      H   28    0.17857      0.00000     0.31880    0.00263     0.32143
      H   29    0.10123      0.00000     0.39774    0.00103     0.39877
      H   30    0.10312      0.00000     0.39576    0.00113     0.39688
      H   31    0.10301      0.00000     0.39537    0.00162     0.39699
      H   32    0.10768      0.00000     0.39047    0.00186     0.39232
      H   33    0.10917      0.00000     0.38622    0.00462     0.39083
      H   34    0.10850      0.00000     0.38732    0.00418     0.39150
      H   35    0.10000      0.00000     0.39845    0.00155     0.40000
      H   36    0.10017      0.00000     0.39825    0.00158     0.39983
      H   37    0.09544      0.00000     0.40220    0.00235     0.40456
      H   38    0.09597      0.00000     0.40315    0.00088     0.40403
      H   39    0.09507      0.00000     0.40412    0.00081     0.40493
      H   40    0.09080      0.00000     0.40805    0.00115     0.40920
      H   41    0.10655      0.00000     0.39165    0.00180     0.39345
      H   42    0.09346      0.00000     0.40572    0.00082     0.40654
      H   43    0.09971      0.00000     0.39922    0.00107     0.40029
      H   44    0.09653      0.00000     0.40218    0.00129     0.40347
 =======================================================================
   * Total *   -0.00000     17.99325    50.77377    0.23299    69.00000

 Normal termination of Gaussian 16 at Sat Dec 12 00:37:24 2020.
