 Gaussian 16, Revision A.03,

 -----------------------------------------------------------
 # opt freq B3LYP/6-31G(d) empiricaldispersion=gd3bj scf=xqc
 -----------------------------------------------------------

 -----------------------------
 CID_2060575_JID_1582_neutraal
 -----------------------------
 Symbolic Z-matrix:
 Charge =  0 Multiplicity = 1

 SCF Done:  E(RB3LYP) =  -444.888189451     A.U. after   13 cycles
 SCF Done:  E(RB3LYP) =  -444.890129134     A.U. after   11 cycles
 SCF Done:  E(RB3LYP) =  -444.890342746     A.U. after   11 cycles
 SCF Done:  E(RB3LYP) =  -444.890531110     A.U. after   11 cycles
 SCF Done:  E(RB3LYP) =  -444.890608756     A.U. after   11 cycles
 SCF Done:  E(RB3LYP) =  -444.890680882     A.U. after   11 cycles
 SCF Done:  E(RB3LYP) =  -444.890724864     A.U. after   11 cycles
 SCF Done:  E(RB3LYP) =  -444.890726487     A.U. after    9 cycles
 SCF Done:  E(RB3LYP) =  -444.890727067     A.U. after    8 cycles
 SCF Done:  E(RB3LYP) =  -444.890727156     A.U. after    7 cycles
 SCF Done:  E(RB3LYP) =  -444.890727211     A.U. after    7 cycles
 SCF Done:  E(RB3LYP) =  -444.890727246     A.U. after    7 cycles
 SCF Done:  E(RB3LYP) =  -444.890727277     A.U. after    7 cycles
 SCF Done:  E(RB3LYP) =  -444.890727285     A.U. after    6 cycles
 Optimization completed.
    -- Stationary point found.
 Normal termination of Gaussian 16 at Tue Dec  8 20:27:44 2020.

 --------------------------------------------------------------------
 #N Geom=AllCheck Guess=TCheck SCRF=Check GenChk RB3LYP/6-31G(d) Freq
 --------------------------------------------------------------------

 Structure from the checkpoint file:  "JID_1582.chk"
 -----------------------------
 CID_2060575_JID_1582_neutraal
 -----------------------------
 Charge =  0 Multiplicity = 1

 SCF Done:  E(RB3LYP) =  -444.890727285     A.U. after    1 cycles

  Exact polarizability: 157.890   1.647 105.531  -0.718   8.209  70.209
 Approx polarizability: 202.029   1.324 176.420  -0.830  19.944 102.730

                      1                      2                      3
                      A                      A                      A
 Frequencies --     35.4250                43.4721                77.9645
 Red. masses --      2.3728                 3.2746                 2.3799
 Frc consts  --      0.0018                 0.0036                 0.0085
 IR Inten    --      0.1553                 0.4699                 1.6878

                      4                      5                      6
                      A                      A                      A
 Frequencies --    100.5534               147.7864               220.3343
 Red. masses --      2.4246                 3.3014                 1.3250
 Frc consts  --      0.0144                 0.0425                 0.0379
 IR Inten    --      2.3841                 0.1969                 0.1840

                      7                      8                      9
                      A                      A                      A
 Frequencies --    240.0794               256.9940               314.6027
 Red. masses --      2.4292                 1.1632                 3.3917
 Frc consts  --      0.0825                 0.0453                 0.1978
 IR Inten    --      0.1914                 1.4355                 0.7808

                     10                     11                     12
                      A                      A                      A
 Frequencies --    322.4885               389.8985               419.0235
 Red. masses --      2.2037                 2.5470                 3.0893
 Frc consts  --      0.1350                 0.2281                 0.3196
 IR Inten    --      0.8170                 0.4111                 0.1645

                     13                     14                     15
                      A                      A                      A
 Frequencies --    429.1288               506.2619               592.3463
 Red. masses --      3.6307                 3.4053                 2.8324
 Frc consts  --      0.3939                 0.5142                 0.5855
 IR Inten    --      1.0804                 4.2673                 7.6944

                     16                     17                     18
                      A                      A                      A
 Frequencies --    658.5758               723.7119               768.7469
 Red. masses --      6.7638                 3.2994                 3.3247
 Frc consts  --      1.7284                 1.0182                 1.1576
 IR Inten    --      0.4056                 5.4276                 0.2999

                     19                     20                     21
                      A                      A                      A
 Frequencies --    800.5750               808.5858               838.4186
 Red. masses --      1.1615                 1.4121                 1.6067
 Frc consts  --      0.4386                 0.5439                 0.6654
 IR Inten    --      0.3454                80.3495                26.8589

                     22                     23                     24
                      A                      A                      A
 Frequencies --    859.1205               865.0130               958.2498
 Red. masses --      2.0266                 1.5110                 1.3084
 Frc consts  --      0.8813                 0.6661                 0.7079
 IR Inten    --      3.1429                 7.4485                 0.5175

                     25                     26                     27
                      A                      A                      A
 Frequencies --    975.8192               981.6454               987.5820
 Red. masses --      1.3091                 2.3662                 2.2969
 Frc consts  --      0.7345                 1.3434                 1.3199
 IR Inten    --      2.2718                 1.7121                 5.5668

                     28                     29                     30
                      A                      A                      A
 Frequencies --   1010.1546              1045.1898              1081.9339
 Red. masses --      1.4428                 2.8049                 1.4501
 Frc consts  --      0.8674                 1.8053                 1.0001
 IR Inten    --     12.5784                 5.5862                 1.6275

                     31                     32                     33
                      A                      A                      A
 Frequencies --   1093.9263              1145.5699              1150.4685
 Red. masses --      1.9076                 2.2458                 1.2971
 Frc consts  --      1.3450                 1.7364                 1.0115
 IR Inten    --     11.1450                17.6653                 5.6007

                     34                     35                     36
                      A                      A                      A
 Frequencies --   1168.5903              1197.4737              1214.2515
 Red. masses --      1.5780                 1.7865                 1.1479
 Frc consts  --      1.2697                 1.5094                 0.9972
 IR Inten    --     19.9058                13.4905                 0.7962

                     37                     38                     39
                      A                      A                      A
 Frequencies --   1238.6208              1242.3054              1285.2123
 Red. masses --      3.7928                 1.9557                 1.4658
 Frc consts  --      3.4283                 1.7783                 1.4265
 IR Inten    --      0.0555                 1.3773                 2.5457

                     40                     41                     42
                      A                      A                      A
 Frequencies --   1289.2044              1349.0489              1366.8748
 Red. masses --      1.2833                 1.6578                 2.1699
 Frc consts  --      1.2567                 1.7776                 2.3886
 IR Inten    --      3.2063                 7.4892                 0.4527

                     43                     44                     45
                      A                      A                      A
 Frequencies --   1373.2364              1407.8370              1435.1900
 Red. masses --      1.5376                 1.5432                 1.2202
 Frc consts  --      1.7084                 1.8021                 1.4808
 IR Inten    --      5.6842                28.3715                 1.2131

                     46                     47                     48
                      A                      A                      A
 Frequencies --   1467.8588              1483.5309              1504.2444
 Red. masses --      2.2852                 1.2306                 1.2348
 Frc consts  --      2.9009                 1.5958                 1.6462
 IR Inten    --      7.9125                 1.6786                32.7137

                     49                     50                     51
                      A                      A                      A
 Frequencies --   1517.9711              1518.4418              1525.9360
 Red. masses --      1.0656                 1.0610                 1.0410
 Frc consts  --      1.4467                 1.4413                 1.4282
 IR Inten    --      0.6059                 7.1115                 7.2992

                     52                     53                     54
                      A                      A                      A
 Frequencies --   1538.3574              1538.9342              1547.4529
 Red. masses --      1.0847                 1.0742                 1.0626
 Frc consts  --      1.5125                 1.4989                 1.4991
 IR Inten    --      0.9203                11.5521                 3.9603

                     55                     56                     57
                      A                      A                      A
 Frequencies --   1566.8478              1635.1833              1678.6329
 Red. masses --      2.4653                 6.1912                 5.8783
 Frc consts  --      3.5659                 9.7534                 9.7592
 IR Inten    --     16.6805                 0.2468                 0.2035

                     58                     59                     60
                      A                      A                      A
 Frequencies --   2930.2192              2951.3537              3021.7042
 Red. masses --      1.0737                 1.0615                 1.0852
 Frc consts  --      5.4317                 5.4475                 5.8381
 IR Inten    --     59.5918               132.6184                34.7126

                     61                     62                     63
                      A                      A                      A
 Frequencies --   3044.1357              3047.6394              3072.2070
 Red. masses --      1.0598                 1.0346                 1.0731
 Frc consts  --      5.7862                 5.6615                 5.9675
 IR Inten    --     34.2653                36.0650                44.5501

                     64                     65                     66
                      A                      A                      A
 Frequencies --   3078.5386              3117.5823              3121.3065
 Red. masses --      1.1038                 1.1027                 1.1020
 Frc consts  --      6.1637                 6.3148                 6.3255
 IR Inten    --     10.3130                51.8984                33.7198

                     67                     68                     69
                      A                      A                      A
 Frequencies --   3122.2628              3167.8453              3172.5881
 Red. masses --      1.1035                 1.0864                 1.0887
 Frc consts  --      6.3379                 6.4237                 6.4566
 IR Inten    --     34.9915                14.9408                21.4645

                     70                     71                     72
                      A                      A                      A
 Frequencies --   3185.8166              3212.1646              3490.2924
 Red. masses --      1.0941                 1.0921                 1.0742
 Frc consts  --      6.5427                 6.6393                 7.7099
 IR Inten    --     25.2138                 6.4625                 0.3621

 - Thermochemistry -
 -------------------
 Temperature   298.150 Kelvin.  Pressure   1.00000 Atm.
 Atom     1 has atomic number  6 and mass  12.00000

 Molecular mass:   149.12045 amu.
 Principal axes and moments of inertia in atomic units:
                           1         2         3
     Eigenvalues --   554.699673886.787174119.82863
           X            0.99998   0.00461  -0.00306
           Y           -0.00459   0.99997   0.00602
           Z            0.00308  -0.00601   0.99998
 This molecule is an asymmetric top.
 Rotational symmetry number  1.
 Warning -- assumption of classical behavior for rotation
           may cause significant error
 Rotational temperatures (Kelvin)      0.15615     0.02228     0.02102
 Rotational constants (GHZ):           3.25355     0.46433     0.43806
 Zero-point vibrational energy     608160.8 (Joules/Mol)
                                  145.35391 (Kcal/Mol)
 Warning -- explicit consideration of  15 degrees of freedom as
           vibrations may cause significant error
 Vibrational temperatures:     50.97    62.55   112.17   144.67   212.63
          (Kelvin)            317.01   345.42   369.76   452.64   463.99
                              560.98   602.88   617.42   728.40   852.25
                              947.54  1041.26  1106.06  1151.85  1163.37
                             1206.30  1236.08  1244.56  1378.71  1403.99
                             1412.37  1420.91  1453.39  1503.80  1556.66
                             1573.92  1648.22  1655.27  1681.34  1722.90
                             1747.04  1782.10  1787.40  1849.13  1854.88
                             1940.98  1966.63  1975.78  2025.56  2064.92
                             2111.92  2134.47  2164.27  2184.02  2184.70
                             2195.48  2213.35  2214.18  2226.44  2254.34
                             2352.66  2415.18  4215.93  4246.34  4347.56
                             4379.83  4384.87  4420.22  4429.33  4485.51
                             4490.86  4492.24  4557.82  4564.65  4583.68
                             4621.59  5021.75

 Zero-point correction=                           0.231636 (Hartree/Particle)
 Thermal correction to Energy=                    0.243104
 Thermal correction to Enthalpy=                  0.244048
 Thermal correction to Gibbs Free Energy=         0.193133
 Sum of electronic and zero-point Energies=           -444.659091
 Sum of electronic and thermal Energies=              -444.647623
 Sum of electronic and thermal Enthalpies=            -444.646679
 Sum of electronic and thermal Free Energies=         -444.697594

                     E (Thermal)             CV                S
                      KCal/Mol        Cal/Mol-Kelvin    Cal/Mol-Kelvin
 Total                  152.550             42.372            107.160
 Electronic               0.000              0.000              0.000
 Translational            0.889              2.981             40.909
 Rotational               0.889              2.981             30.564
 Vibrational            150.773             36.411             35.688
 Vibration     1          0.594              1.982              5.500
 Vibration     2          0.595              1.980              5.094
 Vibration     3          0.599              1.964              3.941
 Vibration     4          0.604              1.949              3.444
 Vibration     5          0.617              1.905              2.701
 Vibration     6          0.647              1.810              1.956
 Vibration     7          0.657              1.779              1.802
 Vibration     8          0.667              1.751              1.682
 Vibration     9          0.702              1.646              1.338
 Vibration    10          0.707              1.630              1.297
 Vibration    11          0.758              1.492              1.001
 Vibration    12          0.782              1.429              0.895
 Vibration    13          0.790              1.407              0.862
 Vibration    14          0.861              1.236              0.643
 Vibration    15          0.950              1.048              0.463

 Optimization completed.
    -- Stationary point found.
 Normal termination of Gaussian 16 at Tue Dec  8 20:33:24 2020.

 ----------------------------------------------------------------------
 # B3LYP/6-311++G(d,p) empiricaldispersion=gd3bj scf=xqc pop=npa geom=c
 heck
 ----------------------------------------------------------------------

 -------------------------------------
 CID_2060575_JID_1582_Energie_neutraal
 -------------------------------------
 Structure from the checkpoint file:  "JID_1582.chk"
 Charge =  0 Multiplicity = 1

 SCF Done:  E(RB3LYP) =  -445.013028415     A.U. after   14 cycles
 Normal termination of Gaussian 16 at Tue Dec  8 20:36:46 2020.

 ----------------------------------------------------------------------
 # B3LYP/6-311++G(d,p) empiricaldispersion=gd3bj scf=xqc pop=npa geom=c
 heck
 ----------------------------------------------------------------------

 -----------------------------------
 CID_2060575_JID_1582_Energie_kation
 -----------------------------------
 Structure from the checkpoint file:  "JID_1582.chk"
 Charge =  1 Multiplicity = 2

 SCF Done:  E(UB3LYP) =  -444.717008093     A.U. after   23 cycles
 Normal termination of Gaussian 16 at Tue Dec  8 20:41:43 2020.
 Gaussian 16:  ES64L-G16RevA.03 25-Dec-2016

 ----------------------------------------------------------------------
 # B3LYP/6-311++G(d,p) empiricaldispersion=gd3bj scf=xqc pop=npa geom=c
 heck
 ----------------------------------------------------------------------

 ----------------------------------
 CID_2060575_JID_1582_Energie_anion
 ----------------------------------
 Structure from the checkpoint file:  "JID_1582.chk"
 Charge = -1 Multiplicity = 2

                         Standard orientation:
 ---------------------------------------------------------------------
 Center     Atomic      Atomic             Coordinates (Angstroms)
 Number     Number       Type             X           Y           Z
 ---------------------------------------------------------------------
      1          6           0       -3.951601   -0.585110    1.040880
      2          6           0       -3.435054   -0.107780   -0.326462
      3          6           0       -1.935157    0.077392   -0.337835
      4          6           0       -1.080078   -0.992365   -0.633456
      5          6           0        0.303601   -0.840824   -0.597191
      6          6           0        0.876887    0.391590   -0.259569
      7          6           0        0.027696    1.459323    0.043393
      8          6           0       -1.357823    1.305585    0.000383
      9          6           0        2.379097    0.563666   -0.244522
     10          7           0        3.046996   -0.586729    0.358148
     11          6           0        4.493541   -0.430636    0.420411
     12          1           0       -3.494756   -1.542294    1.315761
     13          1           0       -5.039786   -0.715299    1.029690
     14          1           0       -3.700758    0.138527    1.824408
     15          1           0       -3.722723   -0.835259   -1.095759
     16          1           0       -3.925858    0.837503   -0.589343
     17          1           0       -1.508000   -1.956833   -0.899165
     18          1           0        0.957613   -1.677622   -0.821861
     19          1           0        0.454839    2.422672    0.313283
     20          1           0       -2.000712    2.150419    0.237959
     21          1           0        2.756071    0.650834   -1.274718
     22          1           0        2.632719    1.520712    0.251861
     23          1           0        2.674056   -0.724350    1.295896
     24          1           0        4.830553    0.487480    0.937964
     25          1           0        4.933783   -1.293944    0.929498
     26          1           0        4.897337   -0.400485   -0.598688
 ---------------------------------------------------------------------

 SCF Done:  E(UB3LYP) =  -444.996821958     A.U. after   33 cycles
 SCF Done:  E(UB3LYP) =  -444.996821958     a.u. after    1 cycles

 The electronic state is 2-A.
 Alpha  occ. eigenvalues --  -14.19935 -10.09502 -10.08589 -10.07555 -10.07462
 Alpha  occ. eigenvalues --  -10.07129 -10.07068 -10.06939 -10.06802 -10.06622
 Alpha  occ. eigenvalues --  -10.06074  -0.80823  -0.75630  -0.69112  -0.64304
 Alpha  occ. eigenvalues --   -0.63975  -0.58764  -0.54245  -0.51590  -0.50535
 Alpha  occ. eigenvalues --   -0.46962  -0.40839  -0.38441  -0.36897  -0.35227
 Alpha  occ. eigenvalues --   -0.34370  -0.33474  -0.32164  -0.31802  -0.31160
 Alpha  occ. eigenvalues --   -0.29298  -0.28375  -0.27234  -0.26141  -0.25062
 Alpha  occ. eigenvalues --   -0.24429  -0.23271  -0.22916  -0.15328  -0.14072
 Alpha  occ. eigenvalues --   -0.12856   0.04484
 Alpha virt. eigenvalues --    0.05931   0.07503   0.08027   0.08437   0.08564
 Alpha virt. eigenvalues --    0.08737   0.09098   0.09130   0.10586   0.10799
 Alpha virt. eigenvalues --    0.11550   0.12123   0.12468   0.12955   0.13619

  Beta  occ. eigenvalues --  -14.19917 -10.09487 -10.08546 -10.07534 -10.07434
  Beta  occ. eigenvalues --  -10.07113 -10.07068 -10.06935 -10.06769 -10.06604
  Beta  occ. eigenvalues --  -10.06036  -0.80791  -0.75585  -0.69055  -0.64262
  Beta  occ. eigenvalues --   -0.63917  -0.58698  -0.54150  -0.51527  -0.50490
  Beta  occ. eigenvalues --   -0.46907  -0.40788  -0.38401  -0.36841  -0.35176
  Beta  occ. eigenvalues --   -0.34311  -0.33426  -0.32124  -0.31761  -0.31111
  Beta  occ. eigenvalues --   -0.29241  -0.28318  -0.27180  -0.26085  -0.25030
  Beta  occ. eigenvalues --   -0.24358  -0.23244  -0.22870  -0.15239  -0.13961
  Beta  occ. eigenvalues --   -0.12786
  Beta virt. eigenvalues --    0.06606   0.07072   0.08015   0.08392   0.08633
  Beta virt. eigenvalues --    0.08801   0.09277   0.09503   0.09654   0.10946
  Beta virt. eigenvalues --    0.11360   0.11858   0.12363   0.12741   0.13397

 Mulliken charges and spin densities:
               1          2
     1  C    1.273812  -1.900217
     2  C   -0.758300   0.414149
     3  C    0.351651   0.578082
     4  C   -1.239953   0.668853
     5  C   -0.157056  -0.201659
     6  C    1.637558  -0.326659
     7  C   -0.427808  -0.252287
     8  C   -0.480552   0.022916
     9  C    0.855766  -1.858422
    10  N   -0.321613   0.241821
    11  C    1.074289  -1.420300
    12  H   -0.101970   0.236578
    13  H   -0.493411   0.624543
    14  H   -0.090677   0.227583
    15  H   -0.191986   0.331632
    16  H   -0.368610   0.518897
    17  H   -0.090948   0.244785
    18  H    0.004154   0.182788
    19  H   -0.445226   0.578273
    20  H   -0.137380   0.294274
    21  H   -0.009721   0.158007
    22  H    0.140490   0.030831
    23  H    0.091049   0.104397
    24  H   -0.449599   0.566420
    25  H   -0.315233   0.446828
    26  H   -0.348725   0.487885
 Sum of Mulliken charges =  -1.00000   1.00000

 Dipole moment (field-independent basis, Debye):
    X=              0.0729    Y=             -0.2064    Z=             -1.0912  Tot=              1.1130
 Quadrupole moment (field-independent basis, Debye-Ang):
   XX=           -179.4508   YY=           -100.2170   ZZ=            -97.0001
   XY=             -0.9023   XZ=              0.0874   YZ=              0.1020

 Summary of Natural Population Analysis:

                                       Natural Population
                Natural  -----------------------------------------------
    Atom  No    Charge         Core      Valence    Rydberg      Total
 -----------------------------------------------------------------------
      C    1   -0.27955      0.99966     2.27475    0.00513     3.27955
      C    2   -0.19831      0.99961     2.18876    0.00994     3.19831
      C    3   -0.01340      0.99951     2.00359    0.01031     3.01340
      C    4   -0.09984      0.99951     2.09142    0.00891     3.09984
      C    5   -0.09470      0.99951     2.08598    0.00920     3.09470
      C    6   -0.02264      0.99951     2.01257    0.01056     3.02264
      C    7   -0.09816      0.99951     2.08953    0.00912     3.09816
      C    8   -0.09649      0.99951     2.08716    0.00982     3.09649
      C    9   -0.09119      0.99959     2.07974    0.01186     3.09119
      N   10   -0.33458      0.99975     2.82350    0.01133     3.83458
      C   11   -0.17468      0.99967     2.16790    0.00711     3.17468
      H   12    0.09632      0.00000     0.40261    0.00108     0.40368
      H   13    0.09918      0.00000     0.39873    0.00209     0.40082
      H   14    0.09693      0.00000     0.40195    0.00112     0.40307
      H   15    0.09843      0.00000     0.40018    0.00138     0.40157
      H   16    0.09989      0.00000     0.39851    0.00160     0.40011
      H   17    0.09776      0.00000     0.40123    0.00101     0.40224
      H   18    0.10702      0.00000     0.39151    0.00147     0.39298
      H   19    0.09884      0.00000     0.39995    0.00122     0.40116
      H   20    0.09898      0.00000     0.39991    0.00111     0.40102
      H   21    0.09545      0.00000     0.40307    0.00147     0.40455
      H   22    0.08214      0.00000     0.41592    0.00194     0.41786
      H   23    0.17013      0.00000     0.32614    0.00373     0.32987
      H   24    0.07823      0.00000     0.41850    0.00327     0.42177
      H   25    0.09394      0.00000     0.40462    0.00144     0.40606
      H   26    0.09030      0.00000     0.40770    0.00200     0.40970
 =======================================================================
   * Total *   -0.00000     10.99534    29.87544    0.12922    41.00000

 Normal termination of Gaussian 16 at Tue Dec  8 20:47:37 2020.
