 Gaussian 16, Revision A.03,

 -----------------------------------------------------------
 # opt freq B3LYP/6-31G(d) empiricaldispersion=gd3bj scf=xqc
 -----------------------------------------------------------

 -------------------------------
 CID_137346524_JID_5615_neutraal
 -------------------------------
 Symbolic Z-matrix:
 Charge =  0 Multiplicity = 1

 SCF Done:  E(RB3LYP) =  -683.972732713     A.U. after   15 cycles
 SCF Done:  E(RB3LYP) =  -683.974245673     A.U. after   12 cycles
 SCF Done:  E(RB3LYP) =  -683.974323746     A.U. after   12 cycles
 SCF Done:  E(RB3LYP) =  -683.973987208     A.U. after   13 cycles
 SCF Done:  E(RB3LYP) =  -683.974436949     A.U. after   11 cycles
 SCF Done:  E(RB3LYP) =  -683.974459314     A.U. after   10 cycles
 SCF Done:  E(RB3LYP) =  -683.974423827     A.U. after   11 cycles
 SCF Done:  E(RB3LYP) =  -683.974461131     A.U. after   10 cycles
 SCF Done:  E(RB3LYP) =  -683.974475498     A.U. after   11 cycles
 SCF Done:  E(RB3LYP) =  -683.974476960     A.U. after    9 cycles
 SCF Done:  E(RB3LYP) =  -683.974477545     A.U. after    8 cycles
 SCF Done:  E(RB3LYP) =  -683.974477844     A.U. after    8 cycles
 SCF Done:  E(RB3LYP) =  -683.974477953     A.U. after    7 cycles
 Optimization completed.
    -- Stationary point found.
 Normal termination of Gaussian 16 at Thu Dec 10 16:32:59 2020.

 --------------------------------------------------------------------
 #N Geom=AllCheck Guess=TCheck SCRF=Check GenChk RB3LYP/6-31G(d) Freq
 --------------------------------------------------------------------

 Structure from the checkpoint file:  "JID_5615.chk"
 -------------------------------
 CID_137346524_JID_5615_neutraal
 -------------------------------
 Charge =  0 Multiplicity = 1

 SCF Done:  E(RB3LYP) =  -683.974477953     A.U. after    1 cycles

  Exact polarizability: 210.812   0.122 157.723   0.001  -0.005  45.612
 Approx polarizability: 322.839   8.506 278.861   0.004  -0.012  72.770

                      1                      2                      3
                      A                      A                      A
 Frequencies --     35.7968                75.7267               102.3751
 Red. masses --      4.6716                 7.7620                 6.4662
 Frc consts  --      0.0035                 0.0262                 0.0399
 IR Inten    --     10.0288                 3.8972                 5.5321

                      4                      5                      6
                      A                      A                      A
 Frequencies --    115.4918               135.7622               148.1374
 Red. masses --      4.4129                 4.4607                 8.8420
 Frc consts  --      0.0347                 0.0484                 0.1143
 IR Inten    --      3.5121                 9.0850                 7.3260

                      7                      8                      9
                      A                      A                      A
 Frequencies --    238.4530               245.1670               255.7594
 Red. masses --      2.6592                 2.8019                 7.0651
 Frc consts  --      0.0891                 0.0992                 0.2723
 IR Inten    --      5.6029                 3.9066                 1.0430

                     10                     11                     12
                      A                      A                      A
 Frequencies --    299.3443               326.7429               403.3859
 Red. masses --      3.9300                 7.6244                 7.0275
 Frc consts  --      0.2075                 0.4796                 0.6737
 IR Inten    --      1.1999                 0.8644                 9.6105

                     13                     14                     15
                      A                      A                      A
 Frequencies --    447.3332               504.7729               511.7931
 Red. masses --      6.8585                 2.6263                 5.0481
 Frc consts  --      0.8086                 0.3943                 0.7791
 IR Inten    --      2.0697                18.3088                 9.5103

                     16                     17                     18
                      A                      A                      A
 Frequencies --    519.5513               566.8455               639.7513
 Red. masses --      1.9914                 2.7776                 3.1484
 Frc consts  --      0.3167                 0.5258                 0.7592
 IR Inten    --     58.1620                 8.1526                 8.5228

                     19                     20                     21
                      A                      A                      A
 Frequencies --    664.7980               694.6087               728.7920
 Red. masses --      6.9888                 2.5100                 1.4402
 Frc consts  --      1.8198                 0.7135                 0.4507
 IR Inten    --     60.7086                 6.0537                34.5239

                     22                     23                     24
                      A                      A                      A
 Frequencies --    735.4664               744.5812               859.5643
 Red. masses --      6.1507                 3.3462                 1.2906
 Frc consts  --      1.9602                 1.0930                 0.5618
 IR Inten    --     41.8859                 2.2171                 9.4430

                     25                     26                     27
                      A                      A                      A
 Frequencies --    870.4902               904.1474               932.6808
 Red. masses --      6.3805                 1.4863                 1.3543
 Frc consts  --      2.8486                 0.7159                 0.6941
 IR Inten    --      0.4431                29.1734                 0.1305

                     28                     29                     30
                      A                      A                      A
 Frequencies --    938.6997               959.5851               984.7728
 Red. masses --      6.6792                 1.3884                 3.6951
 Frc consts  --      3.4676                 0.7532                 2.1113
 IR Inten    --      8.5534                 2.7433                20.1296

                     31                     32                     33
                      A                      A                      A
 Frequencies --   1005.1055              1018.6200              1033.5315
 Red. masses --      3.4861                 6.2066                 1.8005
 Frc consts  --      2.0750                 3.7943                 1.1332
 IR Inten    --     22.7163                 1.7887                 0.0821

                     34                     35                     36
                      A                      A                      A
 Frequencies --   1036.5471              1113.1244              1120.5030
 Red. masses --      1.8102                 1.5301                 1.4484
 Frc consts  --      1.1459                 1.1170                 1.0715
 IR Inten    --      0.9595                17.3464                27.1110

                     37                     38                     39
                      A                      A                      A
 Frequencies --   1163.0129              1166.3170              1203.4500
 Red. masses --      1.6992                 1.8426                 2.2690
 Frc consts  --      1.3541                 1.4768                 1.9361
 IR Inten    --    103.3332                29.6361                12.7964

                     40                     41                     42
                      A                      A                      A
 Frequencies --   1253.4476              1302.1683              1341.0181
 Red. masses --      2.7586                 1.3700                 3.4641
 Frc consts  --      2.5536                 1.3687                 3.6704
 IR Inten    --     36.4188                 4.1804                42.1290

                     43                     44                     45
                      A                      A                      A
 Frequencies --   1381.7567              1417.1114              1421.5649
 Red. masses --      4.3626                 1.9336                 1.9081
 Frc consts  --      4.9075                 2.2879                 2.2719
 IR Inten    --      4.0437                22.0338                 0.8448

                     46                     47                     48
                      A                      A                      A
 Frequencies --   1430.8072              1453.0748              1483.6176
 Red. masses --      2.2502                 1.9451                 2.9277
 Frc consts  --      2.7141                 2.4198                 3.7968
 IR Inten    --     14.5652                15.6193                11.2199

                     49                     50                     51
                      A                      A                      A
 Frequencies --   1507.9138              1516.6833              1596.1147
 Red. masses --      3.7866                 3.7540                 4.3095
 Frc consts  --      5.0729                 5.0879                 6.4686
 IR Inten    --     13.0770                68.2581                22.1636

                     52                     53                     54
                      A                      A                      A
 Frequencies --   1651.2821              1662.0726              1800.3533
 Red. masses --      5.7823                 5.6551                 9.7787
 Frc consts  --      9.2895                 9.2042                18.6744
 IR Inten    --     34.0343                33.4219               230.7174

                     55                     56                     57
                      A                      A                      A
 Frequencies --   1804.8568              2930.5989              2935.3963
 Red. masses --      9.8888                 1.0850                 1.0852
 Frc consts  --     18.9793                 5.4902                 5.5091
 IR Inten    --    235.4048               117.4321               118.7766

                     58                     59                     60
                      A                      A                      A
 Frequencies --   3203.7318              3207.9323              3212.5263
 Red. masses --      1.0895                 1.0903                 1.0903
 Frc consts  --      6.5885                 6.6108                 6.6295
 IR Inten    --      6.9666                 0.6871                 0.3042

                     61                     62                     63
                      A                      A                      A
 Frequencies --   3267.9581              3298.3721              3655.3406
 Red. masses --      1.0928                 1.1034                 1.0807
 Frc consts  --      6.8760                 7.0725                 8.5073
 IR Inten    --      9.8229                 2.4155                38.0894

 - Thermochemistry -
 -------------------
 Temperature   298.150 Kelvin.  Pressure   1.00000 Atm.
 Atom     1 has atomic number  6 and mass  12.00000

 Molecular mass:   200.05858 amu.
 Principal axes and moments of inertia in atomic units:
                           1         2         3
     Eigenvalues --  2178.337614451.730536630.06808
           X            1.00000  -0.00169  -0.00000
           Y            0.00169   1.00000  -0.00000
           Z            0.00000   0.00000   1.00000
 This molecule is an asymmetric top.
 Rotational symmetry number  1.
 Warning -- assumption of classical behavior for rotation
           may cause significant error
 Rotational temperatures (Kelvin)      0.03976     0.01946     0.01306
 Rotational constants (GHZ):           0.82849     0.40540     0.27221
 Zero-point vibrational energy     449713.9 (Joules/Mol)
                                  107.48419 (Kcal/Mol)
 Warning -- explicit consideration of  17 degrees of freedom as
           vibrations may cause significant error
 Vibrational temperatures:     51.50   108.95   147.29   166.17   195.33
          (Kelvin)            213.14   343.08   352.74   367.98   430.69
                              470.11   580.38   643.61   726.26   736.36
                              747.52   815.56   920.46   956.50   999.39
                             1048.57  1058.17  1071.29  1236.72  1252.44
                             1300.87  1341.92  1350.58  1380.63  1416.87
                             1446.12  1465.57  1487.02  1491.36  1601.54
                             1612.15  1673.32  1678.07  1731.50  1803.43
                             1873.53  1929.43  1988.04  2038.91  2045.31
                             2058.61  2090.65  2134.59  2169.55  2182.17
                             2296.45  2375.83  2391.35  2590.31  2596.79
                             4216.48  4223.38  4609.46  4615.50  4622.11
                             4701.86  4745.62  5259.22

 Zero-point correction=                           0.171287 (Hartree/Particle)
 Thermal correction to Energy=                    0.183560
 Thermal correction to Enthalpy=                  0.184504
 Thermal correction to Gibbs Free Energy=         0.131465
 Sum of electronic and zero-point Energies=           -683.803191
 Sum of electronic and thermal Energies=              -683.790918
 Sum of electronic and thermal Enthalpies=            -683.789974
 Sum of electronic and thermal Free Energies=         -683.843013

                     E (Thermal)             CV                S
                      KCal/Mol        Cal/Mol-Kelvin    Cal/Mol-Kelvin
 Total                  115.186             46.067            111.631
 Electronic               0.000              0.000              0.000
 Translational            0.889              2.981             41.785
 Rotational               0.889              2.981             32.530
 Vibrational            113.408             40.105             37.315
 Vibration     1          0.594              1.982              5.479
 Vibration     2          0.599              1.965              3.999
 Vibration     3          0.604              1.947              3.409
 Vibration     4          0.608              1.937              3.174
 Vibration     5          0.614              1.918              2.863
 Vibration     6          0.618              1.905              2.696
 Vibration     7          0.656              1.782              1.814
 Vibration     8          0.660              1.771              1.765
 Vibration     9          0.666              1.753              1.691
 Vibration    10          0.692              1.675              1.421
 Vibration    11          0.710              1.622              1.276
 Vibration    12          0.769              1.463              0.950
 Vibration    13          0.806              1.367              0.804
 Vibration    14          0.860              1.239              0.646
 Vibration    15          0.867              1.224              0.629
 Vibration    16          0.875              1.207              0.611
 Vibration    17          0.923              1.103              0.510

 Optimization completed.
    -- Stationary point found.
 Normal termination of Gaussian 16 at Thu Dec 10 16:40:13 2020.

 ----------------------------------------------------------------------
 # B3LYP/6-311++G(d,p) empiricaldispersion=gd3bj scf=xqc pop=npa geom=c
 heck
 ----------------------------------------------------------------------

 ---------------------------------------
 CID_137346524_JID_5615_Energie_neutraal
 ---------------------------------------
 Structure from the checkpoint file:  "JID_5615.chk"
 Charge =  0 Multiplicity = 1

 SCF Done:  E(RB3LYP) =  -684.162423142     A.U. after   15 cycles
 Normal termination of Gaussian 16 at Thu Dec 10 16:43:18 2020.

 ----------------------------------------------------------------------
 # B3LYP/6-311++G(d,p) empiricaldispersion=gd3bj scf=xqc pop=npa geom=c
 heck
 ----------------------------------------------------------------------

 -------------------------------------
 CID_137346524_JID_5615_Energie_kation
 -------------------------------------
 Structure from the checkpoint file:  "JID_5615.chk"
 Charge =  1 Multiplicity = 2

 SCF Done:  E(UB3LYP) =  -683.856750232     A.U. after   24 cycles
 Normal termination of Gaussian 16 at Thu Dec 10 16:49:06 2020.
 Gaussian 16:  ES64L-G16RevA.03 25-Dec-2016

 ----------------------------------------------------------------------
 # B3LYP/6-311++G(d,p) empiricaldispersion=gd3bj scf=xqc pop=npa geom=c
 heck
 ----------------------------------------------------------------------

 ------------------------------------
 CID_137346524_JID_5615_Energie_anion
 ------------------------------------
 Structure from the checkpoint file:  "JID_5615.chk"
 Charge = -1 Multiplicity = 2

                         Standard orientation:
 ---------------------------------------------------------------------
 Center     Atomic      Atomic             Coordinates (Angstroms)
 Number     Number       Type             X           Y           Z
 ---------------------------------------------------------------------
      1          6           0        4.117886    0.318646   -0.000198
      2          6           0        3.953652   -1.047447    0.000273
      3          7           0        2.621401   -1.371735    0.000416
      4          6           0        1.963564   -0.220556    0.000027
      5          7           0        2.841558    0.835122   -0.000496
      6          6           0        0.508962   -0.087900    0.000023
      7          6           0       -0.141120    1.147614    0.000064
      8          6           0       -1.542143    1.224812    0.000021
      9          6           0       -2.308534    0.062591   -0.000038
     10          6           0       -1.667846   -1.184704   -0.000042
     11          6           0       -0.276136   -1.256530   -0.000014
     12          6           0       -2.469996   -2.431207   -0.000077
     13          8           0       -3.684771   -2.459939   -0.000118
     14          6           0       -2.197812    2.552970    0.000070
     15          8           0       -1.597256    3.610393    0.000201
     16          1           0        4.991878    0.951679   -0.000662
     17          1           0        4.719775   -1.810108    0.000588
     18          1           0        2.604183    1.816111   -0.000637
     19          1           0        0.402319    2.087916    0.000160
     20          1           0       -3.394365    0.098583   -0.000081
     21          1           0        0.230559   -2.217177   -0.000016
     22          1           0       -1.873458   -3.368693   -0.000084
     23          1           0       -3.308246    2.524604   -0.000033
 ---------------------------------------------------------------------

 SCF Done:  E(UB3LYP) =  -684.203230350     A.U. after   24 cycles

 The electronic state is 2-A.
 Alpha  occ. eigenvalues --  -18.96835 -18.96189 -14.26834 -14.18817 -10.12709
 Alpha  occ. eigenvalues --  -10.10492 -10.10479 -10.10091 -10.08971 -10.05926
 Alpha  occ. eigenvalues --  -10.05322 -10.04203 -10.03620 -10.03556 -10.02905
 Alpha  occ. eigenvalues --   -0.91722  -0.90110  -0.89693  -0.77277  -0.73400
 Alpha  occ. eigenvalues --   -0.66969  -0.63429  -0.61302  -0.52851  -0.51729
 Alpha  occ. eigenvalues --   -0.50766  -0.49578  -0.47810  -0.41894  -0.40780
 Alpha  occ. eigenvalues --   -0.37800  -0.35655  -0.34798  -0.33887  -0.32814
 Alpha  occ. eigenvalues --   -0.32090  -0.31294  -0.29660  -0.29376  -0.27839
 Alpha  occ. eigenvalues --   -0.27753  -0.25988  -0.23128  -0.22833  -0.22737
 Alpha  occ. eigenvalues --   -0.18908  -0.17310  -0.16384  -0.13349  -0.12320
 Alpha  occ. eigenvalues --   -0.11407  -0.10666   0.01837
 Alpha virt. eigenvalues --    0.06463   0.06698   0.08769   0.09241   0.09942
 Alpha virt. eigenvalues --    0.10626   0.11022   0.12802   0.13625   0.13655
 Alpha virt. eigenvalues --    0.13810   0.14092   0.15424   0.15847   0.16014

  Beta  occ. eigenvalues --  -18.96602 -18.95855 -14.26847 -14.18827 -10.12687
  Beta  occ. eigenvalues --  -10.10483 -10.10291 -10.09939 -10.08971 -10.06041
  Beta  occ. eigenvalues --  -10.05353 -10.04227 -10.03497 -10.03268 -10.02381
  Beta  occ. eigenvalues --   -0.91727  -0.89663  -0.89097  -0.77289  -0.73039
  Beta  occ. eigenvalues --   -0.66923  -0.62822  -0.61058  -0.52533  -0.51339
  Beta  occ. eigenvalues --   -0.50450  -0.49285  -0.47540  -0.41696  -0.40498
  Beta  occ. eigenvalues --   -0.37635  -0.35397  -0.34777  -0.33862  -0.32696
  Beta  occ. eigenvalues --   -0.31878  -0.31071  -0.29546  -0.29056  -0.27581
  Beta  occ. eigenvalues --   -0.26557  -0.24480  -0.22952  -0.22604  -0.21496
  Beta  occ. eigenvalues --   -0.18900  -0.17316  -0.16159  -0.12085  -0.11320
  Beta  occ. eigenvalues --   -0.11129  -0.09927
  Beta virt. eigenvalues --    0.06683   0.07277   0.07955   0.08755   0.09938
  Beta virt. eigenvalues --    0.10605   0.10858   0.11024   0.13003   0.13594
  Beta virt. eigenvalues --    0.13674   0.13797   0.14084   0.15568   0.15988

 Mulliken charges and spin densities:
               1          2
     1  C   -0.076446   0.003624
     2  C    0.039623   0.000737
     3  N   -0.073547  -0.003717
     4  C   -0.114918   0.026773
     5  N   -0.082572  -0.002780
     6  C    0.876353  -0.062355
     7  C   -1.170153   0.438807
     8  C    1.328557  -0.032669
     9  C   -1.725793  -0.034319
    10  C    0.989112   0.038952
    11  C   -1.031551   0.238190
    12  C   -0.123222   0.115536
    13  O   -0.343431   0.110722
    14  C   -0.204781   0.156245
    15  O   -0.335754   0.083002
    16  H    0.131885  -0.000682
    17  H    0.143777   0.000137
    18  H    0.286902   0.000699
    19  H    0.051023  -0.038961
    20  H    0.123432  -0.000440
    21  H    0.137715  -0.018169
    22  H    0.079413  -0.008886
    23  H    0.094376  -0.010445
 Sum of Mulliken charges =  -1.00000   1.00000

 Dipole moment (field-independent basis, Debye):
    X=              7.4499    Y=              0.8394    Z=             -0.0013  Tot=              7.4970
 Quadrupole moment (field-independent basis, Debye-Ang):
   XX=           -121.8471   YY=           -126.1447   ZZ=            -94.5143
   XY=              0.7469   XZ=             -0.0037   YZ=             -0.0028

 Summary of Natural Population Analysis:

                                       Natural Population
                Natural  -----------------------------------------------
    Atom  No    Charge         Core      Valence    Rydberg      Total
 -----------------------------------------------------------------------
      C    1   -0.05513      0.99961     2.04321    0.01231     3.05513
      C    2   -0.03864      0.99961     2.02438    0.01465     3.03864
      N    3   -0.25970      0.99970     2.75026    0.00973     3.75970
      C    4    0.20468      0.99947     1.77887    0.01698     2.79532
      N    5   -0.27064      0.99962     2.76316    0.00787     3.77064
      C    6   -0.09142      0.99952     2.08247    0.00943     3.09142
      C    7    0.04037      0.99950     1.95209    0.00803     2.95963
      C    8   -0.09100      0.99949     2.08267    0.00884     3.09100
      C    9   -0.06095      0.99950     2.05255    0.00890     3.06095
      C   10   -0.08425      0.99950     2.07575    0.00900     3.08425
      C   11    0.01536      0.99945     1.97695    0.00825     2.98464
      C   12    0.22804      0.99969     1.75175    0.02052     2.77196
      O   13   -0.26445      0.99988     3.25672    0.00785     4.26445
      C   14    0.23781      0.99968     1.74208    0.02043     2.76219
      O   15   -0.27641      0.99988     3.26909    0.00743     4.27641
      H   16    0.09718      0.00000     0.40179    0.00104     0.40282
      H   17    0.09220      0.00000     0.40680    0.00099     0.40780
      H   18    0.20497      0.00000     0.29303    0.00200     0.29503
      H   19    0.09065      0.00000     0.40760    0.00175     0.40935
      H   20    0.10513      0.00000     0.39332    0.00154     0.39487
      H   21    0.10092      0.00000     0.39739    0.00169     0.39908
      H   22    0.03717      0.00000     0.46034    0.00249     0.46283
      H   23    0.03819      0.00000     0.45928    0.00252     0.46181
 =======================================================================
   * Total *    0.00011     14.99409    36.82155    0.18425    51.99989

 Normal termination of Gaussian 16 at Thu Dec 10 16:55:46 2020.
