 Gaussian 16, Revision A.03,

 ----------------------------------------------------------------------
 # opt=(cartesian,calcfc,maxcycle=500) freq B3LYP/6-31G(d) empiricaldis
 persion=gd3bj scf=xqc
 ----------------------------------------------------------------------

 -------------------------------
 CID_116127906_JID_4332_neutraal
 -------------------------------
 Symbolic Z-matrix:
 Charge =  0 Multiplicity = 1

 SCF Done:  E(RB3LYP) =  -576.389189017     A.U. after   14 cycles
 SCF Done:  E(RB3LYP) =  -576.389217432     A.U. after   10 cycles
 SCF Done:  E(RB3LYP) =  -576.389232877     A.U. after   11 cycles
 SCF Done:  E(RB3LYP) =  -576.389083046     A.U. after   11 cycles
 SCF Done:  E(RB3LYP) =  -576.389225600     A.U. after   11 cycles
 SCF Done:  E(RB3LYP) =  -576.389234619     A.U. after    7 cycles
 SCF Done:  E(RB3LYP) =  -576.389248233     A.U. after   10 cycles
 SCF Done:  E(RB3LYP) =  -576.389260568     A.U. after   11 cycles
 SCF Done:  E(RB3LYP) =  -576.389247139     A.U. after   11 cycles
 SCF Done:  E(RB3LYP) =  -576.389269619     A.U. after   10 cycles
 SCF Done:  E(RB3LYP) =  -576.389333764     A.U. after    7 cycles
 SCF Done:  E(RB3LYP) =  -576.389333757     A.U. after    7 cycles
 SCF Done:  E(RB3LYP) =  -576.389333330     A.U. after    8 cycles
 SCF Done:  E(RB3LYP) =  -576.389333768     A.U. after    7 cycles
 SCF Done:  E(RB3LYP) =  -576.389333772     A.U. after    6 cycles
 Optimization completed on the basis of negligible forces.
    -- Stationary point found.
 Normal termination of Gaussian 16 at Wed Feb 24 14:57:29 2021.

 --------------------------------------------------------------------
 #N Geom=AllCheck Guess=TCheck SCRF=Check GenChk RB3LYP/6-31G(d) Freq
 --------------------------------------------------------------------

 Structure from the checkpoint file:  "JID_4332.chk"
 -------------------------------
 CID_116127906_JID_4332_neutraal
 -------------------------------
 Charge =  0 Multiplicity = 1

 SCF Done:  E(RB3LYP) =  -576.389333772     A.U. after    1 cycles

  Exact polarizability: 152.063 -15.295 148.588  12.443  12.825  94.750
 Approx polarizability: 198.271 -25.750 232.344  25.221  30.198 151.403

                      1                      2                      3
                      A                      A                      A
 Frequencies --     15.6848                20.0944                50.5810
 Red. masses --      3.8560                 4.0317                 1.0682
 Frc consts  --      0.0006                 0.0010                 0.0016
 IR Inten    --      0.1325                 0.2907                 0.2367

                      4                      5                      6
                      A                      A                      A
 Frequencies --     61.1364                81.3339                98.6893
 Red. masses --      3.8587                 3.6745                 2.7638
 Frc consts  --      0.0085                 0.0143                 0.0159
 IR Inten    --      0.2068                 2.0682                 0.3474

                      7                      8                      9
                      A                      A                      A
 Frequencies --    158.0146               199.7189               209.5532
 Red. masses --      2.8015                 3.0387                 3.2752
 Frc consts  --      0.0412                 0.0714                 0.0847
 IR Inten    --      0.1071                 1.3976                 0.7094

                     10                     11                     12
                      A                      A                      A
 Frequencies --    237.0416               246.8571               285.4757
 Red. masses --      1.1330                 3.8121                 2.6479
 Frc consts  --      0.0375                 0.1369                 0.1271
 IR Inten    --      0.4701                 2.1738                 0.7370

                     13                     14                     15
                      A                      A                      A
 Frequencies --    350.6738               355.7769               387.4998
 Red. masses --      3.5556                 3.3220                 2.9174
 Frc consts  --      0.2576                 0.2477                 0.2581
 IR Inten    --      0.8543                 3.0044                 1.0701

                     16                     17                     18
                      A                      A                      A
 Frequencies --    417.7737               443.2090               462.3137
 Red. masses --      2.5930                 3.2846                 2.3631
 Frc consts  --      0.2666                 0.3802                 0.2976
 IR Inten    --      1.4572                 0.9582                 3.6022

                     19                     20                     21
                      A                      A                      A
 Frequencies --    537.3464               555.0349               589.0871
 Red. masses --      4.6630                 5.0811                 1.3679
 Frc consts  --      0.7933                 0.9222                 0.2797
 IR Inten    --      3.5410                 2.6186                49.5203

                     22                     23                     24
                      A                      A                      A
 Frequencies --    591.1485               612.0895               642.2645
 Red. masses --      2.5743                 1.2338                 4.5333
 Frc consts  --      0.5300                 0.2723                 1.1018
 IR Inten    --      5.8580                48.4437                 1.5399

                     25                     26                     27
                      A                      A                      A
 Frequencies --    735.8781               751.0744               770.8266
 Red. masses --      2.1525                 2.8361                 1.7502
 Frc consts  --      0.6868                 0.9426                 0.6127
 IR Inten    --     59.8091                21.4496                19.2233

                     28                     29                     30
                      A                      A                      A
 Frequencies --    812.4397               879.1818               900.4062
 Red. masses --      1.8525                 1.9421                 1.5347
 Frc consts  --      0.7204                 0.8845                 0.7331
 IR Inten    --     12.5211                10.4116                 0.1725

                     31                     32                     33
                      A                      A                      A
 Frequencies --    910.0934               929.8626               945.4787
 Red. masses --      1.4252                 2.3748                 2.2541
 Frc consts  --      0.6955                 1.2098                 1.1872
 IR Inten    --      0.7782                 0.2324                 4.4090

                     34                     35                     36
                      A                      A                      A
 Frequencies --    991.0650               995.3355               998.4496
 Red. masses --      1.8252                 1.2906                 2.8105
 Frc consts  --      1.0563                 0.7533                 1.6508
 IR Inten    --      2.3328                 0.0853                 3.5831

                     37                     38                     39
                      A                      A                      A
 Frequencies --   1017.1583              1050.8757              1074.5759
 Red. masses --      4.4694                 1.8610                 1.5862
 Frc consts  --      2.7244                 1.2109                 1.0791
 IR Inten    --      4.4611                 0.7321                 4.4405

                     40                     41                     42
                      A                      A                      A
 Frequencies --   1085.6213              1117.1403              1125.8325
 Red. masses --      2.9139                 2.4718                 1.6204
 Frc consts  --      2.0234                 1.8175                 1.2101
 IR Inten    --     13.0631                21.0826                 6.3425

                     43                     44                     45
                      A                      A                      A
 Frequencies --   1142.8757              1180.0418              1192.5996
 Red. masses --      1.8426                 2.1510                 1.2293
 Frc consts  --      1.4180                 1.7647                 1.0301
 IR Inten    --      0.8856                87.9341                 2.7129

                     46                     47                     48
                      A                      A                      A
 Frequencies --   1222.4589              1264.0517              1288.9962
 Red. masses --      1.2414                 1.7375                 1.5782
 Frc consts  --      1.0930                 1.6357                 1.5449
 IR Inten    --      7.3801                 5.2844                 1.6741

                     49                     50                     51
                      A                      A                      A
 Frequencies --   1298.8293              1326.3202              1328.4054
 Red. masses --      2.9734                 2.7277                 1.3621
 Frc consts  --      2.9553                 2.8271                 1.4161
 IR Inten    --      5.3294                 6.3560                 6.3077

                     52                     53                     54
                      A                      A                      A
 Frequencies --   1368.5058              1388.9238              1423.4967
 Red. masses --      1.3177                 1.4652                 1.4009
 Frc consts  --      1.4540                 1.6654                 1.6725
 IR Inten    --     21.7167                 2.8955                 1.9370

                     55                     56                     57
                      A                      A                      A
 Frequencies --   1432.9757              1437.2198              1476.2325
 Red. masses --      1.2414                 1.2785                 2.7239
 Frc consts  --      1.5019                 1.5560                 3.4974
 IR Inten    --      9.4960                 3.2029                 1.0355

                     58                     59                     60
                      A                      A                      A
 Frequencies --   1494.4930              1501.4535              1506.1771
 Red. masses --      1.1228                 2.1675                 1.0459
 Frc consts  --      1.4776                 2.8789                 1.3979
 IR Inten    --     21.1939                37.0305                 5.3023

                     61                     62                     63
                      A                      A                      A
 Frequencies --   1513.0501              1525.1150              1526.7690
 Red. masses --      1.1172                 1.0715                 1.2489
 Frc consts  --      1.5069                 1.4684                 1.7153
 IR Inten    --     16.8878                 3.0606                24.5445

                     64                     65                     66
                      A                      A                      A
 Frequencies --   1532.5252              1537.5661              1641.1368
 Red. masses --      1.1262                 1.0692                 6.7068
 Frc consts  --      1.5584                 1.4893                10.6428
 IR Inten    --      5.4777                13.5716                53.0789

                     67                     68                     69
                      A                      A                      A
 Frequencies --   1648.4992              2247.9638              2943.8489
 Red. masses --      5.1806                 5.9800                 1.0722
 Frc consts  --      8.2948                17.8045                 5.4747
 IR Inten    --     45.6746                 2.3285                72.1874

                     70                     71                     72
                      A                      A                      A
 Frequencies --   3019.0039              3039.2891              3053.4861
 Red. masses --      1.0634                 1.0418                 1.0836
 Frc consts  --      5.7104                 5.6699                 5.9527
 IR Inten    --     16.6611                21.0057                18.9763

                     73                     74                     75
                      A                      A                      A
 Frequencies --   3056.9493              3063.9660              3102.8415
 Red. masses --      1.0358                 1.0946                 1.0889
 Frc consts  --      5.7027                 6.0543                 6.1770
 IR Inten    --     17.8900                20.6492                 7.3937

                     76                     77                     78
                      A                      A                      A
 Frequencies --   3105.8351              3117.4982              3124.2520
 Red. masses --      1.0991                 1.1008                 1.1005
 Frc consts  --      6.2465                 6.3034                 6.3290
 IR Inten    --     54.1334                12.3956                35.3295

                     79                     80                     81
                      A                      A                      A
 Frequencies --   3137.2475              3183.8348              3197.0468
 Red. masses --      1.1033                 1.0865                 1.0915
 Frc consts  --      6.3981                 6.4893                 6.5731
 IR Inten    --     18.5060                 4.3430                22.4587

                     82                     83                     84
                      A                      A                      A
 Frequencies --   3209.8673              3467.9126              3498.7691
 Red. masses --      1.0970                 1.0734                 1.1602
 Frc consts  --      6.6596                 7.6060                 8.3680
 IR Inten    --     20.1409                 1.0920                49.4547

 - Thermochemistry -
 -------------------
 Temperature   298.150 Kelvin.  Pressure   1.00000 Atm.
 Atom     1 has atomic number  6 and mass  12.00000

 Molecular mass:   188.13135 amu.
 Principal axes and moments of inertia in atomic units:
                           1         2         3
     Eigenvalues --  1647.700425269.397316356.69146
           X            0.99958  -0.02889   0.00282
           Y            0.02886   0.99954   0.00958
           Z           -0.00310  -0.00949   0.99995
 This molecule is an asymmetric top.
 Rotational symmetry number  1.
 Warning -- assumption of classical behavior for rotation
           may cause significant error
 Rotational temperatures (Kelvin)      0.05257     0.01644     0.01363
 Rotational constants (GHZ):           1.09531     0.34249     0.28391
 Zero-point vibrational energy     672708.2 (Joules/Mol)
                                  160.78111 (Kcal/Mol)
 Warning -- explicit consideration of  23 degrees of freedom as
           vibrations may cause significant error
 Vibrational temperatures:     22.57    28.91    72.77    87.96   117.02
          (Kelvin)            141.99   227.35   287.35   301.50   341.05
                              355.17   410.74   504.54   511.88   557.53
                              601.08   637.68   665.17   773.12   798.57
                              847.56   850.53   880.66   924.08  1058.76
                             1080.63  1109.05  1168.92  1264.95  1295.48
                             1309.42  1337.86  1360.33  1425.92  1432.07
                             1436.55  1463.46  1511.98  1546.08  1561.97
                             1607.32  1619.82  1644.34  1697.82  1715.88
                             1758.85  1818.69  1854.58  1868.73  1908.28
                             1911.28  1968.97  1998.35  2048.09  2061.73
                             2067.84  2123.97  2150.24  2160.26  2167.05
                             2176.94  2194.30  2196.68  2204.96  2212.21
                             2361.23  2371.82  3234.32  4235.54  4343.67
                             4372.86  4393.29  4398.27  4408.36  4464.30
                             4468.60  4485.38  4495.10  4513.80  4580.83
                             4599.84  4618.28  4989.55  5033.95

 Zero-point correction=                           0.256221 (Hartree/Particle)
 Thermal correction to Energy=                    0.271147
 Thermal correction to Enthalpy=                  0.272091
 Thermal correction to Gibbs Free Energy=         0.211476
 Sum of electronic and zero-point Energies=           -576.133113
 Sum of electronic and thermal Energies=              -576.118187
 Sum of electronic and thermal Enthalpies=            -576.117242
 Sum of electronic and thermal Free Energies=         -576.177858

                     E (Thermal)             CV                S
                      KCal/Mol        Cal/Mol-Kelvin    Cal/Mol-Kelvin
 Total                  170.147             54.789            127.577
 Electronic               0.000              0.000              0.000
 Translational            0.889              2.981             41.602
 Rotational               0.889              2.981             32.379
 Vibrational            168.370             48.827             53.596
 Vibration     1          0.593              1.986              7.117
 Vibration     2          0.593              1.986              6.625
 Vibration     3          0.595              1.977              4.795
 Vibration     4          0.597              1.973              4.420
 Vibration     5          0.600              1.962              3.858
 Vibration     6          0.604              1.950              3.480
 Vibration     7          0.621              1.894              2.573
 Vibration     8          0.638              1.840              2.136
 Vibration     9          0.642              1.826              2.048
 Vibration    10          0.656              1.784              1.825
 Vibration    11          0.661              1.768              1.753
 Vibration    12          0.683              1.701              1.501
 Vibration    13          0.728              1.574              1.163
 Vibration    14          0.731              1.563              1.140
 Vibration    15          0.756              1.497              1.010
 Vibration    16          0.781              1.432              0.900
 Vibration    17          0.803              1.376              0.817
 Vibration    18          0.820              1.334              0.759
 Vibration    19          0.892              1.167              0.571
 Vibration    20          0.910              1.129              0.534
 Vibration    21          0.946              1.055              0.469
 Vibration    22          0.949              1.051              0.465
 Vibration    23          0.971              1.006              0.429

 Optimization completed on the basis of negligible forces.
    -- Stationary point found.
 Normal termination of Gaussian 16 at Wed Feb 24 15:06:09 2021.

 ----------------------------------------------------------------------
 # B3LYP/6-311++G(d,p) empiricaldispersion=gd3bj scf=xqc pop=npa geom=c
 heck
 ----------------------------------------------------------------------

 ---------------------------------------
 CID_116127906_JID_4332_Energie_neutraal
 ---------------------------------------
 Structure from the checkpoint file:  "JID_4332.chk"
 Charge =  0 Multiplicity = 1

 SCF Done:  E(RB3LYP) =  -576.551444941     A.U. after   15 cycles
 Normal termination of Gaussian 16 at Wed Feb 24 15:09:51 2021.

 ----------------------------------------------------------------------
 # B3LYP/6-311++G(d,p) empiricaldispersion=gd3bj scf=xqc pop=npa geom=c
 heck
 ----------------------------------------------------------------------

 -------------------------------------
 CID_116127906_JID_4332_Energie_kation
 -------------------------------------
 Structure from the checkpoint file:  "JID_4332.chk"
 Charge =  1 Multiplicity = 2

 SCF Done:  E(UB3LYP) =  -576.253770584     A.U. after   28 cycles
 Normal termination of Gaussian 16 at Wed Feb 24 15:19:12 2021.
 Gaussian 16:  ES64L-G16RevA.03 25-Dec-2016

 ----------------------------------------------------------------------
 # B3LYP/6-311++G(d,p) empiricaldispersion=gd3bj scf=xqc pop=npa geom=c
 heck
 ----------------------------------------------------------------------

 ------------------------------------
 CID_116127906_JID_4332_Energie_anion
 ------------------------------------
 Structure from the checkpoint file:  "JID_4332.chk"
 Charge = -1 Multiplicity = 2

                         Standard orientation:
 ---------------------------------------------------------------------
 Center     Atomic      Atomic             Coordinates (Angstroms)
 Number     Number       Type             X           Y           Z
 ---------------------------------------------------------------------
      1          6           0       -3.625202    2.017325    0.595198
      2          6           0       -2.978062    0.722175    0.176842
      3          7           0       -1.761259    0.476931    0.688651
      4          6           0       -1.138918   -0.660539    0.355489
      5          6           0       -1.709968   -1.611013   -0.498997
      6          6           0       -2.968522   -1.355645   -1.035317
      7          6           0       -3.614056   -0.169531   -0.694898
      8          6           0        0.250236   -0.870786    0.912539
      9          7           0        1.246112   -0.386500   -0.044113
     10          6           0        2.636987   -0.532601    0.379421
     11          6           0        3.138860   -1.984739    0.437577
     12          6           0        3.535091    0.300569   -0.561634
     13          6           0        3.255163    1.733242   -0.523270
     14          6           0        3.049353    2.921301   -0.475700
     15          1           0       -3.739005    2.051256    1.684394
     16          1           0       -2.991640    2.865387    0.313405
     17          1           0       -4.609672    2.146301    0.135905
     18          1           0       -1.176693   -2.529196   -0.729817
     19          1           0       -3.442328   -2.070297   -1.702891
     20          1           0       -4.598011    0.063430   -1.090459
     21          1           0        0.349549   -0.280752    1.828541
     22          1           0        0.372857   -1.936294    1.182179
     23          1           0        1.109644   -0.848461   -0.943304
     24          1           0        2.703855   -0.092745    1.382447
     25          1           0        3.127543   -2.435481   -0.563655
     26          1           0        4.165121   -2.039440    0.818821
     27          1           0        2.509114   -2.597469    1.090320
     28          1           0        4.586817    0.123416   -0.299559
     29          1           0        3.411188   -0.077037   -1.587738
     30          1           0        2.841917    3.965814   -0.433849
 ---------------------------------------------------------------------

 SCF Done:  E(UB3LYP) =  -576.539373240     A.U. after   33 cycles
 SCF Done:  E(UB3LYP) =  -576.539373240     a.u. after    1 cycles

 The electronic state is 2-A.
 Alpha  occ. eigenvalues --  -14.19514 -14.19369 -10.10966 -10.10928 -10.10227
 Alpha  occ. eigenvalues --  -10.09820 -10.09022 -10.08106 -10.07876 -10.07124
 Alpha  occ. eigenvalues --  -10.07105 -10.07067 -10.06597 -10.06087  -0.84023
 Alpha  occ. eigenvalues --   -0.80990  -0.70768  -0.69574  -0.68143  -0.64785
 Alpha  occ. eigenvalues --   -0.60713  -0.59839  -0.57213  -0.50708  -0.50094
 Alpha  occ. eigenvalues --   -0.49139  -0.44204  -0.40711  -0.39382  -0.38632
 Alpha  occ. eigenvalues --   -0.38166  -0.35954  -0.34390  -0.33358  -0.33146
 Alpha  occ. eigenvalues --   -0.31360  -0.30933  -0.30447  -0.29871  -0.28342
 Alpha  occ. eigenvalues --   -0.27810  -0.26758  -0.26527  -0.24927  -0.24817
 Alpha  occ. eigenvalues --   -0.18197  -0.17969  -0.17750  -0.15137  -0.14966
 Alpha  occ. eigenvalues --   -0.12484   0.04343
 Alpha virt. eigenvalues --    0.06136   0.06741   0.07121   0.07852   0.08091
 Alpha virt. eigenvalues --    0.08208   0.08667   0.09532   0.10171   0.10578
 Alpha virt. eigenvalues --    0.11026   0.11477   0.11792   0.12099   0.12777

  Beta  occ. eigenvalues --  -14.19490 -14.19265 -10.10958 -10.10934 -10.10185
  Beta  occ. eigenvalues --  -10.09797 -10.09017 -10.08104 -10.07781 -10.07116
  Beta  occ. eigenvalues --  -10.07071 -10.07066 -10.06593 -10.06039  -0.83886
  Beta  occ. eigenvalues --   -0.80941  -0.70725  -0.69416  -0.68087  -0.64752
  Beta  occ. eigenvalues --   -0.60651  -0.59786  -0.57151  -0.50562  -0.50009
  Beta  occ. eigenvalues --   -0.49086  -0.44187  -0.40643  -0.39322  -0.38583
  Beta  occ. eigenvalues --   -0.38118  -0.35890  -0.34335  -0.33274  -0.33078
  Beta  occ. eigenvalues --   -0.31320  -0.30887  -0.30391  -0.29812  -0.28298
  Beta  occ. eigenvalues --   -0.27730  -0.26697  -0.26360  -0.24875  -0.24760
  Beta  occ. eigenvalues --   -0.17984  -0.17808  -0.17619  -0.15014  -0.14789
  Beta  occ. eigenvalues --   -0.12452
  Beta virt. eigenvalues --    0.06536   0.06953   0.07453   0.07600   0.08148
  Beta virt. eigenvalues --    0.08400   0.08819   0.08937   0.09911   0.10448
  Beta virt. eigenvalues --    0.10973   0.11145   0.11683   0.11900   0.12406

 Mulliken charges and spin densities:
               1          2
     1  C    0.296881  -0.681978
     2  C   -0.911134   0.779799
     3  N    0.075991   0.108010
     4  C   -0.664285   0.615905
     5  C   -0.303914   0.539026
     6  C    0.550833  -1.285856
     7  C    0.631497  -0.415639
     8  C    0.837246  -1.622832
     9  N    0.278077  -0.085125
    10  C   -1.433594   1.457267
    11  C    1.539395  -2.070947
    12  C   -0.407519  -0.483180
    13  C    0.817233   0.052314
    14  C   -0.307143  -0.371221
    15  H    0.079414   0.069154
    16  H    0.139352   0.015510
    17  H   -0.056884   0.196396
    18  H   -0.679292   0.874826
    19  H   -0.676587   0.852904
    20  H   -0.319495   0.476555
    21  H    0.042596   0.138266
    22  H    0.066876   0.035838
    23  H    0.340619  -0.161528
    24  H    0.117275  -0.006457
    25  H   -0.365356   0.521126
    26  H   -0.340115   0.474182
    27  H   -0.250940   0.399420
    28  H   -0.076439   0.245987
    29  H   -0.084890   0.257449
    30  H    0.064305   0.074828
 Sum of Mulliken charges =  -1.00000   1.00000

 Dipole moment (field-independent basis, Debye):
    X=             -0.3562    Y=              4.9295    Z=              2.1558  Tot=              5.3920
 Quadrupole moment (field-independent basis, Debye-Ang):
   XX=           -165.8707   YY=           -131.4327   ZZ=           -112.7709
   XY=              2.0010   XZ=             -5.8715   YZ=             -4.5235

 Summary of Natural Population Analysis:

                                       Natural Population
                Natural  -----------------------------------------------
    Atom  No    Charge         Core      Valence    Rydberg      Total
 -----------------------------------------------------------------------
      C    1   -0.29587      0.99963     2.29098    0.00526     3.29587
      C    2    0.10550      0.99955     1.88145    0.01351     2.89450
      N    3   -0.23038      0.99965     2.72006    0.01068     3.73038
      C    4    0.11742      0.99953     1.86833    0.01471     2.88258
      C    5   -0.12940      0.99950     2.11989    0.01001     3.12940
      C    6   -0.06404      0.99956     2.05393    0.01054     3.06404
      C    7   -0.12402      0.99951     2.11509    0.00943     3.12402
      C    8   -0.09867      0.99958     2.08741    0.01167     3.09867
      N    9   -0.33287      0.99973     2.82215    0.01100     3.83287
      C   10   -0.00060      0.99961     1.98934    0.01165     3.00060
      C   11   -0.29528      0.99965     2.28973    0.00591     3.29528
      C   12   -0.23326      0.99954     2.22396    0.00976     3.23326
      C   13    0.01746      0.99937     1.97541    0.00775     2.98254
      C   14   -0.13507      0.99927     2.13228    0.00353     3.13507
      H   15    0.10493      0.00000     0.39392    0.00115     0.39507
      H   16    0.10639      0.00000     0.39253    0.00108     0.39361
      H   17    0.09770      0.00000     0.40153    0.00077     0.40230
      H   18    0.10590      0.00000     0.39227    0.00183     0.39410
      H   19    0.10153      0.00000     0.39669    0.00178     0.39847
      H   20    0.10114      0.00000     0.39765    0.00121     0.39886
      H   21    0.10005      0.00000     0.39832    0.00164     0.39995
      H   22    0.08264      0.00000     0.41570    0.00165     0.41736
      H   23    0.17106      0.00000     0.32569    0.00325     0.32894
      H   24    0.09072      0.00000     0.40732    0.00196     0.40928
      H   25    0.09925      0.00000     0.39855    0.00221     0.40075
      H   26    0.10036      0.00000     0.39803    0.00161     0.39964
      H   27    0.10282      0.00000     0.39595    0.00123     0.39718
      H   28    0.11416      0.00000     0.38453    0.00131     0.38584
      H   29    0.11205      0.00000     0.38664    0.00131     0.38795
      H   30    0.10837      0.00000     0.39066    0.00097     0.39163
 =======================================================================
   * Total *    0.00000     13.99368    36.84597    0.16035    51.00000

 Normal termination of Gaussian 16 at Wed Feb 24 15:30:43 2021.
