 Gaussian 16, Revision A.03,

 -----------------------------------------------------------
 # opt freq B3LYP/6-31G(d) empiricaldispersion=gd3bj scf=xqc
 -----------------------------------------------------------

 -------------------------------
 CID_154682714_JID_3979_neutraal
 -------------------------------
 Symbolic Z-matrix:
 Charge =  0 Multiplicity = 1

 SCF Done:  E(RB3LYP) =  -650.903578937     A.U. after   14 cycles
 SCF Done:  E(RB3LYP) =  -650.907612497     A.U. after   13 cycles
 SCF Done:  E(RB3LYP) =  -650.898799092     A.U. after   15 cycles
 SCF Done:  E(RB3LYP) =  -650.907448183     A.U. after   13 cycles
 SCF Done:  E(RB3LYP) =  -650.908603023     A.U. after   12 cycles
 SCF Done:  E(RB3LYP) =  -650.909341049     A.U. after   14 cycles
 SCF Done:  E(RB3LYP) =  -650.910094203     A.U. after   14 cycles
 SCF Done:  E(RB3LYP) =  -650.910786602     A.U. after   13 cycles
 SCF Done:  E(RB3LYP) =  -650.912048902     A.U. after   13 cycles
 SCF Done:  E(RB3LYP) =  -650.912715735     A.U. after   13 cycles
 SCF Done:  E(RB3LYP) =  -650.913722767     A.U. after    7 cycles
 SCF Done:  E(RB3LYP) =  -650.913722845     A.U. after    7 cycles
 SCF Done:  E(RB3LYP) =  -650.913722942     A.U. after    8 cycles
 SCF Done:  E(RB3LYP) =  -650.913723002     A.U. after    8 cycles
 SCF Done:  E(RB3LYP) =  -650.913723037     A.U. after    7 cycles
 Optimization completed.
    -- Stationary point found.
 Normal termination of Gaussian 16 at Mon Dec 14 13:19:52 2020.

 --------------------------------------------------------------------
 #N Geom=AllCheck Guess=TCheck SCRF=Check GenChk RB3LYP/6-31G(d) Freq
 --------------------------------------------------------------------

 Structure from the checkpoint file:  "JID_3979.chk"
 -------------------------------
 CID_154682714_JID_3979_neutraal
 -------------------------------
 Charge =  0 Multiplicity = 1

 SCF Done:  E(RB3LYP) =  -650.913723037     A.U. after    1 cycles

  Exact polarizability: 111.284   3.157 114.835   0.328  -2.858  95.550
 Approx polarizability: 140.463   1.010 156.453  -2.902 -12.544 153.694

                      1                      2                      3
                      A                      A                      A
 Frequencies --     17.8216                43.4409                48.2466
 Red. masses --      4.9025                 5.2308                 7.7450
 Frc consts  --      0.0009                 0.0058                 0.0106
 IR Inten    --      0.6984                 0.8788                 1.9765

                      4                      5                      6
                      A                      A                      A
 Frequencies --     60.6318                76.4052               108.9432
 Red. masses --      3.2755                 3.7019                 3.4821
 Frc consts  --      0.0071                 0.0127                 0.0243
 IR Inten    --      0.0115                 0.6636                 3.0522

                      7                      8                      9
                      A                      A                      A
 Frequencies --    116.2837               139.1765               161.9190
 Red. masses --      2.3739                 3.5502                 2.3604
 Frc consts  --      0.0189                 0.0405                 0.0365
 IR Inten    --      0.6366                 0.0541                 9.2632

                     10                     11                     12
                      A                      A                      A
 Frequencies --    174.5120               192.7398               206.8740
 Red. masses --      2.3035                 2.3224                 1.9424
 Frc consts  --      0.0413                 0.0508                 0.0490
 IR Inten    --      1.4028                 9.8741                 4.4458

                     13                     14                     15
                      A                      A                      A
 Frequencies --    229.0950               265.8844               283.4636
 Red. masses --      1.7808                 1.9028                 2.6502
 Frc consts  --      0.0551                 0.0793                 0.1255
 IR Inten    --      7.7367                 9.9485                 3.3780

                     16                     17                     18
                      A                      A                      A
 Frequencies --    309.9740               333.4237               383.1743
 Red. masses --      3.3009                 2.5954                 1.7756
 Frc consts  --      0.1869                 0.1700                 0.1536
 IR Inten    --     13.9722                 1.8782                 7.8966

                     19                     20                     21
                      A                      A                      A
 Frequencies --    416.2122               444.5815               465.1141
 Red. masses --      2.4045                 1.1621                 2.6295
 Frc consts  --      0.2454                 0.1353                 0.3352
 IR Inten    --      3.3683                48.8135                 1.9005

                     22                     23                     24
                      A                      A                      A
 Frequencies --    481.4585               600.3790               644.1451
 Red. masses --      2.3587                 2.3077                 3.0136
 Frc consts  --      0.3221                 0.4901                 0.7367
 IR Inten    --      2.0336                 8.3220                 3.0047

                     25                     26                     27
                      A                      A                      A
 Frequencies --    680.2376               747.3615               779.8599
 Red. masses --      4.5431                 1.9865                 2.2833
 Frc consts  --      1.2386                 0.6537                 0.8182
 IR Inten    --     21.0839                35.3794                26.2825

                     28                     29                     30
                      A                      A                      A
 Frequencies --    821.9822               837.8195               887.6609
 Red. masses --      2.2189                 1.8341                 1.4689
 Frc consts  --      0.8833                 0.7585                 0.6819
 IR Inten    --     31.0863                19.5826               163.8380

                     31                     32                     33
                      A                      A                      A
 Frequencies --    900.7663               924.7223               933.1963
 Red. masses --      1.5737                 1.2068                 1.9522
 Frc consts  --      0.7523                 0.6080                 1.0016
 IR Inten    --     11.9614               122.7346                 1.5422

                     34                     35                     36
                      A                      A                      A
 Frequencies --    988.8097               998.5997              1021.0361
 Red. masses --      1.4799                 1.7711                 1.7820
 Frc consts  --      0.8525                 1.0406                 1.0946
 IR Inten    --      1.8943                 7.8000                12.6182

                     37                     38                     39
                      A                      A                      A
 Frequencies --   1035.9836              1070.6171              1074.3413
 Red. masses --      1.8124                 1.4851                 1.4893
 Frc consts  --      1.1461                 1.0029                 1.0128
 IR Inten    --      9.1823                 7.7717                 8.0942

                     40                     41                     42
                      A                      A                      A
 Frequencies --   1088.8953              1149.1574              1171.2977
 Red. masses --      1.8137                 2.2563                 2.0948
 Frc consts  --      1.2670                 1.7555                 1.6933
 IR Inten    --     16.3827                 9.2514                20.7989

                     43                     44                     45
                      A                      A                      A
 Frequencies --   1182.7030              1212.9771              1225.1237
 Red. masses --      3.7308                 2.2681                 3.3752
 Frc consts  --      3.0747                 1.9661                 2.9848
 IR Inten    --     54.0279                41.5812               178.6306

                     46                     47                     48
                      A                      A                      A
 Frequencies --   1246.5468              1264.4748              1294.5834
 Red. masses --      1.2412                 1.1666                 1.5854
 Frc consts  --      1.1364                 1.0990                 1.5655
 IR Inten    --     22.3509                 3.0649                 4.1229

                     49                     50                     51
                      A                      A                      A
 Frequencies --   1336.6012              1367.8033              1376.9128
 Red. masses --      1.2994                 1.4371                 1.3987
 Frc consts  --      1.3677                 1.5841                 1.5624
 IR Inten    --      6.1176                 1.0604                14.6969

                     52                     53                     54
                      A                      A                      A
 Frequencies --   1396.2001              1400.1477              1412.4008
 Red. masses --      1.4163                 1.3100                 1.3356
 Frc consts  --      1.6267                 1.5130                 1.5698
 IR Inten    --     32.0827                 0.5001                28.4174

                     55                     56                     57
                      A                      A                      A
 Frequencies --   1429.1476              1438.7201              1446.7078
 Red. masses --      1.2173                 1.3215                 1.3728
 Frc consts  --      1.4648                 1.6116                 1.6929
 IR Inten    --      0.8913                 5.6533                10.5021

                     58                     59                     60
                      A                      A                      A
 Frequencies --   1448.6054              1472.6884              1491.8540
 Red. masses --      1.1920                 1.1224                 1.0557
 Frc consts  --      1.4737                 1.4343                 1.3843
 IR Inten    --      1.4774                14.3194                26.4119

                     61                     62                     63
                      A                      A                      A
 Frequencies --   1504.8607              1509.4309              1520.5328
 Red. masses --      1.0883                 1.0678                 1.0498
 Frc consts  --      1.4521                 1.4334                 1.4300
 IR Inten    --      2.9690                10.8141                 3.4908

                     64                     65                     66
                      A                      A                      A
 Frequencies --   1524.8920              1530.6344              1559.1597
 Red. masses --      1.2115                 1.0529                 1.0770
 Frc consts  --      1.6598                 1.4534                 1.5426
 IR Inten    --     29.9431                 0.3019                 7.6931

                     67                     68                     69
                      A                      A                      A
 Frequencies --   1708.4450              1764.6778              1816.0594
 Red. masses --      1.0931                 9.4836                 7.5713
 Frc consts  --      1.8797                17.4002                14.7123
 IR Inten    --     14.8058               123.3170               334.2681

                     70                     71                     72
                      A                      A                      A
 Frequencies --   3006.8498              3012.0219              3018.5950
 Red. masses --      1.0655                 1.0683                 1.0761
 Frc consts  --      5.6760                 5.7101                 5.7770
 IR Inten    --     30.4500                21.0260                13.3606

                     73                     74                     75
                      A                      A                      A
 Frequencies --   3033.2838              3052.0851              3057.4300
 Red. masses --      1.0722                 1.0943                 1.0370
 Frc consts  --      5.8124                 6.0061                 5.7112
 IR Inten    --     57.8985                66.6406                 5.7843

                     76                     77                     78
                      A                      A                      A
 Frequencies --   3060.8878              3067.3257              3069.3623
 Red. masses --      1.0397                 1.0899                 1.0936
 Frc consts  --      5.7391                 6.0419                 6.0701
 IR Inten    --      4.1145               115.7734                10.0487

                     79                     80                     81
                      A                      A                      A
 Frequencies --   3070.7079              3128.3682              3128.5244
 Red. masses --      1.0961                 1.1002                 1.0989
 Frc consts  --      6.0894                 6.3439                 6.3373
 IR Inten    --     57.0717                38.0295                 4.4819

                     82                     83                     84
                      A                      A                      A
 Frequencies --   3138.6856              3158.6410              3327.2955
 Red. masses --      1.1024                 1.1048                 1.0669
 Frc consts  --      6.3984                 6.4945                 6.9595
 IR Inten    --     26.7506                 9.0747               724.0310

                     85                     86                     87
                      A                      A                      A
 Frequencies --   3460.9356              3534.6641              3556.7879
 Red. masses --      1.0482                 1.0724                 1.0944
 Frc consts  --      7.3974                 7.8945                 8.1570
 IR Inten    --     10.0744                13.6157                15.1316

 - Thermochemistry -
 -------------------
 Temperature   298.150 Kelvin.  Pressure   1.00000 Atm.
 Atom     1 has atomic number  6 and mass  12.00000

 Molecular mass:   190.13174 amu.
 Principal axes and moments of inertia in atomic units:
                           1         2         3
     Eigenvalues --  2150.782783120.514864203.36602
           X            0.99811   0.06113   0.00561
           Y           -0.06112   0.99813  -0.00107
           Z           -0.00566   0.00073   0.99998
 This molecule is an asymmetric top.
 Rotational symmetry number  1.
 Warning -- assumption of classical behavior for rotation
           may cause significant error
 Rotational temperatures (Kelvin)      0.04027     0.02776     0.02061
 Rotational constants (GHZ):           0.83911     0.57835     0.42936
 Zero-point vibrational energy     712266.1 (Joules/Mol)
                                  170.23567 (Kcal/Mol)
 Warning -- explicit consideration of  23 degrees of freedom as
           vibrations may cause significant error
 Vibrational temperatures:     25.64    62.50    69.42    87.24   109.93
          (Kelvin)            156.74   167.31   200.24   232.97   251.08
                              277.31   297.65   329.62   382.55   407.84
                              445.98   479.72   551.30   598.84   639.65
                              669.20   692.71   863.81   926.78   978.71
                             1075.29  1122.04  1182.65  1205.44  1277.15
                             1296.00  1330.47  1342.66  1422.68  1436.76
                             1469.04  1490.55  1540.38  1545.74  1566.68
                             1653.38  1685.24  1701.65  1745.20  1762.68
                             1793.50  1819.30  1862.62  1923.07  1967.96
                             1981.07  2008.82  2014.50  2032.13  2056.22
                             2070.00  2081.49  2084.22  2118.87  2146.45
                             2165.16  2171.73  2187.71  2193.98  2202.24
                             2243.28  2458.07  2538.98  2612.90  4326.19
                             4333.63  4343.08  4364.22  4391.27  4398.96
                             4403.93  4413.20  4416.13  4418.06  4501.02
                             4501.25  4515.87  4544.58  4787.24  4979.51
                             5085.59  5117.42

 Zero-point correction=                           0.271288 (Hartree/Particle)
 Thermal correction to Energy=                    0.287735
 Thermal correction to Enthalpy=                  0.288679
 Thermal correction to Gibbs Free Energy=         0.225684
 Sum of electronic and zero-point Energies=           -650.642435
 Sum of electronic and thermal Energies=              -650.625989
 Sum of electronic and thermal Enthalpies=            -650.625044
 Sum of electronic and thermal Free Energies=         -650.688039

                     E (Thermal)             CV                S
                      KCal/Mol        Cal/Mol-Kelvin    Cal/Mol-Kelvin
 Total                  180.556             57.551            132.584
 Electronic               0.000              0.000              0.000
 Translational            0.889              2.981             41.633
 Rotational               0.889              2.981             31.712
 Vibrational            178.779             51.589             59.239
 Vibration     1          0.593              1.986              6.863
 Vibration     2          0.595              1.980              5.096
 Vibration     3          0.595              1.978              4.888
 Vibration     4          0.597              1.973              4.437
 Vibration     5          0.599              1.965              3.981
 Vibration     6          0.606              1.942              3.288
 Vibration     7          0.608              1.936              3.161
 Vibration     8          0.615              1.914              2.815
 Vibration     9          0.622              1.889              2.527
 Vibration    10          0.627              1.874              2.386
 Vibration    11          0.635              1.850              2.201
 Vibration    12          0.641              1.830              2.071
 Vibration    13          0.652              1.797              1.886
 Vibration    14          0.672              1.736              1.623
 Vibration    15          0.682              1.704              1.513
 Vibration    16          0.699              1.655              1.362
 Vibration    17          0.715              1.609              1.243
 Vibration    18          0.752              1.506              1.027
 Vibration    19          0.779              1.435              0.905
 Vibration    20          0.804              1.373              0.812
 Vibration    21          0.823              1.327              0.751
 Vibration    22          0.838              1.291              0.706
 Vibration    23          0.959              1.031              0.449

 Optimization completed.
    -- Stationary point found.
 Normal termination of Gaussian 16 at Mon Dec 14 13:28:00 2020.

 ----------------------------------------------------------------------
 # B3LYP/6-311++G(d,p) empiricaldispersion=gd3bj scf=xqc pop=npa geom=c
 heck
 ----------------------------------------------------------------------

 ---------------------------------------
 CID_154682714_JID_3979_Energie_neutraal
 ---------------------------------------
 Structure from the checkpoint file:  "JID_3979.chk"
 Charge =  0 Multiplicity = 1

 SCF Done:  E(RB3LYP) =  -651.126347624     A.U. after   14 cycles
 Normal termination of Gaussian 16 at Mon Dec 14 13:31:11 2020.

 ----------------------------------------------------------------------
 # B3LYP/6-311++G(d,p) empiricaldispersion=gd3bj scf=xqc pop=npa geom=c
 heck
 ----------------------------------------------------------------------

 -------------------------------------
 CID_154682714_JID_3979_Energie_kation
 -------------------------------------
 Structure from the checkpoint file:  "JID_3979.chk"
 Charge =  1 Multiplicity = 2

 SCF Done:  E(UB3LYP) =  -650.827668021     A.U. after   21 cycles
 Normal termination of Gaussian 16 at Mon Dec 14 13:37:25 2020.
 Gaussian 16:  ES64L-G16RevA.03 25-Dec-2016

 ----------------------------------------------------------------------
 # B3LYP/6-311++G(d,p) empiricaldispersion=gd3bj scf=xqc pop=npa geom=c
 heck
 ----------------------------------------------------------------------

 ------------------------------------
 CID_154682714_JID_3979_Energie_anion
 ------------------------------------
 Structure from the checkpoint file:  "JID_3979.chk"
 Charge = -1 Multiplicity = 2

                         Standard orientation:
 ---------------------------------------------------------------------
 Center     Atomic      Atomic             Coordinates (Angstroms)
 Number     Number       Type             X           Y           Z
 ---------------------------------------------------------------------
      1          6           0        1.746563    2.070539    0.187073
      2          6           0        2.624727    0.880409   -0.208776
      3          6           0        2.635335   -0.229027    0.873478
      4          6           0        1.300233   -0.927418    1.148681
      5          7           0        1.038762   -1.990821    0.160685
      6          6           0       -0.345789   -2.396542    0.133558
      7          6           0       -1.317512   -1.378805   -0.458645
      8          8           0       -0.896939   -0.452708   -1.147208
      9          6           0       -2.780764   -1.548143   -0.157943
     10          7           0        2.244340    0.467684   -1.568067
     11          6           0       -2.223139    2.064122    0.530356
     12          8           0       -1.997943    1.182398    1.334281
     13          8           0       -2.068031    1.988670   -0.788336
     14          1           0        0.688439    1.789656    0.215550
     15          1           0        1.857179    2.875449   -0.545182
     16          1           0        2.019137    2.451460    1.177321
     17          1           0        3.660124    1.243076   -0.278026
     18          1           0        3.371692   -0.997420    0.598854
     19          1           0        2.993714    0.220668    1.808960
     20          1           0        1.334647   -1.405351    2.136514
     21          1           0        0.488969   -0.183854    1.191326
     22          1           0        1.292885   -1.643023   -0.759626
     23          1           0       -0.466023   -3.321946   -0.453446
     24          1           0       -0.680608   -2.646379    1.149332
     25          1           0       -3.047667   -2.598573   -0.006013
     26          1           0       -2.977023   -1.000574    0.772738
     27          1           0       -3.393192   -1.109237   -0.949390
     28          1           0        2.784621   -0.341611   -1.869461
     29          1           0        1.256661    0.218400   -1.603453
     30          1           0       -2.597014    3.060768    0.810513
     31          1           0       -1.702886    1.092769   -1.021420
 ---------------------------------------------------------------------

 SCF Done:  E(UB3LYP) =  -651.118089930     A.U. after   33 cycles
 SCF Done:  E(UB3LYP) =  -651.118089930     a.u. after    1 cycles

 The electronic state is 2-A.
 Alpha  occ. eigenvalues --  -19.05739 -19.01605 -18.96708 -14.17904 -14.17542
 Alpha  occ. eigenvalues --  -10.20393 -10.09394 -10.08869 -10.07417 -10.06678
 Alpha  occ. eigenvalues --  -10.05870 -10.05153 -10.03653  -1.00095  -0.91771
 Alpha  occ. eigenvalues --   -0.90169  -0.79046  -0.77126  -0.65777  -0.62441
 Alpha  occ. eigenvalues --   -0.60365  -0.55515  -0.54898  -0.51295  -0.46020
 Alpha  occ. eigenvalues --   -0.41883  -0.40816  -0.39194  -0.38399  -0.36339
 Alpha  occ. eigenvalues --   -0.35266  -0.34904  -0.34225  -0.33370  -0.32632
 Alpha  occ. eigenvalues --   -0.31817  -0.29008  -0.28882  -0.28290  -0.27430
 Alpha  occ. eigenvalues --   -0.26398  -0.26038  -0.25387  -0.24067  -0.23395
 Alpha  occ. eigenvalues --   -0.22153  -0.21874  -0.21507  -0.18514  -0.13896
 Alpha  occ. eigenvalues --   -0.13333  -0.10044   0.05481
 Alpha virt. eigenvalues --    0.06756   0.08119   0.08697   0.08832   0.09279
 Alpha virt. eigenvalues --    0.09811   0.10303   0.11050   0.11457   0.12056
 Alpha virt. eigenvalues --    0.12526   0.13005   0.14150   0.14322   0.15143

  Beta  occ. eigenvalues --  -19.05734 -19.01606 -18.96432 -14.17905 -14.17540
  Beta  occ. eigenvalues --  -10.20392 -10.09388 -10.08274 -10.07417 -10.06713
  Beta  occ. eigenvalues --  -10.05864 -10.05144 -10.03679  -1.00087  -0.91755
  Beta  occ. eigenvalues --   -0.89517  -0.79029  -0.77114  -0.65740  -0.62075
  Beta  occ. eigenvalues --   -0.60246  -0.55467  -0.54841  -0.51222  -0.45996
  Beta  occ. eigenvalues --   -0.41677  -0.40366  -0.39132  -0.38349  -0.36316
  Beta  occ. eigenvalues --   -0.34951  -0.34718  -0.34165  -0.33228  -0.32406
  Beta  occ. eigenvalues --   -0.31381  -0.28839  -0.28671  -0.28165  -0.27371
  Beta  occ. eigenvalues --   -0.26361  -0.25946  -0.25194  -0.23938  -0.23275
  Beta  occ. eigenvalues --   -0.22134  -0.21588  -0.20456  -0.18418  -0.13728
  Beta  occ. eigenvalues --   -0.13316  -0.09910
  Beta virt. eigenvalues --    0.07029   0.08063   0.08787   0.08978   0.09202
  Beta virt. eigenvalues --    0.09923   0.10547   0.11215   0.11580   0.11894
  Beta virt. eigenvalues --    0.12589   0.13239   0.13400   0.14205   0.14597

 Mulliken charges and spin densities:
               1          2
     1  C   -0.353003  -0.235836
     2  C    0.164719   0.137240
     3  C   -0.535158  -0.245650
     4  C   -0.127840  -0.112839
     5  N    0.013543   0.063502
     6  C    0.467394  -1.262126
     7  C   -0.171091   1.068514
     8  O   -0.437599   0.102016
     9  C    0.185858  -0.894169
    10  N   -0.451369  -0.011586
    11  C    0.005697  -0.019101
    12  O   -0.245007  -0.003949
    13  O   -0.153999   0.000718
    14  H    0.012955  -0.058497
    15  H    0.115661   0.051197
    16  H   -0.018982   0.143418
    17  H   -0.060635   0.229915
    18  H    0.169209  -0.005107
    19  H   -0.048106   0.176476
    20  H    0.138199   0.004743
    21  H    0.156207  -0.023270
    22  H    0.216781  -0.005936
    23  H   -0.779601   0.999860
    24  H    0.274728  -0.113033
    25  H   -0.556636   0.725155
    26  H    0.208011  -0.014374
    27  H   -0.106036   0.261560
    28  H    0.213430   0.001521
    29  H    0.310491   0.008716
    30  H    0.058288   0.023226
    31  H    0.333892   0.007695
 Sum of Mulliken charges =  -1.00000   1.00000

 Dipole moment (field-independent basis, Debye):
    X=              2.4493    Y=              5.7653    Z=              2.6190  Tot=              6.7895
 Quadrupole moment (field-independent basis, Debye-Ang):
   XX=           -122.8544   YY=           -132.2213   ZZ=           -105.4150
   XY=            -18.4490   XZ=             -5.1430   YZ=             -3.0879

 Summary of Natural Population Analysis:

                                       Natural Population
                Natural  -----------------------------------------------
    Atom  No    Charge         Core      Valence    Rydberg      Total
 -----------------------------------------------------------------------
      C    1   -0.29192      0.99964     2.28514    0.00714     3.29192
      C    2   -0.01381      0.99962     2.00211    0.01208     3.01381
      C    3   -0.20071      0.99961     2.19148    0.00963     3.20071
      C    4   -0.09381      0.99962     2.08344    0.01074     3.09381
      N    5   -0.34340      0.99975     2.83103    0.01262     3.84340
      C    6   -0.13464      0.99959     2.12179    0.01327     3.13464
      C    7    0.37798      0.99968     1.60268    0.01965     2.62202
      O    8   -0.33056      0.99984     3.32295    0.00777     4.33056
      C    9   -0.34195      0.99962     2.33661    0.00572     3.34195
      N   10   -0.43564      0.99977     2.92598    0.00989     3.93564
      C   11    0.32967      0.99983     1.64488    0.02562     2.67033
      O   12   -0.30431      0.99988     3.29788    0.00655     4.30431
      O   13   -0.35039      0.99988     3.34428    0.00623     4.35039
      H   14    0.10338      0.00000     0.39558    0.00105     0.39662
      H   15    0.10099      0.00000     0.39808    0.00093     0.39901
      H   16    0.09534      0.00000     0.40389    0.00078     0.40466
      H   17    0.08171      0.00000     0.41624    0.00205     0.41829
      H   18    0.09603      0.00000     0.40280    0.00117     0.40397
      H   19    0.09735      0.00000     0.40172    0.00093     0.40265
      H   20    0.08607      0.00000     0.41293    0.00100     0.41393
      H   21    0.09413      0.00000     0.40461    0.00127     0.40587
      H   22    0.17451      0.00000     0.32249    0.00300     0.32549
      H   23    0.11271      0.00000     0.38072    0.00657     0.38729
      H   24    0.09651      0.00000     0.40249    0.00100     0.40349
      H   25    0.10642      0.00000     0.39059    0.00299     0.39358
      H   26    0.11920      0.00000     0.37987    0.00093     0.38080
      H   27    0.10540      0.00000     0.39331    0.00129     0.39460
      H   28    0.16964      0.00000     0.32916    0.00121     0.33036
      H   29    0.19147      0.00000     0.30699    0.00154     0.30853
      H   30    0.04314      0.00000     0.45499    0.00187     0.45686
      H   31    0.25951      0.00000     0.23639    0.00409     0.24049
 =======================================================================
   * Total *   -0.00000     12.99633    38.82310    0.18057    52.00000

 Normal termination of Gaussian 16 at Mon Dec 14 13:47:17 2020.
