 Gaussian 16, Revision A.03,

 -----------------------------------------------------------
 # opt freq B3LYP/6-31G(d) empiricaldispersion=gd3bj scf=xqc
 -----------------------------------------------------------

 ----------------------------
 CID_817394_JID_5100_neutraal
 ----------------------------
 Symbolic Z-matrix:
 Charge =  0 Multiplicity = 1

 SCF Done:  E(RB3LYP) =  -743.402372657     A.U. after   14 cycles
 SCF Done:  E(RB3LYP) =  -743.405715317     A.U. after   13 cycles
 SCF Done:  E(RB3LYP) =  -743.405652320     A.U. after   12 cycles
 SCF Done:  E(RB3LYP) =  -743.406159602     A.U. after   12 cycles
 SCF Done:  E(RB3LYP) =  -743.406400047     A.U. after   12 cycles
 SCF Done:  E(RB3LYP) =  -743.406478127     A.U. after   12 cycles
 SCF Done:  E(RB3LYP) =  -743.406547866     A.U. after   12 cycles
 SCF Done:  E(RB3LYP) =  -743.406599249     A.U. after   12 cycles
 SCF Done:  E(RB3LYP) =  -743.406648791     A.U. after   12 cycles
 SCF Done:  E(RB3LYP) =  -743.406563279     A.U. after   11 cycles
 SCF Done:  E(RB3LYP) =  -743.407274924     A.U. after   10 cycles
 SCF Done:  E(RB3LYP) =  -743.407275970     A.U. after   10 cycles
 SCF Done:  E(RB3LYP) =  -743.407276026     A.U. after    8 cycles
 SCF Done:  E(RB3LYP) =  -743.407276044     A.U. after    7 cycles
 Optimization completed.
    -- Stationary point found.
 Normal termination of Gaussian 16 at Thu Dec 10 14:53:45 2020.

 --------------------------------------------------------------------
 #N Geom=AllCheck Guess=TCheck SCRF=Check GenChk RB3LYP/6-31G(d) Freq
 --------------------------------------------------------------------

 Structure from the checkpoint file:  "JID_5100.chk"
 ----------------------------
 CID_817394_JID_5100_neutraal
 ----------------------------
 Charge =  0 Multiplicity = 1

 SCF Done:  E(RB3LYP) =  -743.407276044     A.U. after    1 cycles

  Exact polarizability: 128.830   9.518 109.340 -17.814  10.556 102.258
 Approx polarizability: 172.066  24.452 182.135 -34.456  21.308 172.994

                      1                      2                      3
                      A                      A                      A
 Frequencies --     19.2551                22.2453                31.2863
 Red. masses --      9.0199                 7.1776                 5.0545
 Frc consts  --      0.0020                 0.0021                 0.0029
 IR Inten    --      2.5889                 0.5225                 1.8513

                      4                      5                      6
                      A                      A                      A
 Frequencies --     63.5554                69.0316               139.2987
 Red. masses --      5.7409                10.0627                 4.7123
 Frc consts  --      0.0137                 0.0283                 0.0539
 IR Inten    --      0.3681                 1.3568                 0.3975

                      7                      8                      9
                      A                      A                      A
 Frequencies --    157.2026               160.3932               218.2380
 Red. masses --      6.0284                 4.7460                 5.8271
 Frc consts  --      0.0878                 0.0719                 0.1635
 IR Inten    --      0.1951                 0.6566                 1.5667

                     10                     11                     12
                      A                      A                      A
 Frequencies --    267.8845               347.8535               377.4348
 Red. masses --      3.1122                 3.0890                 5.6347
 Frc consts  --      0.1316                 0.2202                 0.4729
 IR Inten    --      0.1995                 1.1135                 1.4862

                     13                     14                     15
                      A                      A                      A
 Frequencies --    401.4703               418.8237               498.2051
 Red. masses --      2.9061                 3.6590                 4.2241
 Frc consts  --      0.2760                 0.3782                 0.6177
 IR Inten    --      3.7089                 3.8771                 2.3432

                     16                     17                     18
                      A                      A                      A
 Frequencies --    518.9041               531.2076               589.3203
 Red. masses --      3.7825                 2.4130                 2.8207
 Frc consts  --      0.6001                 0.4012                 0.5772
 IR Inten    --      4.9883                 4.6027                37.6476

                     19                     20                     21
                      A                      A                      A
 Frequencies --    617.1949               637.9885               642.7847
 Red. masses --      1.6021                 2.6300                 5.5033
 Frc consts  --      0.3596                 0.6307                 1.3397
 IR Inten    --     74.2667                36.7227                 9.5668

                     22                     23                     24
                      A                      A                      A
 Frequencies --    653.1572               737.2900               759.9465
 Red. masses --      1.6589                 3.4323                 3.3444
 Frc consts  --      0.4170                 1.0993                 1.1380
 IR Inten    --    152.6093                25.7542                23.6823

                     25                     26                     27
                      A                      A                      A
 Frequencies --    766.1911               779.8755               796.3341
 Red. masses --      1.7851                 2.0112                 3.2880
 Frc consts  --      0.6174                 0.7207                 1.2285
 IR Inten    --     15.0855                12.3360                24.9064

                     28                     29                     30
                      A                      A                      A
 Frequencies --    833.4327               906.5309               919.0478
 Red. masses --      3.9387                 1.3409                 2.4394
 Frc consts  --      1.6119                 0.6493                 1.2140
 IR Inten    --      6.5581                 0.7453                 3.1745

                     31                     32                     33
                      A                      A                      A
 Frequencies --    936.1364               977.1825               991.3697
 Red. masses --      3.6192                 1.4198                 2.4482
 Frc consts  --      1.8687                 0.7988                 1.4176
 IR Inten    --     14.9638                 0.2472                13.3160

                     34                     35                     36
                      A                      A                      A
 Frequencies --   1005.7999              1013.9441              1039.0476
 Red. masses --      1.2945                 5.9877                 2.1868
 Frc consts  --      0.7716                 3.6269                 1.3910
 IR Inten    --      0.2329                16.5604                21.1457

                     37                     38                     39
                      A                      A                      A
 Frequencies --   1079.7947              1099.3889              1125.9357
 Red. masses --      2.2717                 3.6149                 1.5810
 Frc consts  --      1.5606                 2.5742                 1.1809
 IR Inten    --      2.7796                 2.7390                17.8026

                     40                     41                     42
                      A                      A                      A
 Frequencies --   1167.3886              1186.8060              1193.9459
 Red. masses --      1.5266                 1.1410                 2.0532
 Frc consts  --      1.2257                 0.9469                 1.7245
 IR Inten    --     80.5391                 7.1439               253.1179

                     43                     44                     45
                      A                      A                      A
 Frequencies --   1227.1410              1248.0611              1262.8257
 Red. masses --      1.5826                 1.4703                 2.2348
 Frc consts  --      1.4042                 1.3493                 2.0998
 IR Inten    --    100.0656                71.6534                 3.6451

                     46                     47                     48
                      A                      A                      A
 Frequencies --   1303.3864              1319.3493              1347.9074
 Red. masses --      1.4762                 3.0182                 1.4737
 Frc consts  --      1.4775                 3.0954                 1.5776
 IR Inten    --      0.4274                 0.0593                 8.1653

                     49                     50                     51
                      A                      A                      A
 Frequencies --   1354.2818              1374.1709              1379.0202
 Red. masses --      1.4502                 1.9898                 1.6929
 Frc consts  --      1.5671                 2.2138                 1.8968
 IR Inten    --     19.4926                40.2803                36.2572

                     52                     53                     54
                      A                      A                      A
 Frequencies --   1396.4822              1412.8077              1484.1037
 Red. masses --      1.6715                 1.6044                 2.1759
 Frc consts  --      1.9206                 1.8868                 2.8236
 IR Inten    --     19.8677                10.1695                20.5392

                     55                     56                     57
                      A                      A                      A
 Frequencies --   1513.3672              1517.8913              1528.4082
 Red. masses --      1.0904                 1.3386                 1.7134
 Frc consts  --      1.4714                 1.8171                 2.3582
 IR Inten    --      6.5634                 8.2856                15.7808

                     58                     59                     60
                      A                      A                      A
 Frequencies --   1633.1007              1652.0623              1848.1803
 Red. masses --      5.6819                 5.4764                 9.8370
 Frc consts  --      8.9284                 8.8063                19.7970
 IR Inten    --     13.7982                44.1837               244.3725

                     61                     62                     63
                      A                      A                      A
 Frequencies --   1858.9764              3061.3953              3070.4401
 Red. masses --     10.1513                 1.0622                 1.0650
 Frc consts  --     20.6690                 5.8656                 5.9155
 IR Inten    --    278.9857                11.9800                30.3989

                     64                     65                     66
                      A                      A                      A
 Frequencies --   3109.8129              3136.8400              3143.1850
 Red. masses --      1.1019                 1.0976                 1.0856
 Frc consts  --      6.2783                 6.3631                 6.3193
 IR Inten    --     14.4047                 8.3837                 3.7728

                     67                     68                     69
                      A                      A                      A
 Frequencies --   3177.6459              3190.5262              3204.6855
 Red. masses --      1.0889                 1.0877                 1.0931
 Frc consts  --      6.4784                 6.5235                 6.6145
 IR Inten    --     17.8723                 4.1677                21.2334

                     70                     71                     72
                      A                      A                      A
 Frequencies --   3218.2806              3683.5982              3687.2580
 Red. masses --      1.0976                 1.0639                 1.0639
 Frc consts  --      6.6978                 8.5058                 8.5225
 IR Inten    --     17.7806                58.4373                55.2651

 - Thermochemistry -
 -------------------
 Temperature   298.150 Kelvin.  Pressure   1.00000 Atm.
 Atom     1 has atomic number  6 and mass  12.00000

 Molecular mass:   209.06881 amu.
 Principal axes and moments of inertia in atomic units:
                           1         2         3
     Eigenvalues --  1758.889334794.740775172.75050
           X            0.99993   0.00655  -0.01018
           Y           -0.00598   0.99850   0.05440
           Z            0.01052  -0.05433   0.99847
 This molecule is an asymmetric top.
 Rotational symmetry number  1.
 Warning -- assumption of classical behavior for rotation
           may cause significant error
 Rotational temperatures (Kelvin)      0.04924     0.01806     0.01674
 Rotational constants (GHZ):           1.02607     0.37640     0.34889
 Zero-point vibrational energy     538578.6 (Joules/Mol)
                                  128.72338 (Kcal/Mol)
 Warning -- explicit consideration of  19 degrees of freedom as
           vibrations may cause significant error
 Vibrational temperatures:     27.70    32.01    45.01    91.44    99.32
          (Kelvin)            200.42   226.18   230.77   314.00   385.43
                              500.48   543.04   577.63   602.59   716.81
                              746.59   764.29   847.90   888.01   917.92
                              924.82   939.75  1060.80  1093.39  1102.38
                             1122.07  1145.75  1199.12  1304.30  1322.30
                             1346.89  1405.95  1426.36  1447.12  1458.84
                             1494.96  1553.58  1581.78  1619.97  1679.61
                             1707.55  1717.82  1765.58  1795.68  1816.92
                             1875.28  1898.25  1939.34  1948.51  1977.13
                             1984.10  2009.23  2032.72  2135.29  2177.40
                             2183.91  2199.04  2349.67  2376.95  2659.12
                             2674.65  4404.67  4417.68  4474.33  4513.21
                             4522.34  4571.92  4590.46  4610.83  4630.39
                             5299.88  5305.14

 Zero-point correction=                           0.205134 (Hartree/Particle)
 Thermal correction to Energy=                    0.218922
 Thermal correction to Enthalpy=                  0.219866
 Thermal correction to Gibbs Free Energy=         0.161037
 Sum of electronic and zero-point Energies=           -743.202142
 Sum of electronic and thermal Energies=              -743.188354
 Sum of electronic and thermal Enthalpies=            -743.187410
 Sum of electronic and thermal Free Energies=         -743.246239

                     E (Thermal)             CV                S
                      KCal/Mol        Cal/Mol-Kelvin    Cal/Mol-Kelvin
 Total                  137.376             50.419            123.817
 Electronic               0.000              0.000              0.000
 Translational            0.889              2.981             41.916
 Rotational               0.889              2.981             32.145
 Vibrational            135.598             44.458             49.755
 Vibration     1          0.593              1.986              6.710
 Vibration     2          0.593              1.985              6.423
 Vibration     3          0.594              1.983              5.746
 Vibration     4          0.597              1.972              4.344
 Vibration     5          0.598              1.969              4.181
 Vibration     6          0.615              1.914              2.813
 Vibration     7          0.621              1.895              2.583
 Vibration     8          0.622              1.891              2.545
 Vibration     9          0.646              1.813              1.974
 Vibration    10          0.673              1.732              1.610
 Vibration    11          0.725              1.580              1.176
 Vibration    12          0.748              1.518              1.049
 Vibration    13          0.767              1.467              0.957
 Vibration    14          0.782              1.429              0.896
 Vibration    15          0.854              1.254              0.663
 Vibration    16          0.874              1.208              0.613
 Vibration    17          0.886              1.181              0.585
 Vibration    18          0.947              1.055              0.468
 Vibration    19          0.977              0.996              0.421

 Optimization completed.
    -- Stationary point found.
 Normal termination of Gaussian 16 at Thu Dec 10 15:00:58 2020.

 ----------------------------------------------------------------------
 # B3LYP/6-311++G(d,p) empiricaldispersion=gd3bj scf=xqc pop=npa geom=c
 heck
 ----------------------------------------------------------------------

 ------------------------------------
 CID_817394_JID_5100_Energie_neutraal
 ------------------------------------
 Structure from the checkpoint file:  "JID_5100.chk"
 Charge =  0 Multiplicity = 1

 SCF Done:  E(RB3LYP) =  -743.635647357     A.U. after   15 cycles
 Normal termination of Gaussian 16 at Thu Dec 10 15:04:50 2020.

 ----------------------------------------------------------------------
 # B3LYP/6-311++G(d,p) empiricaldispersion=gd3bj scf=xqc pop=npa geom=c
 heck
 ----------------------------------------------------------------------

 ----------------------------------
 CID_817394_JID_5100_Energie_kation
 ----------------------------------
 Structure from the checkpoint file:  "JID_5100.chk"
 Charge =  1 Multiplicity = 2

 SCF Done:  E(UB3LYP) =  -743.301545336     A.U. after   33 cycles
 SCF Done:  E(UB3LYP) =  -743.301545336     a.u. after    2 cycles
 Normal termination of Gaussian 16 at Thu Dec 10 15:24:26 2020.
 Gaussian 16:  ES64L-G16RevA.03 25-Dec-2016

 ----------------------------------------------------------------------
 # B3LYP/6-311++G(d,p) empiricaldispersion=gd3bj scf=xqc pop=npa geom=c
 heck
 ----------------------------------------------------------------------

 ---------------------------------
 CID_817394_JID_5100_Energie_anion
 ---------------------------------
 Structure from the checkpoint file:  "JID_5100.chk"
 Charge = -1 Multiplicity = 2

                         Standard orientation:
 ---------------------------------------------------------------------
 Center     Atomic      Atomic             Coordinates (Angstroms)
 Number     Number       Type             X           Y           Z
 ---------------------------------------------------------------------
      1          6           0        3.698299    0.940494   -0.287054
      2          6           0        3.663584   -0.164201   -1.136192
      3          6           0        2.631080   -1.087389   -0.971063
      4          7           0        1.676983   -0.972264   -0.041232
      5          6           0        1.712019    0.094039    0.777714
      6          6           0        2.707287    1.073191    0.682906
      7          6           0        0.580671    0.196457    1.768870
      8          6           0       -0.678371    0.864100    1.177675
      9          6           0       -1.179327    0.235782   -0.141973
     10          6           0       -1.539203   -1.241661   -0.088827
     11          8           0       -1.599770   -1.955279   -1.061886
     12          8           0       -1.827618   -1.676871    1.160583
     13          6           0       -2.359532    1.058822   -0.639771
     14          8           0       -2.260838    2.072671   -1.290598
     15          8           0       -3.547691    0.566640   -0.215689
     16          1           0        4.483395    1.685980   -0.378076
     17          1           0        4.413877   -0.309749   -1.906851
     18          1           0        2.562467   -1.962234   -1.614751
     19          1           0        2.700778    1.921475    1.361259
     20          1           0        0.325042   -0.809561    2.109410
     21          1           0        0.894418    0.779482    2.642308
     22          1           0       -1.480308    0.828217    1.921903
     23          1           0       -0.468759    1.919572    0.968676
     24          1           0       -0.409516    0.327449   -0.909355
     25          1           0       -2.059923   -2.619525    1.063939
     26          1           0       -4.232054    1.169646   -0.562821
 ---------------------------------------------------------------------

 SCF Done:  E(UB3LYP) =  -743.627784577     A.U. after   33 cycles
 SCF Done:  E(UB3LYP) =  -743.627784577     a.u. after    1 cycles

 The electronic state is 2-A.
 Alpha  occ. eigenvalues --  -19.07408 -19.06978 -19.02083 -19.01242 -14.18142
 Alpha  occ. eigenvalues --  -10.21418 -10.20738 -10.09988 -10.09197 -10.09185
 Alpha  occ. eigenvalues --  -10.07854 -10.06888 -10.06672 -10.06462 -10.06380
 Alpha  occ. eigenvalues --   -1.01729  -1.00824  -0.92720  -0.92030  -0.82754
 Alpha  occ. eigenvalues --   -0.72218  -0.68859  -0.67002  -0.61653  -0.54578
 Alpha  occ. eigenvalues --   -0.54070  -0.51815  -0.50241  -0.47804  -0.41411
 Alpha  occ. eigenvalues --   -0.40508  -0.39724  -0.39196  -0.37762  -0.37178
 Alpha  occ. eigenvalues --   -0.35994  -0.35137  -0.33269  -0.32950  -0.31889
 Alpha  occ. eigenvalues --   -0.30681  -0.30115  -0.28981  -0.28601  -0.27143
 Alpha  occ. eigenvalues --   -0.25924  -0.24885  -0.23954  -0.22747  -0.22096
 Alpha  occ. eigenvalues --   -0.19178  -0.17905  -0.17759  -0.14797  -0.14253
 Alpha  occ. eigenvalues --    0.04453
 Alpha virt. eigenvalues --    0.06229   0.06944   0.07496   0.07771   0.08523
 Alpha virt. eigenvalues --    0.08906   0.09412   0.10015   0.10506   0.11207
 Alpha virt. eigenvalues --    0.11740   0.12470   0.13024   0.13759   0.15045

  Beta  occ. eigenvalues --  -19.07356 -19.06949 -19.02070 -19.01234 -14.17891
  Beta  occ. eigenvalues --  -10.21416 -10.20737 -10.09980 -10.09195 -10.09102
  Beta  occ. eigenvalues --  -10.07819 -10.06726 -10.06669 -10.06407 -10.06381
  Beta  occ. eigenvalues --   -1.01673  -1.00784  -0.92668  -0.92001  -0.82409
  Beta  occ. eigenvalues --   -0.72167  -0.68533  -0.66867  -0.61553  -0.54512
  Beta  occ. eigenvalues --   -0.53930  -0.51666  -0.50080  -0.47647  -0.41362
  Beta  occ. eigenvalues --   -0.40432  -0.39688  -0.39163  -0.37675  -0.37092
  Beta  occ. eigenvalues --   -0.35931  -0.35035  -0.33227  -0.32894  -0.31797
  Beta  occ. eigenvalues --   -0.30611  -0.30066  -0.28699  -0.28367  -0.27064
  Beta  occ. eigenvalues --   -0.25685  -0.24819  -0.23874  -0.22693  -0.22067
  Beta  occ. eigenvalues --   -0.19131  -0.17794  -0.16771  -0.14340  -0.13972
  Beta virt. eigenvalues --    0.06825   0.07362   0.08115   0.08185   0.08466
  Beta virt. eigenvalues --    0.08702   0.09145   0.09651   0.10131   0.10723
  Beta virt. eigenvalues --    0.11284   0.11952   0.12523   0.13130   0.13920

 Mulliken charges and spin densities:
               1          2
     1  C   -0.108753  -0.369024
     2  C    0.444452  -0.430972
     3  C   -0.400677   0.228689
     4  N    0.008115   0.078242
     5  C   -0.761805   0.817816
     6  C    0.060348   0.057565
     7  C   -0.025245  -0.477665
     8  C    0.297898  -0.898502
     9  C    0.912938  -0.684148
    10  C    0.012351  -0.402398
    11  O   -0.253185   0.016555
    12  O   -0.146243   0.039797
    13  C   -0.151183   0.289809
    14  O   -0.255913   0.011472
    15  O   -0.130319   0.021915
    16  H   -0.108937   0.245412
    17  H    0.073554   0.064639
    18  H    0.074837   0.088723
    19  H   -0.212373   0.383552
    20  H    0.064564   0.140406
    21  H   -0.158463   0.320726
    22  H   -0.181481   0.391504
    23  H    0.160517  -0.005810
    24  H    0.271377   0.007343
    25  H   -0.066805   0.344308
    26  H   -0.419571   0.720045
 Sum of Mulliken charges =  -1.00000   1.00000

 Dipole moment (field-independent basis, Debye):
    X=              3.1487    Y=             -0.8508    Z=              0.0014  Tot=              3.2616
 Quadrupole moment (field-independent basis, Debye-Ang):
   XX=           -149.2793   YY=           -117.4146   ZZ=           -115.1541
   XY=              1.9378   XZ=             -4.1478   YZ=              0.2999

 Summary of Natural Population Analysis:

                                       Natural Population
                Natural  -----------------------------------------------
    Atom  No    Charge         Core      Valence    Rydberg      Total
 -----------------------------------------------------------------------
      C    1   -0.05314      0.99957     2.04389    0.00968     3.05314
      C    2   -0.12459      0.99956     2.11589    0.00914     3.12459
      C    3    0.02570      0.99959     1.96067    0.01403     2.97430
      N    4   -0.21757      0.99968     2.70671    0.01119     3.71757
      C    5    0.11853      0.99953     1.86705    0.01489     2.88147
      C    6   -0.13068      0.99950     2.12221    0.00897     3.13068
      C    7   -0.20524      0.99959     2.19573    0.00992     3.20524
      C    8   -0.17943      0.99961     2.17122    0.00860     3.17943
      C    9   -0.20346      0.99948     2.19039    0.01358     3.20346
      C   10    0.41978      0.99970     1.55342    0.02710     2.58022
      O   11   -0.30220      0.99986     3.29607    0.00626     4.30220
      O   12   -0.34274      0.99987     3.33585    0.00702     4.34274
      C   13    0.41823      0.99970     1.55601    0.02606     2.58177
      O   14   -0.30308      0.99987     3.29705    0.00616     4.30308
      O   15   -0.34123      0.99987     3.33427    0.00709     4.34123
      H   16    0.09524      0.00000     0.40388    0.00088     0.40476
      H   17    0.09753      0.00000     0.40164    0.00083     0.40247
      H   18    0.08688      0.00000     0.41211    0.00101     0.41312
      H   19    0.10054      0.00000     0.39843    0.00104     0.39946
      H   20    0.11209      0.00000     0.38603    0.00188     0.38791
      H   21    0.10143      0.00000     0.39747    0.00110     0.39857
      H   22    0.10716      0.00000     0.39101    0.00182     0.39284
      H   23    0.10343      0.00000     0.39543    0.00114     0.39657
      H   24    0.13197      0.00000     0.36636    0.00167     0.36803
      H   25    0.24075      0.00000     0.25446    0.00479     0.25925
      H   26    0.24409      0.00000     0.24232    0.01358     0.25591
 =======================================================================
   * Total *    0.00000     14.99499    39.79557    0.20944    55.00000

 Normal termination of Gaussian 16 at Thu Dec 10 15:38:13 2020.
