 Gaussian 16, Revision A.03,

 -----------------------------------------------------------
 # opt freq B3LYP/6-31G(d) empiricaldispersion=gd3bj scf=xqc
 -----------------------------------------------------------

 -------------------------------
 CID_154190734_JID_3978_neutraal
 -------------------------------
 Symbolic Z-matrix:
 Charge =  0 Multiplicity = 1

 SCF Done:  E(RB3LYP) =  -738.875228127     A.U. after   15 cycles
 SCF Done:  E(RB3LYP) =  -738.873708590     A.U. after   16 cycles
 SCF Done:  E(RB3LYP) =  -738.877237734     A.U. after   14 cycles
 SCF Done:  E(RB3LYP) =  -738.878553099     A.U. after   14 cycles
 SCF Done:  E(RB3LYP) =  -738.878655688     A.U. after   14 cycles
 SCF Done:  E(RB3LYP) =  -738.878820513     A.U. after   13 cycles
 SCF Done:  E(RB3LYP) =  -738.878938228     A.U. after   14 cycles
 SCF Done:  E(RB3LYP) =  -738.878962350     A.U. after   13 cycles
 SCF Done:  E(RB3LYP) =  -738.879015170     A.U. after   14 cycles
 SCF Done:  E(RB3LYP) =  -738.879047230     A.U. after   13 cycles
 SCF Done:  E(RB3LYP) =  -738.879097439     A.U. after   13 cycles
 SCF Done:  E(RB3LYP) =  -738.879115379     A.U. after   13 cycles
 SCF Done:  E(RB3LYP) =  -738.879117882     A.U. after   10 cycles
 SCF Done:  E(RB3LYP) =  -738.879119488     A.U. after   11 cycles
 SCF Done:  E(RB3LYP) =  -738.879119563     A.U. after    9 cycles
 SCF Done:  E(RB3LYP) =  -738.879119572     A.U. after    8 cycles
 Optimization completed.
    -- Stationary point found.
 Normal termination of Gaussian 16 at Sun Dec 13 15:58:42 2020.

 --------------------------------------------------------------------
 #N Geom=AllCheck Guess=TCheck SCRF=Check GenChk RB3LYP/6-31G(d) Freq
 --------------------------------------------------------------------

 Structure from the checkpoint file:  "JID_3978.chk"
 -------------------------------
 CID_154190734_JID_3978_neutraal
 -------------------------------
 Charge =  0 Multiplicity = 1

 SCF Done:  E(RB3LYP) =  -738.879119572     A.U. after    1 cycles

  Exact polarizability: 106.663  16.636  88.577   5.909 -12.349  69.437
 Approx polarizability: 128.822  32.587 156.407   6.527 -38.614 132.517

                      1                      2                      3
                      A                      A                      A
 Frequencies --     20.4219                29.5127                36.0592
 Red. masses --     13.1572                 8.8172                11.6219
 Frc consts  --      0.0032                 0.0045                 0.0089
 IR Inten    --      0.6283                 0.1279                 1.4298

                      4                      5                      6
                      A                      A                      A
 Frequencies --     55.6703                96.0254               119.7886
 Red. masses --      8.2130                 6.2697                 5.5250
 Frc consts  --      0.0150                 0.0341                 0.0467
 IR Inten    --      4.1210                 0.3313                 4.3086

                      7                      8                      9
                      A                      A                      A
 Frequencies --    136.0212               176.8137               214.1372
 Red. masses --      3.2929                 3.9180                 8.4056
 Frc consts  --      0.0359                 0.0722                 0.2271
 IR Inten    --      2.1257                 4.9573                 2.1535

                     10                     11                     12
                      A                      A                      A
 Frequencies --    232.0834               361.0222               411.4580
 Red. masses --      6.1178                 2.6351                11.2881
 Frc consts  --      0.1941                 0.2024                 1.1260
 IR Inten    --      1.3747                20.1213                 3.1947

                     13                     14                     15
                      A                      A                      A
 Frequencies --    423.6064               505.2255               541.8210
 Red. masses --      3.0947                 4.3714                 5.0196
 Frc consts  --      0.3272                 0.6574                 0.8682
 IR Inten    --      3.0073                 8.6495                 8.5474

                     16                     17                     18
                      A                      A                      A
 Frequencies --    579.6145               609.4149               616.0573
 Red. masses --      1.4012                 5.0137                 4.2754
 Frc consts  --      0.2774                 1.0971                 0.9560
 IR Inten    --     74.7469                20.7274                71.5071

                     19                     20                     21
                      A                      A                      A
 Frequencies --    657.3489               684.3415               728.5533
 Red. masses --      2.2547                 2.9534                 3.7438
 Frc consts  --      0.5740                 0.8149                 1.1708
 IR Inten    --     30.9013                 0.2027                 2.9095

                     22                     23                     24
                      A                      A                      A
 Frequencies --    782.7269               853.1652               887.1979
 Red. masses --      8.7730                 4.5181                 6.0663
 Frc consts  --      3.1668                 1.9376                 2.8133
 IR Inten    --     49.7979                12.7174                16.0062

                     25                     26                     27
                      A                      A                      A
 Frequencies --    921.9965               926.0693               950.7078
 Red. masses --      2.3167                 4.4491                 2.5431
 Frc consts  --      1.1603                 2.2481                 1.3543
 IR Inten    --      0.0226                 8.6543                 7.7878

                     28                     29                     30
                      A                      A                      A
 Frequencies --   1010.0438              1036.1805              1093.5469
 Red. masses --      2.4182                 1.0882                 4.7070
 Frc consts  --      1.4535                 0.6884                 3.3164
 IR Inten    --      4.4498                31.7377                78.2789

                     31                     32                     33
                      A                      A                      A
 Frequencies --   1130.0849              1196.0100              1251.5195
 Red. masses --      2.2463                 2.0702                 1.2413
 Frc consts  --      1.6902                 1.7448                 1.1455
 IR Inten    --      2.9527               473.6137                16.7876

                     34                     35                     36
                      A                      A                      A
 Frequencies --   1277.5763              1297.6989              1320.5453
 Red. masses --      1.3294                 2.8549                 1.2987
 Frc consts  --      1.2784                 2.8326                 1.3344
 IR Inten    --      3.6320               332.3313                63.5466

                     37                     38                     39
                      A                      A                      A
 Frequencies --   1329.2793              1373.4068              1400.5192
 Red. masses --      1.4380                 1.3152                 2.9302
 Frc consts  --      1.4970                 1.4616                 3.3863
 IR Inten    --      3.1993                 6.5885                47.6406

                     40                     41                     42
                      A                      A                      A
 Frequencies --   1419.8578              1446.2127              1496.5927
 Red. masses --      2.0960                 2.8149                 1.0944
 Frc consts  --      2.4897                 3.4688                 1.4442
 IR Inten    --     34.6619                37.0178                19.4302

                     43                     44                     45
                      A                      A                      A
 Frequencies --   1500.9487              1681.4650              1707.4171
 Red. masses --      1.1312                10.3358                 7.1516
 Frc consts  --      1.5015                17.2174                12.2838
 IR Inten    --     29.1076               221.5805                 0.0630

                     46                     47                     48
                      A                      A                      A
 Frequencies --   1807.1413              1831.4398              3108.9432
 Red. masses --     10.6905                 9.3686                 1.0636
 Frc consts  --     20.5698                18.5144                 6.0568
 IR Inten    --    293.5111               240.0894                 2.9094

                     49                     50                     51
                      A                      A                      A
 Frequencies --   3116.4150              3184.8333              3209.0093
 Red. masses --      1.0633                 1.1062                 1.1021
 Frc consts  --      6.0845                 6.6110                 6.6865
 IR Inten    --     11.6584                 0.8520                 0.8699

                     52                     53                     54
                      A                      A                      A
 Frequencies --   3240.9327              3246.9684              3701.0363
 Red. masses --      1.0968                 1.0868                 1.0643
 Frc consts  --      6.7877                 6.7511                 8.5894
 IR Inten    --      0.0671                 0.5492                79.1694

 - Thermochemistry -
 -------------------
 Temperature   298.150 Kelvin.  Pressure   1.00000 Atm.
 Atom     1 has atomic number  6 and mass  12.00000

 Molecular mass:   189.02734 amu.
 Principal axes and moments of inertia in atomic units:
                           1         2         3
     Eigenvalues --  1368.197115009.783785701.86700
           X            0.99993   0.00888   0.00725
           Y           -0.00888   0.99996   0.00089
           Z           -0.00725  -0.00096   0.99997
 This molecule is an asymmetric top.
 Rotational symmetry number  1.
 Warning -- assumption of classical behavior for rotation
           may cause significant error
 Rotational temperatures (Kelvin)      0.06331     0.01729     0.01519
 Rotational constants (GHZ):           1.31907     0.36024     0.31652
 Zero-point vibrational energy     376659.1 (Joules/Mol)
                                   90.02369 (Kcal/Mol)
 Warning -- explicit consideration of  18 degrees of freedom as
           vibrations may cause significant error
 Vibrational temperatures:     29.38    42.46    51.88    80.10   138.16
          (Kelvin)            172.35   195.70   254.40   308.10   333.92
                              519.43   592.00   609.48   726.91   779.56
                              833.94   876.81   886.37   945.78   984.61
                             1048.23  1126.17  1227.51  1276.48  1326.55
                             1332.41  1367.86  1453.23  1490.83  1573.37
                             1625.94  1720.79  1800.66  1838.15  1867.10
                             1899.97  1912.54  1976.03  2015.03  2042.86
                             2080.78  2153.26  2159.53  2419.25  2456.59
                             2600.07  2635.03  4473.08  4483.83  4582.26
                             4617.05  4662.98  4671.66  5324.97

 Zero-point correction=                           0.143462 (Hartree/Particle)
 Thermal correction to Energy=                    0.156278
 Thermal correction to Enthalpy=                  0.157222
 Thermal correction to Gibbs Free Energy=         0.100292
 Sum of electronic and zero-point Energies=           -738.735658
 Sum of electronic and thermal Energies=              -738.722842
 Sum of electronic and thermal Enthalpies=            -738.721898
 Sum of electronic and thermal Free Energies=         -738.778828

                     E (Thermal)             CV                S
                      KCal/Mol        Cal/Mol-Kelvin    Cal/Mol-Kelvin
 Total                   98.066             43.646            119.819
 Electronic               0.000              0.000              0.000
 Translational            0.889              2.981             41.616
 Rotational               0.889              2.981             32.036
 Vibrational             96.288             37.685             46.168
 Vibration     1          0.593              1.986              6.593
 Vibration     2          0.593              1.984              5.862
 Vibration     3          0.594              1.982              5.465
 Vibration     4          0.596              1.975              4.605
 Vibration     5          0.603              1.952              3.533
 Vibration     6          0.609              1.933              3.104
 Vibration     7          0.614              1.917              2.859
 Vibration     8          0.628              1.871              2.362
 Vibration     9          0.644              1.819              2.008
 Vibration    10          0.653              1.792              1.863
 Vibration    11          0.735              1.553              1.118
 Vibration    12          0.775              1.445              0.921
 Vibration    13          0.786              1.419              0.880
 Vibration    14          0.860              1.238              0.645
 Vibration    15          0.897              1.158              0.561
 Vibration    16          0.936              1.075              0.486
 Vibration    17          0.968              1.012              0.434
 Vibration    18          0.976              0.998              0.423

 Optimization completed.
    -- Stationary point found.
 Normal termination of Gaussian 16 at Sun Dec 13 16:02:28 2020.

 ----------------------------------------------------------------------
 # B3LYP/6-311++G(d,p) empiricaldispersion=gd3bj scf=xqc pop=npa geom=c
 heck
 ----------------------------------------------------------------------

 ---------------------------------------
 CID_154190734_JID_3978_Energie_neutraal
 ---------------------------------------
 Structure from the checkpoint file:  "JID_3978.chk"
 Charge =  0 Multiplicity = 1

 SCF Done:  E(RB3LYP) =  -739.114879435     A.U. after   15 cycles
 Normal termination of Gaussian 16 at Sun Dec 13 16:03:58 2020.

 ----------------------------------------------------------------------
 # B3LYP/6-311++G(d,p) empiricaldispersion=gd3bj scf=xqc pop=npa geom=c
 heck
 ----------------------------------------------------------------------

 -------------------------------------
 CID_154190734_JID_3978_Energie_kation
 -------------------------------------
 Structure from the checkpoint file:  "JID_3978.chk"
 Charge =  1 Multiplicity = 2

 SCF Done:  E(UB3LYP) =  -738.741050812     A.U. after   31 cycles
 Normal termination of Gaussian 16 at Sun Dec 13 16:08:18 2020.
 Gaussian 16:  ES64L-G16RevA.03 25-Dec-2016

 ----------------------------------------------------------------------
 # B3LYP/6-311++G(d,p) empiricaldispersion=gd3bj scf=xqc pop=npa geom=c
 heck
 ----------------------------------------------------------------------

 ------------------------------------
 CID_154190734_JID_3978_Energie_anion
 ------------------------------------
 Structure from the checkpoint file:  "JID_3978.chk"
 Charge = -1 Multiplicity = 2

                         Standard orientation:
 ---------------------------------------------------------------------
 Center     Atomic      Atomic             Coordinates (Angstroms)
 Number     Number       Type             X           Y           Z
 ---------------------------------------------------------------------
      1          6           0        2.868745    0.494092   -0.131359
      2          6           0        1.993259    0.866032    1.050412
      3          8           0        0.623779    0.507206    0.810705
      4          6           0       -0.078655    1.349819    0.011508
      5          8           0        0.388879    2.357757   -0.478440
      6          6           0       -1.475516    0.908793   -0.200202
      7          6           0       -1.985316   -0.223969    0.299472
      8          6           0       -3.383434   -0.663713    0.080211
      9          8           0       -3.847551   -1.680314    0.551177
     10          8           0       -4.098380    0.184404   -0.698611
     11          7           0        2.846307   -0.998185   -0.361018
     12          8           0        3.037161   -1.713738    0.617820
     13          8           0        2.656002   -1.384259   -1.507663
     14          1           0        3.912397    0.748146    0.074456
     15          1           0        2.541776    0.960831   -1.057827
     16          1           0        2.286590    0.303860    1.936006
     17          1           0        2.071230    1.940741    1.230640
     18          1           0       -2.069314    1.578503   -0.812057
     19          1           0       -1.390490   -0.896230    0.907138
     20          1           0       -4.989950   -0.203325   -0.771396
 ---------------------------------------------------------------------

 SCF Done:  E(UB3LYP) =  -739.163468201     A.U. after   25 cycles

 The electronic state is 2-A.
 Alpha  occ. eigenvalues --  -19.03945 -19.03707 -19.02155 -19.02100 -18.96717
 Alpha  occ. eigenvalues --  -18.96613 -14.39683 -10.15460 -10.15193 -10.12676
 Alpha  occ. eigenvalues --  -10.11503 -10.03220 -10.03096  -1.09541  -0.97646
 Alpha  occ. eigenvalues --   -0.97521  -0.92597  -0.88533  -0.88232  -0.71052
 Alpha  occ. eigenvalues --   -0.66044  -0.59787  -0.53827  -0.49531  -0.46241
 Alpha  occ. eigenvalues --   -0.44034  -0.42270  -0.41010  -0.38803  -0.37715
 Alpha  occ. eigenvalues --   -0.36557  -0.35454  -0.34601  -0.32961  -0.32023
 Alpha  occ. eigenvalues --   -0.31849  -0.28834  -0.28126  -0.26840  -0.24314
 Alpha  occ. eigenvalues --   -0.23723  -0.19954  -0.19341  -0.18885  -0.17950
 Alpha  occ. eigenvalues --   -0.16792  -0.15678  -0.15042  -0.13823   0.01385
 Alpha virt. eigenvalues --    0.03562   0.08455   0.08816   0.10707   0.11570
 Alpha virt. eigenvalues --    0.12395   0.13462   0.14246   0.15806   0.16097
 Alpha virt. eigenvalues --    0.16827   0.17205   0.17917   0.17966   0.18758

  Beta  occ. eigenvalues --  -19.03910 -19.03661 -19.01950 -19.01945 -18.96438
  Beta  occ. eigenvalues --  -18.96337 -14.39286 -10.15333 -10.15051 -10.12667
  Beta  occ. eigenvalues --  -10.11519 -10.02985 -10.02847  -1.09012  -0.97439
  Beta  occ. eigenvalues --   -0.97320  -0.92249  -0.88130  -0.87840  -0.70875
  Beta  occ. eigenvalues --   -0.65388  -0.59438  -0.53163  -0.49193  -0.45843
  Beta  occ. eigenvalues --   -0.43749  -0.41184  -0.40763  -0.38530  -0.37487
  Beta  occ. eigenvalues --   -0.36161  -0.35253  -0.33993  -0.32722  -0.31713
  Beta  occ. eigenvalues --   -0.30949  -0.28582  -0.27389  -0.26611  -0.24071
  Beta  occ. eigenvalues --   -0.23585  -0.18965  -0.18250  -0.17983  -0.17740
  Beta  occ. eigenvalues --   -0.16578  -0.15387  -0.13521  -0.13018
  Beta virt. eigenvalues --    0.06194   0.07369   0.08701   0.08859   0.10696
  Beta virt. eigenvalues --    0.11545   0.12395   0.13462   0.14272   0.15953
  Beta virt. eigenvalues --    0.16612   0.17042   0.17924   0.17960   0.18272

 Mulliken charges and spin densities:
               1          2
     1  C   -0.217437  -0.008808
     2  C   -0.245292   0.001245
     3  O    0.017661   0.009460
     4  C   -0.478484   0.127581
     5  O   -0.333446   0.087632
     6  C    0.073735   0.153337
     7  C   -0.162856   0.181957
     8  C   -0.068818   0.105308
     9  O   -0.383052   0.089713
    10  O   -0.226434   0.008445
    11  N   -0.160089   0.119641
    12  O   -0.123619   0.060613
    13  O   -0.104340   0.077957
    14  H    0.152123   0.012120
    15  H    0.235218  -0.000551
    16  H    0.201999  -0.000220
    17  H    0.161691   0.001472
    18  H    0.208409  -0.013552
    19  H    0.195517  -0.013041
    20  H    0.257514  -0.000308
 Sum of Mulliken charges =  -1.00000   1.00000

 Dipole moment (field-independent basis, Debye):
    X=              2.1676    Y=              3.5622    Z=              0.9768  Tot=              4.2828
 Quadrupole moment (field-independent basis, Debye-Ang):
   XX=           -104.1396   YY=           -103.7187   ZZ=            -84.0139
   XY=              3.8957   XZ=              9.2049   YZ=              4.2945

 Summary of Natural Population Analysis:

                                       Natural Population
                Natural  -----------------------------------------------
    Atom  No    Charge         Core      Valence    Rydberg      Total
 -----------------------------------------------------------------------
      C    1   -0.12834      0.99957     2.11972    0.00905     3.12834
      C    2   -0.02551      0.99957     2.01454    0.01140     3.02551
      O    3   -0.28414      0.99986     3.27372    0.01056     4.28414
      C    4    0.40208      0.99967     1.57410    0.02415     2.59792
      O    5   -0.29569      0.99987     3.28985    0.00597     4.29569
      C    6   -0.08260      0.99950     2.07316    0.00994     3.08260
      C    7   -0.07977      0.99949     2.07082    0.00946     3.07977
      C    8    0.39622      0.99970     1.57920    0.02487     2.60378
      O    9   -0.29407      0.99987     3.28644    0.00776     4.29407
      O   10   -0.35318      0.99988     3.34706    0.00624     4.35318
      N   11    0.28508      0.99979     2.18515    0.02998     3.21492
      O   12   -0.20657      0.99989     3.19849    0.00819     4.20657
      O   13   -0.18616      0.99989     3.17806    0.00820     4.18616
      H   14    0.10283      0.00000     0.39598    0.00119     0.39717
      H   15    0.11680      0.00000     0.38180    0.00140     0.38320
      H   16    0.09972      0.00000     0.39888    0.00139     0.40028
      H   17    0.09609      0.00000     0.40247    0.00144     0.40391
      H   18    0.10120      0.00000     0.39764    0.00116     0.39880
      H   19    0.10467      0.00000     0.39432    0.00101     0.39533
      H   20    0.23131      0.00000     0.26547    0.00321     0.26869
 =======================================================================
   * Total *   -0.00000     12.99656    35.82688    0.17656    49.00000

 Normal termination of Gaussian 16 at Sun Dec 13 16:11:53 2020.
