 Gaussian 16, Revision A.03,

 -----------------------------------------------------------
 # opt freq B3LYP/6-31G(d) empiricaldispersion=gd3bj scf=xqc
 -----------------------------------------------------------

 ------------------------------
 CID_59010168_JID_3706_neutraal
 ------------------------------
 Symbolic Z-matrix:
 Charge =  0 Multiplicity = 1

 SCF Done:  E(RB3LYP) =  -567.995531461     A.U. after   15 cycles
 SCF Done:  E(RB3LYP) =  -567.998108043     A.U. after   12 cycles
 SCF Done:  E(RB3LYP) =  -567.998251402     A.U. after   11 cycles
 SCF Done:  E(RB3LYP) =  -567.998312873     A.U. after   11 cycles
 SCF Done:  E(RB3LYP) =  -567.998329200     A.U. after    9 cycles
 SCF Done:  E(RB3LYP) =  -567.998332350     A.U. after    8 cycles
 SCF Done:  E(RB3LYP) =  -567.998333391     A.U. after    8 cycles
 SCF Done:  E(RB3LYP) =  -567.998334910     A.U. after    8 cycles
 SCF Done:  E(RB3LYP) =  -567.998340840     A.U. after   10 cycles
 SCF Done:  E(RB3LYP) =  -567.998348554     A.U. after   10 cycles
 SCF Done:  E(RB3LYP) =  -567.998404941     A.U. after    9 cycles
 SCF Done:  E(RB3LYP) =  -567.998405253     A.U. after    8 cycles
 SCF Done:  E(RB3LYP) =  -567.998405409     A.U. after    8 cycles
 SCF Done:  E(RB3LYP) =  -567.998405499     A.U. after    7 cycles
 SCF Done:  E(RB3LYP) =  -567.998405521     A.U. after    6 cycles
 Optimization completed.
    -- Stationary point found.

 1\1\GINC-NODE355\FOpt\RB3LYP\6-31G(d)\C9H10N4\VSC10255\13-Dec-2020\0\\
 # opt freq B3LYP/6-31G(d) empiricaldispersion=gd3bj scf=xqc\\CID_59010
 168_JID_3706_neutraal\\0,1\C,2.4991813946,-0.0045225992,-0.038035143\C
 ,0.9946331481,0.0870548189,0.0185403116\C,0.2143295633,-1.0262286351,0
 .3515723802\C,-1.1761173512,-0.9584231374,0.3789004031\C,-1.8005477166
 ,0.2491553518,0.0688082594\C,-1.0516530865,1.3799097169,-0.2638415636\
 C,0.3356929612,1.2864898231,-0.2840674179\N,-3.218988877,0.3303826385,
 0.0968054768\N,-4.0107660831,-0.7018895729,0.4053501878\C,-5.220929527

 Normal termination of Gaussian 16 at Sun Dec 13 12:23:24 2020.

 --------------------------------------------------------------------
 #N Geom=AllCheck Guess=TCheck SCRF=Check GenChk RB3LYP/6-31G(d) Freq
 --------------------------------------------------------------------

 Structure from the checkpoint file:  "JID_3706.chk"
 ------------------------------
 CID_59010168_JID_3706_neutraal
 ------------------------------
 Charge =  0 Multiplicity = 1

 SCF Done:  E(RB3LYP) =  -567.998405521     A.U. after    1 cycles

  Exact polarizability: 198.117   0.568 112.462  -0.491   0.004  53.301
 Approx polarizability: 271.848   8.478 208.277  -0.552   0.054  81.753

                      1                      2                      3
                      A                      A                      A
 Frequencies --     26.8310                32.4301                43.7302
 Red. masses --      1.0977                 3.0826                 1.0873
 Frc consts  --      0.0005                 0.0019                 0.0012
 IR Inten    --      0.5279                 0.7899                 0.6051

                      4                      5                      6
                      A                      A                      A
 Frequencies --     71.7807               126.8460               168.4617
 Red. masses --      4.6354                 3.9726                 4.3502
 Frc consts  --      0.0141                 0.0377                 0.0727
 IR Inten    --      0.0108                 1.0883                 0.0356

                      7                      8                      9
                      A                      A                      A
 Frequencies --    282.2698               286.4767               326.4622
 Red. masses --      3.9558                 3.4427                 5.2110
 Frc consts  --      0.1857                 0.1665                 0.3272
 IR Inten    --      2.5290                 0.9338                 2.5327

                     10                     11                     12
                      A                      A                      A
 Frequencies --    365.7710               369.1682               416.5955
 Red. masses --      4.6253                 3.0555                 3.1060
 Frc consts  --      0.3646                 0.2453                 0.3176
 IR Inten    --      1.1715                 1.8353                 0.0112

                     13                     14                     15
                      A                      A                      A
 Frequencies --    500.6987               524.1609               616.4899
 Red. masses --      5.2085                 2.7761                 4.9159
 Frc consts  --      0.7693                 0.4494                 1.1008
 IR Inten    --      0.2304                 8.1705                 4.0347

                     16                     17                     18
                      A                      A                      A
 Frequencies --    654.2556               701.5700               717.1169
 Red. masses --      6.9162                10.9467                 3.5628
 Frc consts  --      1.7443                 3.1745                 1.0795
 IR Inten    --      0.0840                 5.4632                 0.3731

                     19                     20                     21
                      A                      A                      A
 Frequencies --    722.7604               728.2516               822.5797
 Red. masses --      5.7482                 4.7739                 4.9512
 Frc consts  --      1.7692                 1.4917                 1.9739
 IR Inten    --      1.6568                12.5988                 5.6375

                     22                     23                     24
                      A                      A                      A
 Frequencies --    842.9960               852.9093               972.1651
 Red. masses --      1.4507                 1.2494                 1.3192
 Frc consts  --      0.6074                 0.5355                 0.7346
 IR Inten    --     36.2557                 0.0557                 0.5330

                     25                     26                     27
                      A                      A                      A
 Frequencies --    975.5594              1003.8091              1021.2861
 Red. masses --      1.2883                 2.3734                 1.4071
 Frc consts  --      0.7224                 1.4091                 0.8647
 IR Inten    --      1.9526                50.8701                 0.2946

                     28                     29                     30
                      A                      A                      A
 Frequencies --   1037.8254              1043.7768              1076.0771
 Red. masses --      3.5436                 3.0843                 1.5314
 Frc consts  --      2.2488                 1.9798                 1.0448
 IR Inten    --     21.0022                14.3236                13.0617

                     31                     32                     33
                      A                      A                      A
 Frequencies --   1083.9874              1084.8326              1129.4876
 Red. masses --      1.5201                 5.5426                 5.9867
 Frc consts  --      1.0523                 3.8432                 4.4999
 IR Inten    --      3.4846                 1.5532                22.8399

                     34                     35                     36
                      A                      A                      A
 Frequencies --   1149.0089              1205.1467              1217.7553
 Red. masses --      1.3727                 3.5030                 1.3235
 Frc consts  --      1.0678                 2.9976                 1.1564
 IR Inten    --      7.4411                10.1224                15.2570

                     37                     38                     39
                      A                      A                      A
 Frequencies --   1245.7923              1276.6451              1351.8833
 Red. masses --      3.0182                 8.6280                 1.4359
 Frc consts  --      2.7599                 8.2851                 1.5461
 IR Inten    --      0.5126                60.7158                 0.0266

                     40                     41                     42
                      A                      A                      A
 Frequencies --   1360.6751              1407.0423              1420.1016
 Red. masses --      6.3322                 3.4625                 3.8281
 Frc consts  --      6.9074                 4.0388                 4.5485
 IR Inten    --      2.2705                13.4380                 6.1652

                     43                     44                     45
                      A                      A                      A
 Frequencies --   1443.6987              1444.5281              1472.1680
 Red. masses --      1.2619                 1.6530                 2.6669
 Frc consts  --      1.5496                 2.0322                 3.4054
 IR Inten    --      0.4219                 5.2331                 8.3991

                     46                     47                     48
                      A                      A                      A
 Frequencies --   1507.7592              1511.3794              1517.5257
 Red. masses --      1.0430                 1.3008                 1.0507
 Frc consts  --      1.3970                 1.7507                 1.4256
 IR Inten    --      6.8419                23.3472                 5.9918

                     49                     50                     51
                      A                      A                      A
 Frequencies --   1524.7321              1560.4039              1572.9769
 Red. masses --      1.1405                 3.0072                 3.5471
 Frc consts  --      1.5621                 4.3141                 5.1709
 IR Inten    --     13.6032                 6.5805               115.4872

                     52                     53                     54
                      A                      A                      A
 Frequencies --   1649.6265              1674.0884              3044.3461
 Red. masses --      6.7331                 5.8130                 1.0404
 Frc consts  --     10.7953                 9.5985                 5.6814
 IR Inten    --      0.5129                 0.3063                31.4284

                     55                     56                     57
                      A                      A                      A
 Frequencies --   3068.8665              3102.0374              3126.9159
 Red. masses --      1.0369                 1.0959                 1.1016
 Frc consts  --      5.7538                 6.2133                 6.3459
 IR Inten    --     14.6553                19.7317                 8.5733

                     58                     59                     60
                      A                      A                      A
 Frequencies --   3129.7063              3163.0050              3190.3534
 Red. masses --      1.1027                 1.1022                 1.0899
 Frc consts  --      6.3639                 6.4970                 6.5360
 IR Inten    --     14.9599                 5.8404                17.9467

                     61                     62                     63
                      A                      A                      A
 Frequencies --   3191.5494              3244.6034              3244.8262
 Red. masses --      1.0901                 1.0929                 1.0924
 Frc consts  --      6.5419                 6.7791                 6.7764
 IR Inten    --     15.2445                 0.0050                 0.2242

 - Thermochemistry -
 -------------------
 Temperature   298.150 Kelvin.  Pressure   1.00000 Atm.
 Atom     1 has atomic number  6 and mass  12.00000

 Molecular mass:   174.09055 amu.
 Principal axes and moments of inertia in atomic units:
                           1         2         3
     Eigenvalues --   595.074794595.145845167.72295
           X            0.99995  -0.01014  -0.00020
           Y            0.01014   0.99995  -0.00013
           Z            0.00020   0.00012   1.00000
 This molecule is an asymmetric top.
 Rotational symmetry number  1.
 Warning -- assumption of classical behavior for rotation
           may cause significant error
 Rotational temperatures (Kelvin)      0.14555     0.01885     0.01676
 Rotational constants (GHZ):           3.03280     0.39275     0.34923
 Zero-point vibrational energy     482385.5 (Joules/Mol)
                                  115.29291 (Kcal/Mol)
 Warning -- explicit consideration of  15 degrees of freedom as
           vibrations may cause significant error
 Vibrational temperatures:     38.60    46.66    62.92   103.28   182.50
          (Kelvin)            242.38   406.12   412.18   469.71   526.26
                              531.15   599.39   720.39   754.15   886.99
                              941.33  1009.40  1031.77  1039.89  1047.79
                             1183.51  1212.88  1227.15  1398.73  1403.61
                             1444.26  1469.40  1493.20  1501.76  1548.23
                             1559.62  1560.83  1625.08  1653.17  1733.94
                             1752.08  1792.42  1836.81  1945.06  1957.71
                             2024.42  2043.21  2077.16  2078.35  2118.12
                             2169.33  2174.54  2183.38  2193.75  2245.07
                             2263.16  2373.44  2408.64  4380.14  4415.41
                             4463.14  4498.93  4502.95  4550.86  4590.21
                             4591.93  4668.26  4668.58

 Zero-point correction=                           0.183731 (Hartree/Particle)
 Thermal correction to Energy=                    0.195319
 Thermal correction to Enthalpy=                  0.196263
 Thermal correction to Gibbs Free Energy=         0.143503
 Sum of electronic and zero-point Energies=           -567.814675
 Sum of electronic and thermal Energies=              -567.803087
 Sum of electronic and thermal Enthalpies=            -567.802142
 Sum of electronic and thermal Free Energies=         -567.854902

                     E (Thermal)             CV                S
                      KCal/Mol        Cal/Mol-Kelvin    Cal/Mol-Kelvin
 Total                  122.564             42.062            111.042
 Electronic               0.000              0.000              0.000
 Translational            0.889              2.981             41.371
 Rotational               0.889              2.981             31.025
 Vibrational            120.787             36.100             38.646
 Vibration     1          0.593              1.984              6.051
 Vibration     2          0.594              1.983              5.675
 Vibration     3          0.595              1.980              5.083
 Vibration     4          0.598              1.967              4.104
 Vibration     5          0.611              1.926              2.993
 Vibration     6          0.625              1.881              2.453
 Vibration     7          0.681              1.706              1.520
 Vibration     8          0.684              1.699              1.495
 Vibration     9          0.710              1.623              1.278
 Vibration    10          0.739              1.543              1.097
 Vibration    11          0.741              1.536              1.083
 Vibration    12          0.780              1.434              0.904
 Vibration    13          0.856              1.248              0.656
 Vibration    14          0.879              1.197              0.600
 Vibration    15          0.976              0.997              0.422

                           ! Non-Optimized Parameters !

 1\1\GINC-NODE355\Freq\RB3LYP\6-31G(d)\C9H10N4\VSC10255\13-Dec-2020\0\\
 #N Geom=AllCheck Guess=TCheck SCRF=Check GenChk RB3LYP/6-31G(d) Freq\\
 CID_59010168_JID_3706_neutraal\\0,1\C,2.4991813946,-0.0045225992,-0.03
 8035143\C,0.9946331481,0.0870548189,0.0185403116\C,0.2143295633,-1.026
 2286351,0.3515723802\C,-1.1761173512,-0.9584231374,0.3789004031\C,-1.8
 005477166,0.2491553518,0.0688082594\C,-1.0516530865,1.3799097169,-0.26
 38415636\C,0.3356929612,1.2864898231,-0.2840674179\N,-3.218988877,0.33
 03826385,0.0968054768\N,-4.0107660831,-0.7018895729,0.4053501878\C,-5.

 Normal termination of Gaussian 16 at Sun Dec 13 12:27:55 2020.

 ----------------------------------------------------------------------
 # B3LYP/6-311++G(d,p) empiricaldispersion=gd3bj scf=xqc pop=npa geom=c
 heck
 ----------------------------------------------------------------------

 --------------------------------------
 CID_59010168_JID_3706_Energie_neutraal
 --------------------------------------
 Structure from the checkpoint file:  "JID_3706.chk"
 Charge =  0 Multiplicity = 1

 SCF Done:  E(RB3LYP) =  -568.143026878     A.U. after   14 cycles
 Normal termination of Gaussian 16 at Sun Dec 13 12:29:25 2020.

 ----------------------------------------------------------------------
 # B3LYP/6-311++G(d,p) empiricaldispersion=gd3bj scf=xqc pop=npa geom=c
 heck
 ----------------------------------------------------------------------

 ------------------------------------
 CID_59010168_JID_3706_Energie_kation
 ------------------------------------
 Structure from the checkpoint file:  "JID_3706.chk"
 Charge =  1 Multiplicity = 2

 SCF Done:  E(UB3LYP) =  -567.832534942     A.U. after   23 cycles
 Normal termination of Gaussian 16 at Sun Dec 13 12:32:41 2020.
 Gaussian 16:  ES64L-G16RevA.03 25-Dec-2016

 -----------------------------------
 CID_59010168_JID_3706_Energie_anion
 -----------------------------------
 Structure from the checkpoint file:  "JID_3706.chk"
 Charge = -1 Multiplicity = 2

                         Standard orientation:
 ---------------------------------------------------------------------
 Center     Atomic      Atomic             Coordinates (Angstroms)
 Number     Number       Type             X           Y           Z
 ---------------------------------------------------------------------
      1          6           0       -4.643565   -0.280900    0.017228
      2          6           0       -3.141227   -0.148369   -0.008657
      3          6           0       -2.315430   -1.278519   -0.010523
      4          6           0       -0.927644   -1.165759   -0.005964
      5          6           0       -0.352339    0.104408   -0.001754
      6          6           0       -1.147254    1.252541   -0.003739
      7          6           0       -2.530897    1.113342   -0.008321
      8          7           0        1.063048    0.231037   -0.000380
      9          7           0        1.896902   -0.814135    0.000525
     10          6           0        3.085219   -0.216611    0.002645
     11          7           0        2.972311    1.140920    0.003074
     12          7           0        1.691717    1.410528    0.001171
     13          6           0        4.385657   -0.943974    0.004253
     14          1           0       -4.966224   -1.249308   -0.377673
     15          1           0       -5.030004   -0.198906    1.041596
     16          1           0       -5.124546    0.505252   -0.574303
     17          1           0       -2.764031   -2.268331   -0.016994
     18          1           0       -0.290981   -2.041835   -0.009497
     19          1           0       -0.680445    2.229802   -0.005582
     20          1           0       -3.150153    2.006494   -0.013217
     21          1           0        4.211906   -2.021954    0.005824
     22          1           0        4.976119   -0.679729   -0.879105
     23          1           0        4.975406   -0.676891    0.887206
 ---------------------------------------------------------------------

 SCF Done:  E(UB3LYP) =  -568.146926850     A.U. after   33 cycles
 SCF Done:  E(UB3LYP) =  -568.146926850     a.u. after    1 cycles

 The electronic state is 2-A.
 Alpha  occ. eigenvalues --  -14.25969 -14.19105 -14.17785 -14.16694 -10.07313
 Alpha  occ. eigenvalues --  -10.05786 -10.05567 -10.05095 -10.03368 -10.03345
 Alpha  occ. eigenvalues --  -10.02846 -10.02672 -10.02640  -0.97299  -0.78423
 Alpha  occ. eigenvalues --   -0.74084  -0.70846  -0.64203  -0.61047  -0.60308
 Alpha  occ. eigenvalues --   -0.56336  -0.50260  -0.48120  -0.44624  -0.43915
 Alpha  occ. eigenvalues --   -0.39772  -0.34543  -0.33354  -0.32830  -0.31101
 Alpha  occ. eigenvalues --   -0.30283  -0.29777  -0.29192  -0.28542  -0.27790
 Alpha  occ. eigenvalues --   -0.26317  -0.22820  -0.22384  -0.21567  -0.20618
 Alpha  occ. eigenvalues --   -0.17125  -0.14705  -0.14660  -0.12597  -0.11965
 Alpha  occ. eigenvalues --   -0.08914   0.05479
 Alpha virt. eigenvalues --    0.08041   0.08809   0.10192   0.10773   0.11054
 Alpha virt. eigenvalues --    0.11848   0.12354   0.12455   0.13537   0.13822
 Alpha virt. eigenvalues --    0.15473   0.15562   0.16082   0.16720   0.17707

  Beta  occ. eigenvalues --  -14.25874 -14.18474 -14.17459 -14.16554 -10.07337
  Beta  occ. eigenvalues --  -10.05567 -10.05549 -10.05122 -10.03424 -10.03390
  Beta  occ. eigenvalues --  -10.02578 -10.02537 -10.02518  -0.96789  -0.77814
  Beta  occ. eigenvalues --   -0.73550  -0.70534  -0.63860  -0.60876  -0.60153
  Beta  occ. eigenvalues --   -0.56029  -0.49848  -0.47900  -0.44479  -0.43511
  Beta  occ. eigenvalues --   -0.39605  -0.33449  -0.33136  -0.32688  -0.30946
  Beta  occ. eigenvalues --   -0.29956  -0.29412  -0.29092  -0.28489  -0.27715
  Beta  occ. eigenvalues --   -0.26252  -0.22237  -0.21930  -0.21135  -0.20411
  Beta  occ. eigenvalues --   -0.15659  -0.14222  -0.12715  -0.12082  -0.11353
  Beta  occ. eigenvalues --   -0.07492
  Beta virt. eigenvalues --    0.07964   0.08788   0.10067   0.10540   0.10764
  Beta virt. eigenvalues --    0.11983   0.12063   0.12356   0.12489   0.13466
  Beta virt. eigenvalues --    0.13751   0.15476   0.15924   0.16674   0.17420

 Mulliken charges and spin densities:
               1          2
     1  C   -0.513621  -0.054750
     2  C    0.720575   0.124487
     3  C   -0.483757   0.008266
     4  C   -0.111193   0.157886
     5  C   -0.598425  -0.029194
     6  C   -0.353365   0.189140
     7  C   -0.205778   0.007135
     8  N    0.001441  -0.007043
     9  N    0.007740   0.180049
    10  C   -0.040869  -0.021751
    11  N   -0.070926   0.059275
    12  N   -0.137936   0.309652
    13  C   -0.544516   0.003273
    14  H    0.122243  -0.000045
    15  H    0.056176   0.085533
    16  H    0.114741   0.004694
    17  H    0.105036   0.001723
    18  H    0.197713  -0.007803
    19  H    0.196370  -0.009015
    20  H    0.122576   0.001847
    21  H    0.135757  -0.000058
    22  H    0.139896  -0.001639
    23  H    0.140123  -0.001664
 Sum of Mulliken charges =  -1.00000   1.00000

 Dipole moment (field-independent basis, Debye):
    X=             -1.7831    Y=             -2.4535    Z=             -0.2210  Tot=              3.0410
 Quadrupole moment (field-independent basis, Debye-Ang):
   XX=           -113.9424   YY=            -91.5338   ZZ=            -85.8920
   XY=             -9.0083   XZ=              1.2804   YZ=              0.0340

 Summary of Natural Population Analysis:

                                       Natural Population
                Natural  -----------------------------------------------
    Atom  No    Charge         Core      Valence    Rydberg      Total
 -----------------------------------------------------------------------
      C    1   -0.29030      0.99965     2.28643    0.00422     3.29030
      C    2    0.01993      0.99952     1.97117    0.00938     2.98007
      C    3   -0.11631      0.99953     2.10776    0.00902     3.11631
      C    4   -0.08806      0.99954     2.07856    0.00996     3.08806
      C    5    0.10297      0.99946     1.88518    0.01239     2.89703
      C    6   -0.08428      0.99954     2.07420    0.01053     3.08428
      C    7   -0.11752      0.99953     2.10905    0.00893     3.11752
      N    8   -0.00931      0.99965     2.49267    0.01699     3.50931
      N    9   -0.12554      0.99968     2.61479    0.01107     3.62554
      C   10    0.13426      0.99970     1.84804    0.01799     2.86574
      N   11   -0.16239      0.99971     2.64708    0.01559     3.66239
      N   12    0.04597      0.99977     2.43895    0.01531     3.45403
      C   13   -0.30056      0.99963     2.29615    0.00478     3.30056
      H   14    0.09534      0.00000     0.40382    0.00084     0.40466
      H   15    0.09907      0.00000     0.39937    0.00155     0.40093
      H   16    0.09629      0.00000     0.40284    0.00086     0.40371
      H   17    0.08951      0.00000     0.40961    0.00088     0.41049
      H   18    0.10835      0.00000     0.39074    0.00091     0.39165
      H   19    0.10989      0.00000     0.38912    0.00100     0.39011
      H   20    0.08996      0.00000     0.40917    0.00087     0.41004
      H   21    0.10310      0.00000     0.39601    0.00089     0.39690
      H   22    0.09979      0.00000     0.39916    0.00105     0.40021
      H   23    0.09983      0.00000     0.39911    0.00105     0.40017
 =======================================================================
   * Total *   -0.00000     12.99494    32.84898    0.15608    46.00000

 Normal termination of Gaussian 16 at Sun Dec 13 12:37:20 2020.
