 Gaussian 16, Revision A.03,

 -----------------------------------------------------------
 # opt freq B3LYP/6-31G(d) empiricaldispersion=gd3bj scf=xqc
 -----------------------------------------------------------

 ------------------------------
 CID_148008788_JID_155_neutraal
 ------------------------------
 Symbolic Z-matrix:
 Charge =  0 Multiplicity = 1

 SCF Done:  E(RB3LYP) =  -406.716236578     A.U. after   13 cycles
 SCF Done:  E(RB3LYP) =  -406.718642113     A.U. after   11 cycles
 SCF Done:  E(RB3LYP) =  -406.718870191     A.U. after   10 cycles
 SCF Done:  E(RB3LYP) =  -406.718938810     A.U. after   10 cycles
 SCF Done:  E(RB3LYP) =  -406.718964793     A.U. after    9 cycles
 SCF Done:  E(RB3LYP) =  -406.718992112     A.U. after   10 cycles
 SCF Done:  E(RB3LYP) =  -406.719003064     A.U. after    9 cycles
 SCF Done:  E(RB3LYP) =  -406.719008004     A.U. after    8 cycles
 SCF Done:  E(RB3LYP) =  -406.719008492     A.U. after    7 cycles
 Optimization completed.
    -- Stationary point found.

 1\1\GINC-NODE206\FOpt\RB3LYP\6-31G(d)\C9H15N1\VSC10255\08-Dec-2020\0\\
 # opt freq B3LYP/6-31G(d) empiricaldispersion=gd3bj scf=xqc\\CID_14800
 8788_JID_155_neutraal\\0,1\C,-0.917726496,-1.3317435232,0.2948193137\C
 ,0.5371508062,-1.7992758089,0.1121832374\C,1.6030732205,-0.9274613193,
 0.7924991689\C,1.7238099523,0.5036518301,0.2480504031\C,0.4893103526,1
 .3988691306,0.4559104558\C,-0.6803283949,1.0746445328,-0.4445486056\C,
 -1.2914651583,-0.1113750958,-0.5145168808\N,1.3326578699,-0.8731848486
 ,2.2343918495\C,1.8082855235,-2.0041908124,3.0227192137\C,2.4899856136

 Normal termination of Gaussian 16 at Tue Dec  8 10:17:52 2020.

 --------------------------------------------------------------------
 #N Geom=AllCheck Guess=TCheck SCRF=Check GenChk RB3LYP/6-31G(d) Freq
 --------------------------------------------------------------------

 Structure from the checkpoint file:  "JID_155.chk"
 ------------------------------
 CID_148008788_JID_155_neutraal
 ------------------------------
 Charge =  0 Multiplicity = 1

 SCF Done:  E(RB3LYP) =  -406.719008492     A.U. after    1 cycles

  Exact polarizability: 104.721   0.000 103.640  -1.166  -0.000  75.608
 Approx polarizability: 131.995   0.000 156.299  -1.704   0.000 114.464

                      1                      2                      3
                      A                      A                      A
 Frequencies --     74.6521                96.7881               156.9186
 Red. masses --      2.9989                 3.0405                 2.4446
 Frc consts  --      0.0098                 0.0168                 0.0355
 IR Inten    --      0.3522                 0.9423                 0.8344

                      4                      5                      6
                      A                      A                      A
 Frequencies --    197.2875               255.5205               279.3385
 Red. masses --      2.2589                 2.1429                 3.5460
 Frc consts  --      0.0518                 0.0824                 0.1630
 IR Inten    --      0.2937                 0.0041                 0.5533

                      7                      8                      9
                      A                      A                      A
 Frequencies --    308.3524               363.3285               415.3833
 Red. masses --      2.7207                 2.3136                 1.9586
 Frc consts  --      0.1524                 0.1799                 0.1991
 IR Inten    --      0.4557                 2.2473                 1.7814

                     10                     11                     12
                      A                      A                      A
 Frequencies --    476.5386               523.6786               610.6557
 Red. masses --      2.3739                 3.4152                 2.4469
 Frc consts  --      0.3176                 0.5518                 0.5376
 IR Inten    --      0.0029                 0.7425                 5.0642

                     13                     14                     15
                      A                      A                      A
 Frequencies --    661.5835               706.1146               778.1322
 Red. masses --      2.0084                 1.5629                 1.5720
 Frc consts  --      0.5179                 0.4591                 0.5608
 IR Inten    --      0.5261                28.7900                 4.9523

                     16                     17                     18
                      A                      A                      A
 Frequencies --    785.7184               855.3868               855.8509
 Red. masses --      2.3119                 1.4389                 2.2989
 Frc consts  --      0.8409                 0.6203                 0.9921
 IR Inten    --      4.2829                 0.3832                 1.7065

                     19                     20                     21
                      A                      A                      A
 Frequencies --    898.7905               907.4484               924.2612
 Red. masses --      2.9723                 2.2061                 6.3259
 Frc consts  --      1.4147                 1.0703                 3.1839
 IR Inten    --      3.3484                 0.0365                 0.8723

                     22                     23                     24
                      A                      A                      A
 Frequencies --    970.4218               987.3764               994.5505
 Red. masses --      2.3248                 1.2752                 2.2451
 Frc consts  --      1.2899                 0.7325                 1.3084
 IR Inten    --     24.0546                 0.0501                20.6296

                     25                     26                     27
                      A                      A                      A
 Frequencies --   1016.8087              1036.6143              1073.4732
 Red. masses --      1.8876                 1.1553                 2.3962
 Frc consts  --      1.1498                 0.7314                 1.6269
 IR Inten    --      0.4579                 0.0044                 4.1035

                     28                     29                     30
                      A                      A                      A
 Frequencies --   1076.6078              1089.9802              1117.5951
 Red. masses --      1.8399                 1.7321                 1.4102
 Frc consts  --      1.2565                 1.2124                 1.0377
 IR Inten    --      0.4677                12.4828                 1.7882

                     31                     32                     33
                      A                      A                      A
 Frequencies --   1118.2511              1145.3881              1177.6462
 Red. masses --      1.3211                 1.8893                 1.3303
 Frc consts  --      0.9733                 1.4604                 1.0870
 IR Inten    --      1.4826                 0.3873                 8.8159

                     34                     35                     36
                      A                      A                      A
 Frequencies --   1183.7021              1232.6859              1242.6681
 Red. masses --      1.3886                 1.1182                 1.4514
 Frc consts  --      1.1463                 1.0011                 1.3205
 IR Inten    --      0.2383                 1.0486                 4.8764

                     37                     38                     39
                      A                      A                      A
 Frequencies --   1262.1569              1274.6161              1309.0866
 Red. masses --      1.3147                 1.1364                 1.3313
 Frc consts  --      1.2340                 1.0878                 1.3442
 IR Inten    --     13.5685                 1.6933                 4.6286

                     40                     41                     42
                      A                      A                      A
 Frequencies --   1331.7849              1366.8745              1371.2014
 Red. masses --      2.1170                 1.4576                 1.4502
 Frc consts  --      2.2122                 1.6045                 1.6065
 IR Inten    --     31.3077                 8.4031                 1.7331

                     43                     44                     45
                      A                      A                      A
 Frequencies --   1387.3195              1410.8483              1417.9316
 Red. masses --      1.3808                 1.4412                 1.4048
 Frc consts  --      1.5658                 1.6902                 1.6641
 IR Inten    --      0.2443                 0.9306                36.1809

                     46                     47                     48
                      A                      A                      A
 Frequencies --   1421.6530              1442.9367              1504.8505
 Red. masses --      1.4138                 1.4422                 1.0879
 Frc consts  --      1.6836                 1.7692                 1.4516
 IR Inten    --     16.8523                 0.1150                 3.1070

                     49                     50                     51
                      A                      A                      A
 Frequencies --   1512.8115              1515.1197              1516.6496
 Red. masses --      1.1099                 1.0935                 1.0796
 Frc consts  --      1.4965                 1.4790                 1.4631
 IR Inten    --      3.0472                 6.1258                 0.5249

                     52                     53                     54
                      A                      A                      A
 Frequencies --   1521.4244              1547.6323              1740.7761
 Red. masses --      1.0934                 1.2601                 6.5456
 Frc consts  --      1.4912                 1.7783                11.6865
 IR Inten    --      6.7873                 7.5815                 2.5241

                     55                     56                     57
                      A                      A                      A
 Frequencies --   2906.1040              3034.6801              3037.0830
 Red. masses --      1.0818                 1.0618                 1.0636
 Frc consts  --      5.3830                 5.7615                 5.7804
 IR Inten    --     66.6406                21.9691                51.2482

                     58                     59                     60
                      A                      A                      A
 Frequencies --   3045.1053              3046.0091              3076.8081
 Red. masses --      1.0629                 1.0623                 1.0997
 Frc consts  --      5.8069                 5.8072                 6.1340
 IR Inten    --      2.5259                34.7596                36.9869

                     61                     62                     63
                      A                      A                      A
 Frequencies --   3080.5117              3084.8546              3086.9794
 Red. masses --      1.0992                 1.1014                 1.1012
 Frc consts  --      6.1459                 6.1756                 6.1828
 IR Inten    --     26.7649                31.0550                50.2436

                     64                     65                     66
                      A                      A                      A
 Frequencies --   3105.6191              3109.8384              3143.6002
 Red. masses --      1.0499                 1.0586                 1.0845
 Frc consts  --      5.9662                 6.0322                 6.3144
 IR Inten    --     28.4849                30.8231                13.5550

                     67                     68                     69
                      A                      A                      A
 Frequencies --   3168.1355              3188.8646              3201.8471
 Red. masses --      1.0961                 1.1165                 1.1167
 Frc consts  --      6.4819                 6.6894                 6.7450
 IR Inten    --     59.3274                 2.7875                40.7615

 - Thermochemistry -
 -------------------
 Temperature   298.150 Kelvin.  Pressure   1.00000 Atm.
 Atom     1 has atomic number  6 and mass  12.00000

 Molecular mass:   137.12045 amu.
 Principal axes and moments of inertia in atomic units:
                           1         2         3
     Eigenvalues --   769.180551771.197162148.56951
           X            1.00000   0.00000   0.00223
           Y           -0.00000   1.00000  -0.00000
           Z           -0.00223   0.00000   1.00000
 This molecule is an asymmetric top.
 Rotational symmetry number  1.
 Warning -- assumption of classical behavior for rotation
           may cause significant error
 Rotational temperatures (Kelvin)      0.11261     0.04890     0.04031
 Rotational constants (GHZ):           2.34632     1.01894     0.83997
 Zero-point vibrational energy     596740.4 (Joules/Mol)
                                  142.62439 (Kcal/Mol)
 Warning -- explicit consideration of  12 degrees of freedom as
           vibrations may cause significant error
 Vibrational temperatures:    107.41   139.26   225.77   283.85   367.64
          (Kelvin)            401.91   443.65   522.75   597.64   685.63
                              753.46   878.60   951.87  1015.94  1119.56
                             1130.47  1230.71  1231.38  1293.16  1305.62
                             1329.81  1396.22  1420.61  1430.94  1462.96
                             1491.46  1544.49  1549.00  1568.24  1607.97
                             1608.91  1647.96  1694.37  1703.08  1773.56
                             1787.92  1815.96  1833.89  1883.48  1916.14
                             1966.63  1972.85  1996.04  2029.90  2040.09
                             2045.44  2076.06  2165.14  2176.60  2179.92
                             2182.12  2188.99  2226.70  2504.59  4181.24
                             4366.23  4369.69  4381.23  4382.53  4426.84
                             4432.17  4438.42  4441.47  4468.29  4474.36
                             4522.94  4558.24  4588.06  4606.74

 Zero-point correction=                           0.227286 (Hartree/Particle)
 Thermal correction to Energy=                    0.236635
 Thermal correction to Enthalpy=                  0.237579
 Thermal correction to Gibbs Free Energy=         0.192956
 Sum of electronic and zero-point Energies=           -406.491722
 Sum of electronic and thermal Energies=              -406.482373
 Sum of electronic and thermal Enthalpies=            -406.481429
 Sum of electronic and thermal Free Energies=         -406.526053

                     E (Thermal)             CV                S
                      KCal/Mol        Cal/Mol-Kelvin    Cal/Mol-Kelvin
 Total                  148.491             37.048             93.919
 Electronic               0.000              0.000              0.000
 Translational            0.889              2.981             40.659
 Rotational               0.889              2.981             29.461
 Vibrational            146.713             31.087             23.799
 Vibration     1          0.599              1.966              4.027
 Vibration     2          0.603              1.951              3.518
 Vibration     3          0.621              1.895              2.587
 Vibration     4          0.637              1.844              2.158
 Vibration     5          0.666              1.753              1.692
 Vibration     6          0.680              1.712              1.538
 Vibration     7          0.698              1.658              1.371
 Vibration     8          0.737              1.548              1.108
 Vibration     9          0.779              1.437              0.908
 Vibration    10          0.833              1.302              0.719
 Vibration    11          0.879              1.198              0.601
 Vibration    12          0.970              1.009              0.432

 Optimization completed.
    -- Stationary point found.

 1\1\GINC-NODE206\Freq\RB3LYP\6-31G(d)\C9H15N1\VSC10255\08-Dec-2020\0\\
 #N Geom=AllCheck Guess=TCheck SCRF=Check GenChk RB3LYP/6-31G(d) Freq\\
 CID_148008788_JID_155_neutraal\\0,1\C,-0.917726496,-1.3317435232,0.294
 8193137\C,0.5371508062,-1.7992758089,0.1121832374\C,1.6030732205,-0.92
 74613193,0.7924991689\C,1.7238099523,0.5036518301,0.2480504031\C,0.489
 3103526,1.3988691306,0.4559104558\C,-0.6803283949,1.0746445328,-0.4445
 486056\C,-1.2914651583,-0.1113750958,-0.5145168808\N,1.3326578699,-0.8
 731848486,2.2343918495\C,1.8082855235,-2.0041908124,3.0227192137\C,2.4

 Normal termination of Gaussian 16 at Tue Dec  8 10:22:32 2020.

 ----------------------------------------------------------------------
 # B3LYP/6-311++G(d,p) empiricaldispersion=gd3bj scf=xqc pop=npa geom=c
 heck
 ----------------------------------------------------------------------

 --------------------------------------
 CID_148008788_JID_155_Energie_neutraal
 --------------------------------------
 Structure from the checkpoint file:  "JID_155.chk"
 Charge =  0 Multiplicity = 1

 SCF Done:  E(RB3LYP) =  -406.828920513     A.U. after   12 cycles
 Normal termination of Gaussian 16 at Tue Dec  8 10:24:17 2020.

 ----------------------------------------------------------------------
 # B3LYP/6-311++G(d,p) empiricaldispersion=gd3bj scf=xqc pop=npa geom=c
 heck
 ----------------------------------------------------------------------

 ------------------------------------
 CID_148008788_JID_155_Energie_kation
 ------------------------------------
 Structure from the checkpoint file:  "JID_155.chk"
 Charge =  1 Multiplicity = 2

 SCF Done:  E(UB3LYP) =  -406.529993210     A.U. after   17 cycles
 Normal termination of Gaussian 16 at Tue Dec  8 10:27:39 2020.
 Gaussian 16:  ES64L-G16RevA.03 25-Dec-2016

 -----------------------------------
 CID_148008788_JID_155_Energie_anion
 -----------------------------------
 Structure from the checkpoint file:  "JID_155.chk"
 Charge = -1 Multiplicity = 2

                         Standard orientation:
 ---------------------------------------------------------------------
 Center     Atomic      Atomic             Coordinates (Angstroms)
 Number     Number       Type             X           Y           Z
 ---------------------------------------------------------------------
      1          6           0       -1.187127    1.538016   -0.352780
      2          6           0       -0.240226    1.297115    0.836319
      3          6           0        0.580172   -0.000007    0.777133
      4          6           0       -0.240232   -1.297127    0.836309
      5          6           0       -1.187141   -1.538012   -0.352787
      6          6           0       -2.422894   -0.668017   -0.357766
      7          6           0       -2.422889    0.668032   -0.357764
      8          7           0        1.394054   -0.000007   -0.444637
      9          6           0        2.646286    0.745143   -0.385305
     10          6           0        2.646298   -0.745135   -0.385299
     11          1           0       -1.490551    2.590917   -0.344699
     12          1           0       -0.617102    1.384895   -1.278708
     13          1           0       -0.811912    1.307679    1.772548
     14          1           0        0.470628    2.132538    0.889931
     15          1           0        1.240869   -0.000013    1.667342
     16          1           0        0.470622   -2.132551    0.889902
     17          1           0       -0.811911   -1.307704    1.772541
     18          1           0       -1.490575   -2.590911   -0.344708
     19          1           0       -0.617116   -1.384895   -1.278716
     20          1           0       -3.382580   -1.183421   -0.364179
     21          1           0       -3.382570    1.183444   -0.364176
     22          1           0        2.913199    1.302844   -1.280138
     23          1           0        2.901956    1.238418    0.553636
     24          1           0        2.901974   -1.238399    0.553646
     25          1           0        2.913219   -1.302839   -1.280128
 ---------------------------------------------------------------------

 SCF Done:  E(UB3LYP) =  -406.809437164     A.U. after   29 cycles

 The electronic state is 2-A.
 Alpha  occ. eigenvalues --  -14.20277 -10.08869 -10.08817 -10.08787 -10.05678
 Alpha  occ. eigenvalues --  -10.05659 -10.05650 -10.05587 -10.05551 -10.05549
 Alpha  occ. eigenvalues --   -0.86176  -0.71948  -0.66256  -0.65229  -0.56743
 Alpha  occ. eigenvalues --   -0.53617  -0.51965  -0.50693  -0.44146  -0.40705
 Alpha  occ. eigenvalues --   -0.39744  -0.37769  -0.36977  -0.33432  -0.33258
 Alpha  occ. eigenvalues --   -0.30929  -0.29931  -0.26817  -0.26711  -0.25249
 Alpha  occ. eigenvalues --   -0.25137  -0.24804  -0.22356  -0.20962  -0.20669
 Alpha  occ. eigenvalues --   -0.19656  -0.14369  -0.12550   0.05022
 Alpha virt. eigenvalues --    0.07219   0.07425   0.08089   0.09110   0.09614
 Alpha virt. eigenvalues --    0.10254   0.10309   0.11196   0.11500   0.11791
 Alpha virt. eigenvalues --    0.12671   0.13333   0.13594   0.14838   0.15333

  Beta  occ. eigenvalues --  -14.20266 -10.08855 -10.08789 -10.08759 -10.05667
  Beta  occ. eigenvalues --  -10.05647 -10.05638 -10.05576 -10.05533 -10.05532
  Beta  occ. eigenvalues --   -0.86154  -0.71914  -0.66222  -0.65197  -0.56706
  Beta  occ. eigenvalues --   -0.53571  -0.51913  -0.50615  -0.44083  -0.40666
  Beta  occ. eigenvalues --   -0.39688  -0.37715  -0.36935  -0.33406  -0.33225
  Beta  occ. eigenvalues --   -0.30882  -0.29893  -0.26780  -0.26676  -0.25216
  Beta  occ. eigenvalues --   -0.25105  -0.24772  -0.22316  -0.20934  -0.20637
  Beta  occ. eigenvalues --   -0.19620  -0.14330  -0.12499
  Beta virt. eigenvalues --    0.07304   0.08101   0.08260   0.08897   0.09749
  Beta virt. eigenvalues --    0.10149   0.10548   0.10975   0.11687   0.11782
  Beta virt. eigenvalues --    0.12329   0.13235   0.13745   0.14094   0.15066

 Mulliken charges and spin densities:
               1          2
     1  C    0.072312  -0.425005
     2  C    0.152263  -0.502178
     3  C    0.122807  -0.228740
     4  C    0.152268  -0.502189
     5  C    0.072307  -0.424998
     6  C    0.008360  -0.163693
     7  C    0.008419  -0.163755
     8  N   -0.144833   0.248309
     9  C    0.563202  -0.825272
    10  C    0.563242  -0.825307
    11  H   -0.093898   0.248894
    12  H    0.053015   0.097892
    13  H   -0.238288   0.368075
    14  H   -0.015333   0.164104
    15  H   -0.654465   0.832666
    16  H   -0.015321   0.164092
    17  H   -0.238308   0.368096
    18  H   -0.093883   0.248878
    19  H    0.053001   0.097907
    20  H   -0.179257   0.334083
    21  H   -0.179255   0.334080
    22  H   -0.254189   0.397625
    23  H   -0.229983   0.379402
    24  H   -0.229991   0.379410
    25  H   -0.254189   0.397624
 Sum of Mulliken charges =  -1.00000   1.00000

 Dipole moment (field-independent basis, Debye):
    X=             -1.8240    Y=             -0.0000    Z=             -2.0519  Tot=              2.7454
 Quadrupole moment (field-independent basis, Debye-Ang):
   XX=           -121.1524   YY=           -102.9629   ZZ=            -97.4532
   XY=              0.0001   XZ=             -2.5584   YZ=              0.0000

 Summary of Natural Population Analysis:

                                       Natural Population
                Natural  -----------------------------------------------
    Atom  No    Charge         Core      Valence    Rydberg      Total
 -----------------------------------------------------------------------
      C    1   -0.21652      0.99961     2.20728    0.00963     3.21652
      C    2   -0.18613      0.99959     2.17705    0.00949     3.18613
      C    3   -0.00512      0.99957     1.99078    0.01477     3.00512
      C    4   -0.18613      0.99959     2.17705    0.00949     3.18613
      C    5   -0.21652      0.99961     2.20728    0.00963     3.21652
      C    6   -0.09135      0.99952     2.08140    0.01044     3.09135
      C    7   -0.09135      0.99952     2.08140    0.01044     3.09135
      N    8   -0.26818      0.99972     2.75565    0.01281     3.76818
      C    9   -0.10519      0.99963     2.09358    0.01199     3.10519
      C   10   -0.10519      0.99963     2.09357    0.01199     3.10519
      H   11    0.10010      0.00000     0.39874    0.00116     0.39990
      H   12    0.10905      0.00000     0.38924    0.00171     0.39095
      H   13    0.09870      0.00000     0.39998    0.00132     0.40130
      H   14    0.10002      0.00000     0.39846    0.00151     0.39998
      H   15    0.08854      0.00000     0.40799    0.00348     0.41146
      H   16    0.10002      0.00000     0.39846    0.00151     0.39998
      H   17    0.09870      0.00000     0.39998    0.00132     0.40130
      H   18    0.10010      0.00000     0.39874    0.00116     0.39990
      H   19    0.10905      0.00000     0.38924    0.00171     0.39095
      H   20    0.09381      0.00000     0.40511    0.00108     0.40619
      H   21    0.09381      0.00000     0.40511    0.00108     0.40619
      H   22    0.09473      0.00000     0.40403    0.00124     0.40527
      H   23    0.09517      0.00000     0.40284    0.00199     0.40483
      H   24    0.09517      0.00000     0.40285    0.00199     0.40483
      H   25    0.09473      0.00000     0.40403    0.00124     0.40527
 =======================================================================
   * Total *    0.00000      9.99598    27.86985    0.13417    38.00000

 Normal termination of Gaussian 16 at Tue Dec  8 10:33:49 2020.
