 Gaussian 16, Revision A.03,

 -----------------------------------------------------------
 # opt freq B3LYP/6-31G(d) empiricaldispersion=gd3bj scf=xqc
 -----------------------------------------------------------

 ------------------------------
 CID_88105242_JID_6750_neutraal
 ------------------------------
 Symbolic Z-matrix:
 Charge =  0 Multiplicity = 1

 SCF Done:  E(RB3LYP) =  -833.198617924     A.U. after   16 cycles
 SCF Done:  E(RB3LYP) =  -833.203683012     A.U. after   17 cycles
 SCF Done:  E(RB3LYP) =  -833.196537270     A.U. after   17 cycles
 SCF Done:  E(RB3LYP) =  -833.206979696     A.U. after   15 cycles
 SCF Done:  E(RB3LYP) =  -833.202797433     A.U. after   16 cycles
 SCF Done:  E(RB3LYP) =  -833.207733766     A.U. after   15 cycles
 SCF Done:  E(RB3LYP) =  -833.208130628     A.U. after   14 cycles
 SCF Done:  E(RB3LYP) =  -833.208260593     A.U. after   14 cycles
 SCF Done:  E(RB3LYP) =  -833.208468795     A.U. after   14 cycles
 SCF Done:  E(RB3LYP) =  -833.208652057     A.U. after   15 cycles
 SCF Done:  E(RB3LYP) =  -833.208934956     A.U. after   15 cycles
 SCF Done:  E(RB3LYP) =  -833.208946010     A.U. after   11 cycles
 SCF Done:  E(RB3LYP) =  -833.208947256     A.U. after   12 cycles
 SCF Done:  E(RB3LYP) =  -833.208948586     A.U. after   12 cycles
 SCF Done:  E(RB3LYP) =  -833.208948667     A.U. after    8 cycles
 SCF Done:  E(RB3LYP) =  -833.208948718     A.U. after    8 cycles
 Optimization completed.
    -- Stationary point found.
 Normal termination of Gaussian 16 at Thu Dec 10 23:29:18 2020.

 --------------------------------------------------------------------
 #N Geom=AllCheck Guess=TCheck SCRF=Check GenChk RB3LYP/6-31G(d) Freq
 --------------------------------------------------------------------

 Structure from the checkpoint file:  "JID_6750.chk"
 ------------------------------
 CID_88105242_JID_6750_neutraal
 ------------------------------
 Charge =  0 Multiplicity = 1

 SCF Done:  E(RB3LYP) =  -833.208948718     A.U. after    1 cycles

  Exact polarizability: 179.761  -0.112 129.222   1.548  -2.098  72.372
 Approx polarizability: 282.910  -8.698 234.389   1.600  -9.345 136.317

                      1                      2                      3
                      A                      A                      A
 Frequencies --     25.0292                41.8940                65.6276
 Red. masses --     10.8967                 4.5564                 5.2318
 Frc consts  --      0.0040                 0.0047                 0.0133
 IR Inten    --      0.1879                 1.4829                 1.0767

                      4                      5                      6
                      A                      A                      A
 Frequencies --    109.1743               114.5244               126.6533
 Red. masses --      4.1599                11.3682                 4.8282
 Frc consts  --      0.0292                 0.0878                 0.0456
 IR Inten    --      2.0704                 0.7356                 0.9551

                      7                      8                      9
                      A                      A                      A
 Frequencies --    163.0507               188.1981               214.1202
 Red. masses --      4.3383                12.1621                 5.1523
 Frc consts  --      0.0680                 0.2538                 0.1392
 IR Inten    --      1.7224                 1.1638                 2.2808

                     10                     11                     12
                      A                      A                      A
 Frequencies --    255.7152               300.2234               312.4745
 Red. masses --      4.0610                 5.1076                 7.9609
 Frc consts  --      0.1565                 0.2712                 0.4580
 IR Inten    --      0.3952                 0.7965                 2.9531

                     13                     14                     15
                      A                      A                      A
 Frequencies --    339.7212               373.9346               393.9195
 Red. masses --      5.6175                 4.2449                 9.1207
 Frc consts  --      0.3820                 0.3497                 0.8339
 IR Inten    --      2.2992                 2.1126                 2.4262

                     16                     17                     18
                      A                      A                      A
 Frequencies --    419.5263               472.1665               520.0445
 Red. masses --      4.0789                 2.6513                 4.0531
 Frc consts  --      0.4230                 0.3483                 0.6458
 IR Inten    --      4.8373                 5.5119                 0.2810

                     19                     20                     21
                      A                      A                      A
 Frequencies --    547.9134               573.6874               587.0852
 Red. masses --      1.1700                 4.2895                 2.4480
 Frc consts  --      0.2070                 0.8318                 0.4971
 IR Inten    --     73.3437                 2.2490                17.5842

                     22                     23                     24
                      A                      A                      A
 Frequencies --    651.7003               672.3565               693.6356
 Red. masses --      4.2786                 6.6517                 3.6415
 Frc consts  --      1.0707                 1.7717                 1.0323
 IR Inten    --     16.4994                14.2224                 5.5090

                     25                     26                     27
                      A                      A                      A
 Frequencies --    718.9138               747.9919               765.5601
 Red. masses --      6.7476                 6.7216                 7.8349
 Frc consts  --      2.0547                 2.2157                 2.7055
 IR Inten    --      5.1417                12.5764                 4.1565

                     28                     29                     30
                      A                      A                      A
 Frequencies --    815.2525               830.0972               857.5089
 Red. masses --      7.8669                 7.3559                 1.5403
 Frc consts  --      3.0806                 2.9864                 0.6673
 IR Inten    --     41.3692                17.8595                21.1775

                     31                     32                     33
                      A                      A                      A
 Frequencies --    892.2911               927.0521               960.3024
 Red. masses --      2.9296                 1.8110                 1.3457
 Frc consts  --      1.3743                 0.9170                 0.7311
 IR Inten    --     23.5160                 2.4553                37.9742

                     34                     35                     36
                      A                      A                      A
 Frequencies --    977.8675               980.6378              1015.1017
 Red. masses --      3.0819                 1.2941                 3.6935
 Frc consts  --      1.7363                 0.7332                 2.2424
 IR Inten    --      1.2172                 1.7810                26.6070

                     37                     38                     39
                      A                      A                      A
 Frequencies --   1047.5297              1137.5518              1169.0649
 Red. masses --      1.1562                 1.8411                 1.6449
 Frc consts  --      0.7475                 1.4037                 1.3245
 IR Inten    --     20.9701                 3.1111                 0.5680

                     40                     41                     42
                      A                      A                      A
 Frequencies --   1195.1645              1218.6892              1251.4451
 Red. masses --      1.8249                 2.9971                 1.4990
 Frc consts  --      1.5358                 2.6226                 1.3832
 IR Inten    --     27.2906                49.7115                 9.2943

                     43                     44                     45
                      A                      A                      A
 Frequencies --   1301.6415              1326.8631              1348.7730
 Red. masses --      1.9814                 1.2717                 1.7409
 Frc consts  --      1.9779                 1.3191                 1.8660
 IR Inten    --    137.3441                 1.4406                29.8550

                     46                     47                     48
                      A                      A                      A
 Frequencies --   1359.1850              1392.1130              1413.3353
 Red. masses --      2.0827                12.4530                 2.9471
 Frc consts  --      2.2669                14.2191                 3.4684
 IR Inten    --     82.5715               341.3739                66.0516

                     49                     50                     51
                      A                      A                      A
 Frequencies --   1433.0274              1473.3726              1486.4998
 Red. masses --     12.4001                 1.1986                 3.6666
 Frc consts  --     15.0032                 1.5331                 4.7735
 IR Inten    --    119.6026                 1.5552                14.2849

                     52                     53                     54
                      A                      A                      A
 Frequencies --   1505.2231              1524.5951              1623.2504
 Red. masses --      1.3428                 2.5307                 7.6276
 Frc consts  --      1.7926                 3.4657                11.8416
 IR Inten    --     28.4977                33.6260                80.1015

                     55                     56                     57
                      A                      A                      A
 Frequencies --   1647.9028              1668.1131              1673.7569
 Red. masses --      8.7710                12.5923                 8.5488
 Frc consts  --     14.0334                20.6446                14.1104
 IR Inten    --    139.5158               266.5945               109.3501

                     58                     59                     60
                      A                      A                      A
 Frequencies --   1716.5861              3053.1914              3122.7788
 Red. masses --      4.2981                 1.0685                 1.0939
 Frc consts  --      7.4621                 5.8685                 6.2853
 IR Inten    --     13.4788                10.1512                 1.3530

                     61                     62                     63
                      A                      A                      A
 Frequencies --   3154.7613              3175.5418              3232.5256
 Red. masses --      1.0609                 1.0920                 1.0909
 Frc consts  --      6.2209                 6.4881                 6.7159
 IR Inten    --      4.5722                 3.2559                 1.0708

                     64                     65                     66
                      A                      A                      A
 Frequencies --   3244.9091              3257.7109              3612.2475
 Red. masses --      1.1144                 1.0931                 1.0660
 Frc consts  --      6.9133                 6.8350                 8.1949
 IR Inten    --      9.0395                 3.5806               347.9950

 - Thermochemistry -
 -------------------
 Temperature   298.150 Kelvin.  Pressure   1.00000 Atm.
 Atom     1 has atomic number  6 and mass  12.00000

 Molecular mass:   224.04332 amu.
 Principal axes and moments of inertia in atomic units:
                           1         2         3
     Eigenvalues --  2036.998394284.640675886.55027
           X            0.99982   0.01853  -0.00280
           Y           -0.01853   0.99983   0.00029
           Z            0.00280  -0.00024   1.00000
 This molecule is an asymmetric top.
 Rotational symmetry number  1.
 Warning -- assumption of classical behavior for rotation
           may cause significant error
 Rotational temperatures (Kelvin)      0.04252     0.02021     0.01471
 Rotational constants (GHZ):           0.88598     0.42121     0.30659
 Zero-point vibrational energy     451101.6 (Joules/Mol)
                                  107.81588 (Kcal/Mol)
 Warning -- explicit consideration of  21 degrees of freedom as
           vibrations may cause significant error
 Vibrational temperatures:     36.01    60.28    94.42   157.08   164.78
          (Kelvin)            182.23   234.59   270.78   308.07   367.92
                              431.95   449.58   488.78   538.01   566.76
                              603.60   679.34   748.23   788.33   825.41
                              844.68   937.65   967.37   997.99  1034.36
                             1076.19  1101.47  1172.97  1194.32  1233.76
                             1283.81  1333.82  1381.66  1406.93  1410.92
                             1460.50  1507.16  1636.68  1682.02  1719.58
                             1753.42  1800.55  1872.77  1909.06  1940.58
                             1955.56  2002.94  2033.47  2061.81  2119.85
                             2138.74  2165.68  2193.55  2335.50  2370.96
                             2400.04  2408.16  2469.78  4392.86  4492.98
                             4539.00  4568.90  4650.88  4668.70  4687.12
                             5197.22

 Zero-point correction=                           0.171816 (Hartree/Particle)
 Thermal correction to Energy=                    0.185987
 Thermal correction to Enthalpy=                  0.186931
 Thermal correction to Gibbs Free Energy=         0.129295
 Sum of electronic and zero-point Energies=           -833.037133
 Sum of electronic and thermal Energies=              -833.022961
 Sum of electronic and thermal Enthalpies=            -833.022017
 Sum of electronic and thermal Free Energies=         -833.079653

                     E (Thermal)             CV                S
                      KCal/Mol        Cal/Mol-Kelvin    Cal/Mol-Kelvin
 Total                  116.709             52.149            121.305
 Electronic               0.000              0.000              0.000
 Translational            0.889              2.981             42.123
 Rotational               0.889              2.981             32.308
 Vibrational            114.931             46.188             46.875
 Vibration     1          0.593              1.985              6.189
 Vibration     2          0.595              1.980              5.167
 Vibration     3          0.597              1.971              4.280
 Vibration     4          0.606              1.942              3.284
 Vibration     5          0.607              1.937              3.191
 Vibration     6          0.611              1.926              2.996
 Vibration     7          0.623              1.888              2.514
 Vibration     8          0.633              1.856              2.246
 Vibration     9          0.644              1.819              2.008
 Vibration    10          0.666              1.753              1.691
 Vibration    11          0.693              1.673              1.416
 Vibration    12          0.701              1.650              1.349
 Vibration    13          0.720              1.596              1.213
 Vibration    14          0.745              1.526              1.064
 Vibration    15          0.761              1.483              0.985
 Vibration    16          0.782              1.428              0.894
 Vibration    17          0.829              1.312              0.732
 Vibration    18          0.875              1.206              0.610
 Vibration    19          0.903              1.144              0.549
 Vibration    20          0.930              1.088              0.497
 Vibration    21          0.944              1.059              0.472

 Optimization completed.
    -- Stationary point found.
 Normal termination of Gaussian 16 at Thu Dec 10 23:36:44 2020.

 ----------------------------------------------------------------------
 # B3LYP/6-311++G(d,p) empiricaldispersion=gd3bj scf=xqc pop=npa geom=c
 heck
 ----------------------------------------------------------------------

 --------------------------------------
 CID_88105242_JID_6750_Energie_neutraal
 --------------------------------------
 Structure from the checkpoint file:  "JID_6750.chk"
 Charge =  0 Multiplicity = 1

 SCF Done:  E(RB3LYP) =  -833.456898733     A.U. after   16 cycles
 Normal termination of Gaussian 16 at Thu Dec 10 23:39:56 2020.

 ----------------------------------------------------------------------
 # B3LYP/6-311++G(d,p) empiricaldispersion=gd3bj scf=xqc pop=npa geom=c
 heck
 ----------------------------------------------------------------------

 ------------------------------------
 CID_88105242_JID_6750_Energie_kation
 ------------------------------------
 Structure from the checkpoint file:  "JID_6750.chk"
 Charge =  1 Multiplicity = 2

 SCF Done:  E(UB3LYP) =  -833.108508865     A.U. after   32 cycles
 Normal termination of Gaussian 16 at Thu Dec 10 23:48:51 2020.
 Gaussian 16:  ES64L-G16RevA.03 25-Dec-2016

 ----------------------------------------------------------------------
 # B3LYP/6-311++G(d,p) empiricaldispersion=gd3bj scf=xqc pop=npa geom=c
 heck
 ----------------------------------------------------------------------

 -----------------------------------
 CID_88105242_JID_6750_Energie_anion
 -----------------------------------
 Structure from the checkpoint file:  "JID_6750.chk"
 Charge = -1 Multiplicity = 2

                         Standard orientation:
 ---------------------------------------------------------------------
 Center     Atomic      Atomic             Coordinates (Angstroms)
 Number     Number       Type             X           Y           Z
 ---------------------------------------------------------------------
      1          6           0       -4.359941   -0.581711    0.457703
      2          6           0       -3.056457   -0.831684    0.612336
      3          6           0       -2.048839   -0.822078   -0.512894
      4          6           0       -0.912697    0.150157   -0.255855
      5          6           0       -1.177627    1.536701   -0.180990
      6          6           0       -0.136786    2.463867   -0.044206
      7          6           0        1.171600    2.027046    0.062116
      8          6           0        1.453404    0.660955    0.041524
      9          6           0        0.411440   -0.256433   -0.114328
     10          7           0        0.655874   -1.713057   -0.191834
     11          8           0        0.377216   -2.363884    0.808115
     12          8           0        1.013897   -2.153934   -1.275054
     13          7           0        2.836202    0.231398    0.225487
     14          8           0        3.709281    1.097599    0.188913
     15          8           0        3.039615   -0.966981    0.417425
     16          8           0       -2.432724    2.028366   -0.268820
     17          1           0       -4.789647   -0.379194   -0.522345
     18          1           0       -5.048628   -0.602233    1.296956
     19          1           0       -2.653332   -1.048855    1.600478
     20          1           0       -1.658721   -1.833391   -0.653951
     21          1           0       -2.547369   -0.546445   -1.451345
     22          1           0       -0.383944    3.518540   -0.004722
     23          1           0        1.994000    2.720250    0.183627
     24          1           0       -3.079762    1.332691   -0.041351
 ---------------------------------------------------------------------

 SCF Done:  E(UB3LYP) =  -833.508844149     A.U. after   27 cycles

 The electronic state is 2-A.
 Alpha  occ. eigenvalues --  -19.04975 -19.01112 -19.01042 -18.96724 -18.96712
 Alpha  occ. eigenvalues --  -14.39261 -14.35155 -10.12398 -10.10795 -10.10368
 Alpha  occ. eigenvalues --  -10.09580 -10.09513 -10.08801 -10.08472 -10.06500
 Alpha  occ. eigenvalues --  -10.06312  -1.08726  -1.04887  -0.96659  -0.91690
 Alpha  occ. eigenvalues --   -0.87744  -0.76770  -0.72614  -0.67685  -0.66787
 Alpha  occ. eigenvalues --   -0.61523  -0.57421  -0.54978  -0.49558  -0.47445
 Alpha  occ. eigenvalues --   -0.46749  -0.45075  -0.41946  -0.39821  -0.38271
 Alpha  occ. eigenvalues --   -0.38143  -0.37644  -0.36786  -0.36182  -0.36120
 Alpha  occ. eigenvalues --   -0.33795  -0.32462  -0.31931  -0.30769  -0.29019
 Alpha  occ. eigenvalues --   -0.28047  -0.27240  -0.25889  -0.23765  -0.19570
 Alpha  occ. eigenvalues --   -0.18279  -0.17922  -0.16777  -0.15078  -0.14374
 Alpha  occ. eigenvalues --   -0.13803  -0.12919  -0.11983   0.01192
 Alpha virt. eigenvalues --    0.05382   0.06270   0.06601   0.08599   0.09190
 Alpha virt. eigenvalues --    0.09652   0.10620   0.11596   0.12386   0.12719
 Alpha virt. eigenvalues --    0.12853   0.13545   0.15277   0.15627   0.16249

  Beta  occ. eigenvalues --  -19.04915 -19.00937 -19.00852 -18.96342 -18.96310
  Beta  occ. eigenvalues --  -14.38953 -14.34668 -10.12173 -10.10789 -10.10151
  Beta  occ. eigenvalues --  -10.09571 -10.09511 -10.08741 -10.08549 -10.06425
  Beta  occ. eigenvalues --  -10.06352  -1.08250  -1.04056  -0.96497  -0.91338
  Beta  occ. eigenvalues --   -0.87012  -0.76525  -0.72562  -0.67432  -0.66426
  Beta  occ. eigenvalues --   -0.61197  -0.57024  -0.54587  -0.49392  -0.47221
  Beta  occ. eigenvalues --   -0.46418  -0.44748  -0.41558  -0.39509  -0.38021
  Beta  occ. eigenvalues --   -0.37736  -0.37169  -0.36143  -0.35407  -0.34495
  Beta  occ. eigenvalues --   -0.33495  -0.32188  -0.31429  -0.30666  -0.28863
  Beta  occ. eigenvalues --   -0.27990  -0.27108  -0.25716  -0.23147  -0.19499
  Beta  occ. eigenvalues --   -0.17592  -0.17054  -0.16442  -0.13981  -0.13487
  Beta  occ. eigenvalues --   -0.12411  -0.12205  -0.11377
  Beta virt. eigenvalues --    0.06199   0.06587   0.07409   0.08006   0.08608
  Beta virt. eigenvalues --    0.09183   0.09944   0.10730   0.11633   0.12398
  Beta virt. eigenvalues --    0.12735   0.13534   0.14670   0.15361   0.15786

 Mulliken charges and spin densities:
               1          2
     1  C   -0.549413   0.018859
     2  C    0.094170   0.000135
     3  C   -0.662340   0.005704
     4  C    1.777993  -0.069584
     5  C   -0.927783   0.109831
     6  C   -0.272867  -0.032730
     7  C    0.418515   0.110455
     8  C   -0.474308   0.001319
     9  C   -0.836029   0.173301
    10  N   -0.234013   0.089068
    11  O   -0.037327   0.070507
    12  O   -0.020255   0.059129
    13  N   -0.319391   0.155880
    14  O   -0.142173   0.143838
    15  O   -0.119989   0.152773
    16  O   -0.248895   0.012644
    17  H    0.131091  -0.000784
    18  H    0.121718   0.000093
    19  H    0.212440  -0.001647
    20  H    0.211986   0.002930
    21  H    0.201516  -0.000245
    22  H    0.154032   0.001887
    23  H    0.238641  -0.004785
    24  H    0.282681   0.001423
 Sum of Mulliken charges =  -1.00000   1.00000

 Dipole moment (field-independent basis, Debye):
    X=            -10.2610    Y=              2.7632    Z=             -0.1059  Tot=             10.6270
 Quadrupole moment (field-independent basis, Debye-Ang):
   XX=           -134.6562   YY=           -118.2846   ZZ=            -99.6857
   XY=              7.1280   XZ=             -1.8402   YZ=              0.8056

 Summary of Natural Population Analysis:

                                       Natural Population
                Natural  -----------------------------------------------
    Atom  No    Charge         Core      Valence    Rydberg      Total
 -----------------------------------------------------------------------
      C    1   -0.21546      0.99957     2.20833    0.00757     3.21546
      C    2   -0.07247      0.99957     2.06306    0.00984     3.07247
      C    3   -0.22268      0.99958     2.21275    0.01035     3.22268
      C    4   -0.07432      0.99943     2.06621    0.00867     3.07432
      C    5    0.20459      0.99938     1.78393    0.01211     2.79541
      C    6   -0.14489      0.99954     2.13601    0.00934     3.14489
      C    7   -0.06615      0.99954     2.05753    0.00907     3.06615
      C    8    0.03159      0.99935     1.95742    0.01163     2.96841
      C    9    0.11046      0.99925     1.87514    0.01516     2.88954
      N   10    0.28406      0.99970     2.18808    0.02815     3.21594
      O   11   -0.19034      0.99989     3.18182    0.00863     4.19034
      O   12   -0.18347      0.99989     3.17503    0.00855     4.18347
      N   13    0.29363      0.99971     2.18048    0.02618     3.20637
      O   14   -0.19903      0.99990     3.19168    0.00745     4.19903
      O   15   -0.17992      0.99990     3.17071    0.00932     4.17992
      O   16   -0.34619      0.99987     3.33930    0.00702     4.34619
      H   17    0.09026      0.00000     0.40852    0.00122     0.40974
      H   18    0.09481      0.00000     0.40417    0.00102     0.40519
      H   19    0.10228      0.00000     0.39663    0.00109     0.39772
      H   20    0.12331      0.00000     0.37548    0.00121     0.37669
      H   21    0.10031      0.00000     0.39788    0.00181     0.39969
      H   22    0.10141      0.00000     0.39751    0.00108     0.39859
      H   23    0.11585      0.00000     0.38286    0.00129     0.38415
      H   24    0.24239      0.00000     0.25492    0.00270     0.25761
 =======================================================================
   * Total *    0.00002     15.99408    41.80543    0.20047    57.99998

 Normal termination of Gaussian 16 at Thu Dec 10 23:56:24 2020.
