 Gaussian 16, Revision A.03,

 -----------------------------------------------------------
 # opt freq B3LYP/6-31G(d) empiricaldispersion=gd3bj scf=xqc
 -----------------------------------------------------------

 -------------------------------
 CID_150157508_JID_8847_neutraal
 -------------------------------
 Symbolic Z-matrix:
 Charge =  0 Multiplicity = 1

 SCF Done:  E(RB3LYP) =  -852.362870441     A.U. after   16 cycles
 SCF Done:  E(RB3LYP) =  -852.369250190     A.U. after   15 cycles
 SCF Done:  E(RB3LYP) =  -852.370461157     A.U. after   13 cycles
 SCF Done:  E(RB3LYP) =  -852.371211805     A.U. after   13 cycles
 SCF Done:  E(RB3LYP) =  -852.371457101     A.U. after   12 cycles
 SCF Done:  E(RB3LYP) =  -852.371640140     A.U. after   12 cycles
 SCF Done:  E(RB3LYP) =  -852.371745658     A.U. after   12 cycles
 SCF Done:  E(RB3LYP) =  -852.371974551     A.U. after   13 cycles
 SCF Done:  E(RB3LYP) =  -852.372376519     A.U. after   13 cycles
 SCF Done:  E(RB3LYP) =  -852.367504640     A.U. after   14 cycles
 SCF Done:  E(RB3LYP) =  -852.374267329     A.U. after   11 cycles
 SCF Done:  E(RB3LYP) =  -852.374269087     A.U. after   10 cycles
 SCF Done:  E(RB3LYP) =  -852.374269866     A.U. after    8 cycles
 SCF Done:  E(RB3LYP) =  -852.374270286     A.U. after    8 cycles
 SCF Done:  E(RB3LYP) =  -852.374270326     A.U. after    8 cycles
 Optimization completed.
    -- Stationary point found.
 Normal termination of Gaussian 16 at Fri Dec 11 22:28:37 2020.

 --------------------------------------------------------------------
 #N Geom=AllCheck Guess=TCheck SCRF=Check GenChk RB3LYP/6-31G(d) Freq
 --------------------------------------------------------------------

 Structure from the checkpoint file:  "JID_8847.chk"
 -------------------------------
 CID_150157508_JID_8847_neutraal
 -------------------------------
 Charge =  0 Multiplicity = 1

 SCF Done:  E(RB3LYP) =  -852.374270326     A.U. after    1 cycles

  Exact polarizability: 230.222   7.566 144.548   3.803   5.098  94.882
 Approx polarizability: 333.094  41.098 239.770  10.803  17.378 144.894

                      1                      2                      3
                      A                      A                      A
 Frequencies --     18.5904                33.3052                64.3991
 Red. masses --      3.6600                 5.2442                 6.4074
 Frc consts  --      0.0007                 0.0034                 0.0157
 IR Inten    --      0.0191                 0.8386                 0.3669

                      4                      5                      6
                      A                      A                      A
 Frequencies --     75.0296                81.8871               113.7524
 Red. masses --      3.3141                 5.8616                 3.8271
 Frc consts  --      0.0110                 0.0232                 0.0292
 IR Inten    --      0.4722                 0.4085                 0.4728

                      7                      8                      9
                      A                      A                      A
 Frequencies --    117.9323               128.8722               155.5267
 Red. masses --      4.4662                 3.9692                 6.5120
 Frc consts  --      0.0366                 0.0388                 0.0928
 IR Inten    --      1.6922                 0.5107                 0.2849

                     10                     11                     12
                      A                      A                      A
 Frequencies --    186.2645               212.6820               231.2448
 Red. masses --      3.8657                 1.0850                 4.3805
 Frc consts  --      0.0790                 0.0289                 0.1380
 IR Inten    --      2.7586                 0.0994                 1.9645

                     13                     14                     15
                      A                      A                      A
 Frequencies --    243.2716               257.7304               277.2961
 Red. masses --      3.9497                 1.0909                 1.0670
 Frc consts  --      0.1377                 0.0427                 0.0483
 IR Inten    --      1.6026                 0.3828                 0.0794

                     16                     17                     18
                      A                      A                      A
 Frequencies --    292.3726               330.0730               352.4847
 Red. masses --      5.0132                 3.4934                 2.5204
 Frc consts  --      0.2525                 0.2242                 0.1845
 IR Inten    --      0.0753                 8.7980                 1.2559

                     19                     20                     21
                      A                      A                      A
 Frequencies --    374.3029               420.6604               427.2328
 Red. masses --      3.9379                 4.9771                 3.8625
 Frc consts  --      0.3251                 0.5189                 0.4154
 IR Inten    --      3.2895                 0.9076                 1.4165

                     22                     23                     24
                      A                      A                      A
 Frequencies --    451.5637               462.1943               475.8648
 Red. masses --      4.0757                 3.0571                 3.5935
 Frc consts  --      0.4896                 0.3848                 0.4794
 IR Inten    --      2.0688                 2.1794                 8.1772

                     25                     26                     27
                      A                      A                      A
 Frequencies --    534.8135               542.2974               614.2024
 Red. masses --     10.9849                 5.7612                 4.7438
 Frc consts  --      1.8512                 0.9982                 1.0544
 IR Inten    --      6.3004                 2.5017                 0.9186

                     28                     29                     30
                      A                      A                      A
 Frequencies --    645.9878               675.3769               701.8611
 Red. masses --      6.3382                 5.0927                 2.9552
 Frc consts  --      1.5583                 1.3687                 0.8577
 IR Inten    --      6.3919                 6.2329                 0.1868

                     31                     32                     33
                      A                      A                      A
 Frequencies --    750.5650               766.3507               781.0226
 Red. masses --     11.4801                 5.4112                 3.3937
 Frc consts  --      3.8104                 1.8724                 1.2197
 IR Inten    --     16.0619                 6.7732                 1.5966

                     34                     35                     36
                      A                      A                      A
 Frequencies --    795.6549               810.0519               847.4266
 Red. masses --      1.2967                 1.3935                 1.3188
 Frc consts  --      0.4837                 0.5388                 0.5580
 IR Inten    --     15.9335                 9.9335                 5.8492

                     37                     38                     39
                      A                      A                      A
 Frequencies --    864.1605               880.8286               921.5985
 Red. masses --      5.5592                 3.5193                 3.5642
 Frc consts  --      2.4460                 1.6087                 1.7836
 IR Inten    --     52.8456                13.3878                23.2856

                     40                     41                     42
                      A                      A                      A
 Frequencies --    939.4091               942.0124               942.1171
 Red. masses --      1.6291                 4.0735                 1.7323
 Frc consts  --      0.8471                 2.1298                 0.9059
 IR Inten    --      0.2587                19.5371                 1.3478

                     43                     44                     45
                      A                      A                      A
 Frequencies --    985.1218              1016.7711              1066.3023
 Red. masses --      1.1986                 6.3372                 1.4477
 Frc consts  --      0.6854                 3.8601                 0.9698
 IR Inten    --      0.1815                37.5620                 4.6114

                     46                     47                     48
                      A                      A                      A
 Frequencies --   1067.9164              1071.5686              1081.7828
 Red. masses --      1.4174                 1.4526                 1.7370
 Frc consts  --      0.9524                 0.9827                 1.1977
 IR Inten    --      1.4118                19.8095                39.5621

                     49                     50                     51
                      A                      A                      A
 Frequencies --   1094.2074              1129.8076              1141.0630
 Red. masses --      1.3593                 1.2532                 1.8807
 Frc consts  --      0.9589                 0.9425                 1.4427
 IR Inten    --      5.1400                33.8926               112.8006

                     52                     53                     54
                      A                      A                      A
 Frequencies --   1179.8746              1205.6512              1211.3503
 Red. masses --      1.7216                 3.4572                 1.4833
 Frc consts  --      1.4120                 2.9609                 1.2824
 IR Inten    --     48.0858               426.0261                59.8011

                     55                     56                     57
                      A                      A                      A
 Frequencies --   1228.8918              1240.2106              1289.4447
 Red. masses --      3.3447                 2.1340                 2.7194
 Frc consts  --      2.9760                 1.9339                 2.6639
 IR Inten    --     11.2944                 9.1429                15.1097

                     58                     59                     60
                      A                      A                      A
 Frequencies --   1299.2478              1316.8756              1339.6318
 Red. masses --      2.8677                 6.0791                 5.2261
 Frc consts  --      2.8521                 6.2112                 5.5259
 IR Inten    --     49.8311                45.5811                90.8843

                     61                     62                     63
                      A                      A                      A
 Frequencies --   1357.9601              1418.9605              1427.0338
 Red. masses --      7.5310                 2.0366                 1.2786
 Frc consts  --      8.1823                 2.4160                 1.5341
 IR Inten    --    643.9902                55.5669                19.5863

                     64                     65                     66
                      A                      A                      A
 Frequencies --   1428.8160              1454.3597              1475.2001
 Red. masses --      1.2904                 1.2355                 7.2448
 Frc consts  --      1.5521                 1.5397                 9.2892
 IR Inten    --     20.3025                23.7072                95.0395

                     67                     68                     69
                      A                      A                      A
 Frequencies --   1492.6261              1500.1317              1519.1272
 Red. masses --      1.0926                 1.0467                 1.0519
 Frc consts  --      1.4342                 1.3878                 1.4302
 IR Inten    --      2.7611                 0.6696                 2.2785

                     70                     71                     72
                      A                      A                      A
 Frequencies --   1520.4998              1525.8872              1529.4921
 Red. masses --      1.0521                 1.0688                 2.0124
 Frc consts  --      1.4331                 1.4661                 2.7737
 IR Inten    --      0.8577                18.4781                65.3038

                     73                     74                     75
                      A                      A                      A
 Frequencies --   1534.2628              1536.8414              1556.5629
 Red. masses --      1.0535                 2.9150                 1.0562
 Frc consts  --      1.4611                 4.0564                 1.5077
 IR Inten    --      1.8839                75.5372                16.8944

                     76                     77                     78
                      A                      A                      A
 Frequencies --   1629.9852              1848.6509              2277.1070
 Red. masses --      7.6234                12.2256                13.9918
 Frc consts  --     11.9335                24.6167                42.7455
 IR Inten    --    185.8460               346.9366               801.1728

                     79                     80                     81
                      A                      A                      A
 Frequencies --   3061.3412              3063.1015              3069.8168
 Red. masses --      1.0354                 1.0381                 1.0384
 Frc consts  --      5.7173                 5.7385                 5.7653
 IR Inten    --      8.3893                20.5906                15.5887

                     82                     83                     84
                      A                      A                      A
 Frequencies --   3126.1553              3128.0217              3137.1813
 Red. masses --      1.1027                 1.1025                 1.1030
 Frc consts  --      6.3494                 6.3555                 6.3957
 IR Inten    --      5.2218                16.1737                27.9035

                     85                     86                     87
                      A                      A                      A
 Frequencies --   3141.8366              3154.5530              3160.7072
 Red. masses --      1.1024                 1.0520                 1.0572
 Frc consts  --      6.4112                 6.1677                 6.2227
 IR Inten    --     50.6384                15.7496                 9.1578

                     88                     89                     90
                      A                      A                      A
 Frequencies --   3173.5531              3178.7450              3192.4866
 Red. masses --      1.1001                 1.0995                 1.0887
 Frc consts  --      6.5279                 6.5457                 6.5375
 IR Inten    --      2.6717                 6.5822                 3.8717

                     91                     92                     93
                      A                      A                      A
 Frequencies --   3232.2097              3246.0734              3280.7114
 Red. masses --      1.1200                 1.1161                 1.0972
 Frc consts  --      6.8941                 6.9289                 6.9580
 IR Inten    --      0.7619                18.8883                 0.0931

 - Thermochemistry -
 -------------------
 Temperature   298.150 Kelvin.  Pressure   1.00000 Atm.
 Atom     1 has atomic number  6 and mass  12.00000

 Molecular mass:   249.12257 amu.
 Principal axes and moments of inertia in atomic units:
                           1         2         3
     Eigenvalues --  2247.771297464.874439140.16198
           X            0.99994   0.01041  -0.00128
           Y           -0.01042   0.99993  -0.00589
           Z            0.00122   0.00590   0.99998
 This molecule is an asymmetric top.
 Rotational symmetry number  1.
 Warning -- assumption of classical behavior for rotation
           may cause significant error
 Rotational temperatures (Kelvin)      0.03853     0.01160     0.00948
 Rotational constants (GHZ):           0.80290     0.24176     0.19745
 Zero-point vibrational energy     694348.4 (Joules/Mol)
                                  165.95325 (Kcal/Mol)
 Warning -- explicit consideration of  27 degrees of freedom as
           vibrations may cause significant error
 Vibrational temperatures:     26.75    47.92    92.66   107.95   117.82
          (Kelvin)            163.66   169.68   185.42   223.77   267.99
                              306.00   332.71   350.01   370.82   398.97
                              420.66   474.90   507.15   538.54   605.24
                              614.69   649.70   664.99   684.66   769.48
                              780.24   883.70   929.43   971.72  1009.82
                             1079.90  1102.61  1123.72  1144.77  1165.48
                             1219.26  1243.33  1267.32  1325.97  1351.60
                             1355.35  1355.50  1417.37  1462.91  1534.17
                             1536.49  1541.75  1556.44  1574.32  1625.54
                             1641.74  1697.58  1734.66  1742.86  1768.10
                             1784.39  1855.22  1869.33  1894.69  1927.43
                             1953.80  2041.57  2053.18  2055.75  2092.50
                             2122.48  2147.56  2158.35  2185.69  2187.66
                             2195.41  2200.60  2207.46  2211.17  2239.55
                             2345.19  2659.80  3276.25  4404.59  4407.12
                             4416.78  4497.84  4500.53  4513.70  4520.40
                             4538.70  4547.55  4566.04  4573.51  4593.28
                             4650.43  4670.38  4720.21

 Zero-point correction=                           0.264463 (Hartree/Particle)
 Thermal correction to Energy=                    0.282224
 Thermal correction to Enthalpy=                  0.283168
 Thermal correction to Gibbs Free Energy=         0.217478
 Sum of electronic and zero-point Energies=           -852.109807
 Sum of electronic and thermal Energies=              -852.092047
 Sum of electronic and thermal Enthalpies=            -852.091102
 Sum of electronic and thermal Free Energies=         -852.156793

                     E (Thermal)             CV                S
                      KCal/Mol        Cal/Mol-Kelvin    Cal/Mol-Kelvin
 Total                  177.098             65.909            138.257
 Electronic               0.000              0.000              0.000
 Translational            0.889              2.981             42.439
 Rotational               0.889              2.981             33.394
 Vibrational            175.321             59.948             62.424
 Vibration     1          0.593              1.986              6.779
 Vibration     2          0.594              1.983              5.622
 Vibration     3          0.597              1.971              4.318
 Vibration     4          0.599              1.966              4.017
 Vibration     5          0.600              1.962              3.845
 Vibration     6          0.607              1.938              3.204
 Vibration     7          0.608              1.934              3.134
 Vibration     8          0.611              1.924              2.963
 Vibration     9          0.620              1.896              2.603
 Vibration    10          0.632              1.859              2.265
 Vibration    11          0.644              1.822              2.021
 Vibration    12          0.653              1.793              1.869
 Vibration    13          0.659              1.774              1.779
 Vibration    14          0.667              1.750              1.677
 Vibration    15          0.678              1.715              1.550
 Vibration    16          0.688              1.688              1.460
 Vibration    17          0.713              1.615              1.260
 Vibration    18          0.729              1.570              1.155
 Vibration    19          0.745              1.525              1.062
 Vibration    20          0.783              1.425              0.890
 Vibration    21          0.789              1.411              0.868
 Vibration    22          0.810              1.357              0.791
 Vibration    23          0.820              1.334              0.760
 Vibration    24          0.833              1.304              0.721
 Vibration    25          0.890              1.173              0.577
 Vibration    26          0.897              1.157              0.560
 Vibration    27          0.974              1.002              0.426

 Optimization completed.
    -- Stationary point found.
 Normal termination of Gaussian 16 at Fri Dec 11 22:42:20 2020.

 ----------------------------------------------------------------------
 # B3LYP/6-311++G(d,p) empiricaldispersion=gd3bj scf=xqc pop=npa geom=c
 heck
 ----------------------------------------------------------------------

 ---------------------------------------
 CID_150157508_JID_8847_Energie_neutraal
 ---------------------------------------
 Structure from the checkpoint file:  "JID_8847.chk"
 Charge =  0 Multiplicity = 1

 SCF Done:  E(RB3LYP) =  -852.605802427     A.U. after   17 cycles
 Normal termination of Gaussian 16 at Fri Dec 11 22:49:31 2020.

 ----------------------------------------------------------------------
 # B3LYP/6-311++G(d,p) empiricaldispersion=gd3bj scf=xqc pop=npa geom=c
 heck
 ----------------------------------------------------------------------

 -------------------------------------
 CID_150157508_JID_8847_Energie_kation
 -------------------------------------
 Structure from the checkpoint file:  "JID_8847.chk"
 Charge =  1 Multiplicity = 2

 SCF Done:  E(UB3LYP) =  -852.295542229     A.U. after   30 cycles
 Normal termination of Gaussian 16 at Fri Dec 11 23:08:00 2020.
 Gaussian 16:  ES64L-G16RevA.03 25-Dec-2016

 ----------------------------------------------------------------------
 # B3LYP/6-311++G(d,p) empiricaldispersion=gd3bj scf=xqc pop=npa geom=c
 heck
 ----------------------------------------------------------------------

 ------------------------------------
 CID_150157508_JID_8847_Energie_anion
 ------------------------------------
 Structure from the checkpoint file:  "JID_8847.chk"
 Charge = -1 Multiplicity = 2

                         Standard orientation:
 ---------------------------------------------------------------------
 Center     Atomic      Atomic             Coordinates (Angstroms)
 Number     Number       Type             X           Y           Z
 ---------------------------------------------------------------------
      1          6           0       -3.834563    0.968399    0.584910
      2          6           0       -3.245296   -0.360772    0.117044
      3          6           0       -3.665322   -1.503101    1.041737
      4          6           0       -3.592077   -0.628995   -1.347197
      5          8           0       -1.791589   -0.124797    0.246063
      6          6           0       -0.919078   -1.072808   -0.109677
      7          8           0       -1.153816   -2.196046   -0.476200
      8          7           0        0.401048   -0.564574    0.013249
      9          6           0        0.859354    0.733624    0.230096
     10          6           0        2.230099    0.642778    0.228483
     11          6           0        2.513045   -0.735823    0.003745
     12          7           0        1.422515   -1.464373   -0.127519
     13          7           0        3.754094   -1.388092   -0.086044
     14          7           0        4.760636   -0.679189    0.042756
     15          7           0        5.766031   -0.149878    0.141795
     16          6           0        0.007891    1.931985    0.379388
     17          6           0        0.573239    3.288715    0.038053
     18          6           0       -0.474242    2.672687   -0.851329
     19          1           0       -4.927236    0.926261    0.541839
     20          1           0       -3.492808    1.788218   -0.054166
     21          1           0       -3.536751    1.181321    1.616439
     22          1           0       -4.757070   -1.590245    1.035487
     23          1           0       -3.233837   -2.450901    0.718597
     24          1           0       -3.345036   -1.297199    2.068402
     25          1           0       -3.222291    0.185219   -1.979376
     26          1           0       -3.160421   -1.570270   -1.689733
     27          1           0       -4.680330   -0.680448   -1.457902
     28          1           0        2.930655    1.450742    0.377977
     29          1           0       -0.698414    1.892504    1.202004
     30          1           0        0.290187    4.121809    0.673982
     31          1           0        1.587781    3.343670   -0.344082
     32          1           0       -0.157160    2.293749   -1.818279
     33          1           0       -1.482606    3.074922   -0.831271
 ---------------------------------------------------------------------

 SCF Done:  E(UB3LYP) =  -852.605086738     A.U. after   33 cycles
 SCF Done:  E(UB3LYP) =  -852.605086739     a.u. after    1 cycles

 The electronic state is 2-A.
 Alpha  occ. eigenvalues --  -19.05489 -18.98775 -14.38139 -14.28522 -14.27843
 Alpha  occ. eigenvalues --  -14.26999 -14.20210 -10.20741 -10.15055 -10.12406
 Alpha  occ. eigenvalues --  -10.10484 -10.08726 -10.07938 -10.07560 -10.06810
 Alpha  occ. eigenvalues --  -10.06730 -10.06610 -10.06249  -1.04712  -1.00694
 Alpha  occ. eigenvalues --   -0.93470  -0.91078  -0.88847  -0.77019  -0.74146
 Alpha  occ. eigenvalues --   -0.70718  -0.67749  -0.60395  -0.60300  -0.58944
 Alpha  occ. eigenvalues --   -0.54521  -0.51678  -0.50925  -0.49163  -0.44022
 Alpha  occ. eigenvalues --   -0.42327  -0.41955  -0.41375  -0.39994  -0.39032
 Alpha  occ. eigenvalues --   -0.38144  -0.36938  -0.35938  -0.35914  -0.35277
 Alpha  occ. eigenvalues --   -0.34729  -0.33541  -0.31957  -0.31780  -0.29785
 Alpha  occ. eigenvalues --   -0.28845  -0.28251  -0.27805  -0.27189  -0.26407
 Alpha  occ. eigenvalues --   -0.25861  -0.24594  -0.22677  -0.21719  -0.21168
 Alpha  occ. eigenvalues --   -0.20896  -0.19571  -0.18088  -0.16846  -0.14359
 Alpha  occ. eigenvalues --   -0.12400   0.04018
 Alpha virt. eigenvalues --    0.05868   0.05934   0.06989   0.08159   0.08501
 Alpha virt. eigenvalues --    0.08987   0.09297   0.09664   0.09817   0.11128
 Alpha virt. eigenvalues --    0.11841   0.12027   0.12472   0.12972   0.13139

  Beta  occ. eigenvalues --  -19.05432 -18.98651 -14.37973 -14.28411 -14.27827
  Beta  occ. eigenvalues --  -14.27058 -14.19895 -10.20571 -10.15053 -10.12358
  Beta  occ. eigenvalues --  -10.10310 -10.08740 -10.07927 -10.07515 -10.06803
  Beta  occ. eigenvalues --  -10.06693 -10.06587 -10.06273  -1.04477  -1.00490
  Beta  occ. eigenvalues --   -0.93245  -0.90876  -0.88773  -0.76923  -0.73948
  Beta  occ. eigenvalues --   -0.70609  -0.67493  -0.60365  -0.60243  -0.58701
  Beta  occ. eigenvalues --   -0.54385  -0.51536  -0.50846  -0.49082  -0.43900
  Beta  occ. eigenvalues --   -0.42232  -0.41344  -0.41256  -0.39864  -0.38829
  Beta  occ. eigenvalues --   -0.37811  -0.36797  -0.35837  -0.35719  -0.34982
  Beta  occ. eigenvalues --   -0.34567  -0.33487  -0.31803  -0.31521  -0.29730
  Beta  occ. eigenvalues --   -0.28581  -0.28126  -0.27747  -0.27143  -0.26344
  Beta  occ. eigenvalues --   -0.25676  -0.24535  -0.22407  -0.21611  -0.21031
  Beta  occ. eigenvalues --   -0.20677  -0.19167  -0.17872  -0.16641  -0.13827
  Beta  occ. eigenvalues --   -0.11398
  Beta virt. eigenvalues --    0.06013   0.06428   0.07393   0.08089   0.08397
  Beta virt. eigenvalues --    0.08781   0.09487   0.09704   0.09883   0.10217
  Beta virt. eigenvalues --    0.11368   0.11894   0.12011   0.12632   0.13058

 Mulliken charges and spin densities:
               1          2
     1  C    0.724590  -1.136989
     2  C   -1.035091   0.976973
     3  C   -0.298003  -0.142504
     4  C    0.305230  -0.753143
     5  O    0.118519  -0.008263
     6  C    0.241555  -0.118430
     7  O   -0.247320   0.049792
     8  N   -0.135300   0.011919
     9  C    0.487892   0.034821
    10  C   -0.573863   0.440852
    11  C   -0.608307  -0.050002
    12  N    0.001779   0.115881
    13  N   -0.173329  -0.002450
    14  N    0.615882   0.030314
    15  N   -0.410698   0.059440
    16  C   -0.540418   0.490040
    17  C    0.394374  -0.832809
    18  C    0.025391  -0.495944
    19  H   -0.270691   0.418202
    20  H   -0.245009   0.403532
    21  H   -0.120827   0.271140
    22  H    0.052896   0.099484
    23  H    0.181388   0.003704
    24  H    0.124036   0.021133
    25  H    0.075603   0.062675
    26  H    0.111860   0.075582
    27  H   -0.113969   0.274567
    28  H    0.143606   0.041171
    29  H    0.135806   0.141678
    30  H   -0.194961   0.348745
    31  H    0.186739  -0.074854
    32  H    0.046370   0.123394
    33  H   -0.005731   0.120348
 Sum of Mulliken charges =  -1.00000   1.00000

 Dipole moment (field-independent basis, Debye):
    X=              0.6268    Y=              0.7482    Z=              0.3547  Tot=              1.0385
 Quadrupole moment (field-independent basis, Debye-Ang):
   XX=           -184.4516   YY=           -150.4261   ZZ=           -123.1543
   XY=             14.1113   XZ=             -1.4705   YZ=             -4.8114

 Summary of Natural Population Analysis:

                                       Natural Population
                Natural  -----------------------------------------------
    Atom  No    Charge         Core      Valence    Rydberg      Total
 -----------------------------------------------------------------------
      C    1   -0.28948      0.99960     2.28222    0.00766     3.28948
      C    2    0.13709      0.99954     1.84991    0.01346     2.86291
      C    3   -0.30141      0.99960     2.29558    0.00623     3.30141
      C    4   -0.30225      0.99960     2.29623    0.00643     3.30225
      O    5   -0.29217      0.99985     3.28174    0.01059     4.29217
      C    6    0.49674      0.99970     1.47817    0.02540     2.50326
      O    7   -0.29478      0.99986     3.29034    0.00458     4.29478
      N    8   -0.13978      0.99960     2.62670    0.01349     3.63978
      C    9    0.12601      0.99952     1.86236    0.01211     2.87399
      C   10   -0.17949      0.99945     2.17319    0.00684     3.17949
      C   11    0.14698      0.99951     1.83739    0.01612     2.85302
      N   12   -0.09562      0.99967     2.58626    0.00969     3.59562
      N   13   -0.17073      0.99963     2.65753    0.01357     3.67073
      N   14    0.13396      0.99971     2.35036    0.01597     3.36604
      N   15   -0.04332      0.99982     2.53030    0.01320     3.54332
      C   16   -0.13354      0.99956     2.12277    0.01121     3.13354
      C   17   -0.19463      0.99963     2.18744    0.00756     3.19463
      C   18   -0.18505      0.99962     2.17728    0.00815     3.18505
      H   19    0.10151      0.00000     0.39722    0.00127     0.39849
      H   20    0.10567      0.00000     0.39284    0.00149     0.39433
      H   21    0.10332      0.00000     0.39549    0.00120     0.39668
      H   22    0.09990      0.00000     0.39941    0.00069     0.40010
      H   23    0.11566      0.00000     0.38348    0.00086     0.38434
      H   24    0.10174      0.00000     0.39749    0.00077     0.39826
      H   25    0.10306      0.00000     0.39597    0.00097     0.39694
      H   26    0.11495      0.00000     0.38418    0.00087     0.38505
      H   27    0.10154      0.00000     0.39763    0.00083     0.39846
      H   28    0.10758      0.00000     0.39127    0.00114     0.39242
      H   29    0.11875      0.00000     0.37981    0.00144     0.38125
      H   30    0.10240      0.00000     0.39672    0.00088     0.39760
      H   31    0.10061      0.00000     0.39849    0.00090     0.39939
      H   32    0.10130      0.00000     0.39777    0.00092     0.39870
      H   33    0.10352      0.00000     0.39495    0.00152     0.39648
 =======================================================================
   * Total *   -0.00000     17.99345    47.78852    0.21803    66.00000

 Normal termination of Gaussian 16 at Fri Dec 11 23:28:31 2020.
