 Gaussian 16, Revision A.03,

 -----------------------------------------------------------
 # opt freq B3LYP/6-31G(d) empiricaldispersion=gd3bj scf=xqc
 -----------------------------------------------------------

 -------------------------------
 CID_107762896_JID_2663_neutraal
 -------------------------------
 Symbolic Z-matrix:
 Charge =  0 Multiplicity = 1

 SCF Done:  E(RB3LYP) =  -847.904897074     A.U. after   12 cycles
 SCF Done:  E(RB3LYP) =  -847.907434715     A.U. after   11 cycles
 SCF Done:  E(RB3LYP) =  -847.899199306     A.U. after   13 cycles
 SCF Done:  E(RB3LYP) =  -847.906279463     A.U. after   11 cycles
 SCF Done:  E(RB3LYP) =  -847.908442648     A.U. after    8 cycles
 SCF Done:  E(RB3LYP) =  -847.908692352     A.U. after   11 cycles
 SCF Done:  E(RB3LYP) =  -847.909526777     A.U. after   11 cycles
 SCF Done:  E(RB3LYP) =  -847.910615746     A.U. after   11 cycles
 SCF Done:  E(RB3LYP) =  -847.912723664     A.U. after   13 cycles
 SCF Done:  E(RB3LYP) =  -847.913424257     A.U. after   11 cycles
 SCF Done:  E(RB3LYP) =  -847.913764270     A.U. after    9 cycles
 SCF Done:  E(RB3LYP) =  -847.913771474     A.U. after    8 cycles
 SCF Done:  E(RB3LYP) =  -847.913773394     A.U. after    8 cycles
 SCF Done:  E(RB3LYP) =  -847.913773993     A.U. after    8 cycles
 SCF Done:  E(RB3LYP) =  -847.913774289     A.U. after    6 cycles
 SCF Done:  E(RB3LYP) =  -847.913774418     A.U. after    6 cycles
 Optimization completed.
    -- Stationary point found.
 Normal termination of Gaussian 16 at Wed Dec  9 18:01:45 2020.

 --------------------------------------------------------------------
 #N Geom=AllCheck Guess=TCheck SCRF=Check GenChk RB3LYP/6-31G(d) Freq
 --------------------------------------------------------------------

 Structure from the checkpoint file:  "JID_2663.chk"
 -------------------------------
 CID_107762896_JID_2663_neutraal
 -------------------------------
 Charge =  0 Multiplicity = 1

 SCF Done:  E(RB3LYP) =  -847.913774418     A.U. after    1 cycles

  Exact polarizability: 149.614   2.768 132.148   4.006  -0.882 110.797
 Approx polarizability: 187.124   0.621 180.307   6.987  -1.334 170.460

                      1                      2                      3
                      A                      A                      A
 Frequencies --     25.9969                34.6018                58.2636
 Red. masses --      3.7304                 2.6931                 3.1852
 Frc consts  --      0.0015                 0.0019                 0.0064
 IR Inten    --      0.0898                 0.5982                 0.7429

                      4                      5                      6
                      A                      A                      A
 Frequencies --     70.6949                82.4366               102.1658
 Red. masses --      2.7456                 2.2724                 2.0888
 Frc consts  --      0.0081                 0.0091                 0.0128
 IR Inten    --      0.2768                 0.9530                 0.1705

                      7                      8                      9
                      A                      A                      A
 Frequencies --    137.6147               148.8123               183.8117
 Red. masses --      2.4671                 2.7593                 2.5390
 Frc consts  --      0.0275                 0.0360                 0.0505
 IR Inten    --      0.1957                 0.6578                 0.2147

                     10                     11                     12
                      A                      A                      A
 Frequencies --    204.6918               221.1253               229.8876
 Red. masses --      2.1168                 1.2773                 1.5580
 Frc consts  --      0.0523                 0.0368                 0.0485
 IR Inten    --      2.1099                 0.0971                 0.5823

                     13                     14                     15
                      A                      A                      A
 Frequencies --    259.3165               279.9889               309.5081
 Red. masses --      1.2581                 1.8068                 2.6060
 Frc consts  --      0.0498                 0.0835                 0.1471
 IR Inten    --      0.4859                 0.1960                 3.7599

                     16                     17                     18
                      A                      A                      A
 Frequencies --    321.2027               338.1212               385.7815
 Red. masses --      2.5572                 2.2311                 2.8620
 Frc consts  --      0.1554                 0.1503                 0.2510
 IR Inten    --      0.6215                 0.4756                 1.9276

                     19                     20                     21
                      A                      A                      A
 Frequencies --    416.5000               458.2057               497.2820
 Red. masses --      1.8337                 2.1432                 2.2485
 Frc consts  --      0.1874                 0.2651                 0.3276
 IR Inten    --      0.7033                 1.5454                 0.8444

                     22                     23                     24
                      A                      A                      A
 Frequencies --    513.4368               645.1816               726.9973
 Red. masses --      2.6328                 3.3856                 2.9913
 Frc consts  --      0.4089                 0.8303                 0.9315
 IR Inten    --      4.8333                 1.0392                16.4422

                     25                     26                     27
                      A                      A                      A
 Frequencies --    745.9830               756.7089               772.4078
 Red. masses --      1.4509                 1.2919                 1.6806
 Frc consts  --      0.4757                 0.4358                 0.5908
 IR Inten    --      5.5198                36.3372                18.6656

                     28                     29                     30
                      A                      A                      A
 Frequencies --    783.7955               856.3130               862.4448
 Red. masses --      1.8419                 1.8027                 1.6253
 Frc consts  --      0.6667                 0.7788                 0.7123
 IR Inten    --     32.8867                 4.0483                16.5818

                     31                     32                     33
                      A                      A                      A
 Frequencies --    881.4929               931.5886               949.0146
 Red. masses --      1.8236                 1.7229                 1.5863
 Frc consts  --      0.8349                 0.8810                 0.8417
 IR Inten    --      1.9190                 2.6160                 2.1828

                     34                     35                     36
                      A                      A                      A
 Frequencies --    961.1664               981.9604              1034.0342
 Red. masses --      1.5017                 1.7026                 1.6873
 Frc consts  --      0.8174                 0.9673                 1.0630
 IR Inten    --      0.8617                 1.2295                 1.0120

                     37                     38                     39
                      A                      A                      A
 Frequencies --   1039.1841              1059.9672              1087.8992
 Red. masses --      2.0493                 1.9302                 1.9283
 Frc consts  --      1.3039                 1.2777                 1.3447
 IR Inten    --      1.1005                 6.9686                 1.4206

                     40                     41                     42
                      A                      A                      A
 Frequencies --   1095.0482              1121.8177              1125.7939
 Red. masses --      1.4975                 2.2121                 1.6384
 Frc consts  --      1.0580                 1.6402                 1.2235
 IR Inten    --      4.3335                 3.0990                13.2888

                     43                     44                     45
                      A                      A                      A
 Frequencies --   1134.4317              1151.9615              1178.6467
 Red. masses --      1.9774                 1.7108                 1.5297
 Frc consts  --      1.4993                 1.3376                 1.2520
 IR Inten    --      0.5890                20.1077                 8.5426

                     46                     47                     48
                      A                      A                      A
 Frequencies --   1203.6291              1209.2950              1241.3845
 Red. masses --      1.8636                 1.2764                 1.4101
 Frc consts  --      1.5907                 1.0998                 1.2803
 IR Inten    --     43.8700                 4.3253                 1.5205

                     49                     50                     51
                      A                      A                      A
 Frequencies --   1250.3566              1283.7436              1304.5490
 Red. masses --      1.4688                 1.3990                 1.2208
 Frc consts  --      1.3529                 1.3584                 1.2241
 IR Inten    --      5.5213                 6.9290                 0.5035

                     52                     53                     54
                      A                      A                      A
 Frequencies --   1324.9161              1329.2767              1351.5331
 Red. masses --      1.1887                 1.2155                 1.1289
 Frc consts  --      1.2294                 1.2654                 1.2150
 IR Inten    --      0.7382                 7.6311                11.9402

                     55                     56                     57
                      A                      A                      A
 Frequencies --   1358.7199              1381.1350              1386.6686
 Red. masses --      1.2815                 1.2974                 1.3916
 Frc consts  --      1.3939                 1.4581                 1.5765
 IR Inten    --      2.2082                 4.7943                 4.7358

                     58                     59                     60
                      A                      A                      A
 Frequencies --   1401.3182              1410.3467              1418.1843
 Red. masses --      1.4486                 1.4430                 1.4124
 Frc consts  --      1.6760                 1.6911                 1.6737
 IR Inten    --     15.6040                 1.2344                 2.1544

                     61                     62                     63
                      A                      A                      A
 Frequencies --   1434.8845              1443.7461              1481.8488
 Red. masses --      1.2555                 1.2650                 1.1593
 Frc consts  --      1.5230                 1.5535                 1.4999
 IR Inten    --     11.2760                 5.0025                 2.3832

                     64                     65                     66
                      A                      A                      A
 Frequencies --   1491.9862              1503.5278              1506.1115
 Red. masses --      1.0861                 1.1062                 1.1400
 Frc consts  --      1.4244                 1.4733                 1.5236
 IR Inten    --      3.0515                 5.7895                10.1328

                     67                     68                     69
                      A                      A                      A
 Frequencies --   1509.8501              1515.7228              1519.7927
 Red. masses --      1.0761                 1.0766                 1.0674
 Frc consts  --      1.4454                 1.4573                 1.4526
 IR Inten    --      2.7865                 2.7627                 7.1086

                     70                     71                     72
                      A                      A                      A
 Frequencies --   1524.5998              1525.7859              1528.9998
 Red. masses --      1.0809                 1.0740                 1.0801
 Frc consts  --      1.4804                 1.4731                 1.4878
 IR Inten    --      5.1003                 3.7392                 4.9241

                     73                     74                     75
                      A                      A                      A
 Frequencies --   1535.1313              1541.5026              1542.6548
 Red. masses --      1.0577                 1.0651                 1.0732
 Frc consts  --      1.4687                 1.4912                 1.5048
 IR Inten    --      5.9176                 4.4475                12.0288

                     76                     77                     78
                      A                      A                      A
 Frequencies --   1550.6667              2971.1443              3016.0338
 Red. masses --      1.0451                 1.0584                 1.0829
 Frc consts  --      1.4806                 5.5047                 5.8038
 IR Inten    --      8.4420                92.4085                15.3221

                     79                     80                     81
                      A                      A                      A
 Frequencies --   3030.8675              3035.1643              3040.9130
 Red. masses --      1.0654                 1.0643                 1.0455
 Frc consts  --      5.7663                 5.7768                 5.6959
 IR Inten    --     16.8232                30.2088                17.3438

                     82                     83                     84
                      A                      A                      A
 Frequencies --   3042.4974              3046.0106              3046.4820
 Red. masses --      1.0613                 1.0589                 1.0412
 Frc consts  --      5.7882                 5.7885                 5.6934
 IR Inten    --     19.9827                33.3335                19.6631

                     85                     86                     87
                      A                      A                      A
 Frequencies --   3070.7981              3072.0110              3073.3485
 Red. masses --      1.0957                 1.0750                 1.0781
 Frc consts  --      6.0877                 5.9771                 5.9995
 IR Inten    --     11.7210                41.3511                17.9827

                     88                     89                     90
                      A                      A                      A
 Frequencies --   3076.1976              3080.1347              3084.9806
 Red. masses --      1.0642                 1.0784                 1.0966
 Frc consts  --      5.9336                 6.0282                 6.1492
 IR Inten    --     26.9504                24.2025                63.5285

                     91                     92                     93
                      A                      A                      A
 Frequencies --   3098.2827              3109.1369              3111.3975
 Red. masses --      1.0950                 1.0980                 1.1017
 Frc consts  --      6.1931                 6.2535                 6.2836
 IR Inten    --     30.8312                39.2866                55.0767

                     94                     95                     96
                      A                      A                      A
 Frequencies --   3116.4616              3116.7205              3122.2579
 Red. masses --      1.1025                 1.1020                 1.1033
 Frc consts  --      6.3089                 6.3071                 6.3368
 IR Inten    --     39.3584                46.9858                32.5979

                     97                     98                     99
                      A                      A                      A
 Frequencies --   3123.5123              3128.3224              3476.8600
 Red. masses --      1.1014                 1.1048                 1.0734
 Frc consts  --      6.3313                 6.3700                 7.6453
 IR Inten    --      9.8562                30.2290                 1.3515

 - Thermochemistry -
 -------------------
 Temperature   298.150 Kelvin.  Pressure   1.00000 Atm.
 Atom     1 has atomic number  6 and mass  12.00000

 Molecular mass:   189.15512 amu.
 Principal axes and moments of inertia in atomic units:
                           1         2         3
     Eigenvalues --  1976.475374383.607285642.12727
           X            0.99972  -0.02327   0.00495
           Y            0.02331   0.99969  -0.00895
           Z           -0.00474   0.00906   0.99995
 This molecule is an asymmetric top.
 Rotational symmetry number  1.
 Warning -- assumption of classical behavior for rotation
           may cause significant error
 Rotational temperatures (Kelvin)      0.04382     0.01976     0.01535
 Rotational constants (GHZ):           0.91311     0.41170     0.31987
 Zero-point vibrational energy     850931.8 (Joules/Mol)
                                  203.37758 (Kcal/Mol)
 Warning -- explicit consideration of  22 degrees of freedom as
           vibrations may cause significant error
 Vibrational temperatures:     37.40    49.78    83.83   101.71   118.61
          (Kelvin)            146.99   198.00   214.11   264.46   294.51
                              318.15   330.76   373.10   402.84   445.31
                              462.14   486.48   555.05   599.25   659.26
                              715.48   738.72   928.27  1045.99  1073.30
                             1088.74  1111.32  1127.71  1232.04  1240.87
                             1268.27  1340.35  1365.42  1382.90  1412.82
                             1487.74  1495.15  1525.06  1565.24  1575.53
                             1614.05  1619.77  1632.19  1657.42  1695.81
                             1731.75  1739.91  1786.08  1798.98  1847.02
                             1876.96  1906.26  1912.53  1944.55  1954.89
                             1987.15  1995.11  2016.18  2029.17  2040.45
                             2064.48  2077.23  2132.05  2146.64  2163.24
                             2166.96  2172.34  2180.79  2186.64  2193.56
                             2195.27  2199.89  2208.71  2217.88  2219.54
                             2231.06  4274.81  4339.40  4360.74  4366.92
                             4375.20  4377.48  4382.53  4383.21  4418.19
                             4419.94  4421.86  4425.96  4431.63  4438.60
                             4457.74  4473.35  4476.61  4483.89  4484.27
                             4492.23  4494.04  4500.96  5002.43

 Zero-point correction=                           0.324103 (Hartree/Particle)
 Thermal correction to Energy=                    0.340144
 Thermal correction to Enthalpy=                  0.341088
 Thermal correction to Gibbs Free Energy=         0.279337
 Sum of electronic and zero-point Energies=           -847.589672
 Sum of electronic and thermal Energies=              -847.573630
 Sum of electronic and thermal Enthalpies=            -847.572686
 Sum of electronic and thermal Free Energies=         -847.634437

                     E (Thermal)             CV                S
                      KCal/Mol        Cal/Mol-Kelvin    Cal/Mol-Kelvin
 Total                  213.444             57.985            129.966
 Electronic               0.000              0.000              0.000
 Translational            0.889              2.981             41.618
 Rotational               0.889              2.981             32.258
 Vibrational            211.666             52.023             56.089
 Vibration     1          0.593              1.985              6.114
 Vibration     2          0.594              1.983              5.546
 Vibration     3          0.596              1.974              4.515
 Vibration     4          0.598              1.968              4.134
 Vibration     5          0.600              1.961              3.832
 Vibration     6          0.604              1.947              3.413
 Vibration     7          0.614              1.916              2.837
 Vibration     8          0.618              1.904              2.687
 Vibration     9          0.631              1.862              2.289
 Vibration    10          0.640              1.833              2.091
 Vibration    11          0.648              1.809              1.950
 Vibration    12          0.652              1.795              1.880
 Vibration    13          0.668              1.747              1.666
 Vibration    14          0.680              1.711              1.534
 Vibration    15          0.699              1.656              1.365
 Vibration    16          0.707              1.633              1.304
 Vibration    17          0.718              1.599              1.221
 Vibration    18          0.754              1.501              1.016
 Vibration    19          0.780              1.434              0.904
 Vibration    20          0.816              1.343              0.771
 Vibration    21          0.853              1.256              0.665
 Vibration    22          0.869              1.220              0.625

                           ! Non-Optimized Parameters !
 Normal termination of Gaussian 16 at Wed Dec  9 18:10:32 2020.

 ----------------------------------------------------------------------
 # B3LYP/6-311++G(d,p) empiricaldispersion=gd3bj scf=xqc pop=npa geom=c
 heck
 ----------------------------------------------------------------------

 ---------------------------------------
 CID_107762896_JID_2663_Energie_neutraal
 ---------------------------------------
 Structure from the checkpoint file:  "JID_2663.chk"
 Charge =  0 Multiplicity = 1

 SCF Done:  E(RB3LYP) =  -848.072706748     A.U. after   13 cycles
 Normal termination of Gaussian 16 at Wed Dec  9 18:14:31 2020.

 ----------------------------------------------------------------------
 # B3LYP/6-311++G(d,p) empiricaldispersion=gd3bj scf=xqc pop=npa geom=c
 heck
 ----------------------------------------------------------------------

 -------------------------------------
 CID_107762896_JID_2663_Energie_kation
 -------------------------------------
 Structure from the checkpoint file:  "JID_2663.chk"
 Charge =  1 Multiplicity = 2

 SCF Done:  E(UB3LYP) =  -847.786786938     A.U. after   21 cycles
 Normal termination of Gaussian 16 at Wed Dec  9 18:23:39 2020.
 Gaussian 16:  ES64L-G16RevA.03 25-Dec-2016

 ----------------------------------------------------------------------
 # B3LYP/6-311++G(d,p) empiricaldispersion=gd3bj scf=xqc pop=npa geom=c
 heck
 ----------------------------------------------------------------------

 ------------------------------------
 CID_107762896_JID_2663_Energie_anion
 ------------------------------------
 Structure from the checkpoint file:  "JID_2663.chk"
 Charge = -1 Multiplicity = 2

                         Standard orientation:
 ---------------------------------------------------------------------
 Center     Atomic      Atomic             Coordinates (Angstroms)
 Number     Number       Type             X           Y           Z
 ---------------------------------------------------------------------
      1          6           0       -2.157803    2.928269   -0.252824
      2          6           0       -1.622442    1.833367    0.674731
      3          6           0       -2.649258    0.740052    1.009718
      4          6           0       -3.203989   -0.033517   -0.193768
      5          6           0       -2.165580   -0.772684   -1.044530
      6         16           0       -1.308688   -2.172629   -0.211995
      7          6           0        0.165029   -1.382170    0.548965
      8          6           0        1.168301   -0.812769   -0.452922
      9          6           0        2.321587   -0.034867    0.201356
     10          6           0        3.170844   -0.923309    1.125140
     11          7           0        3.079395    0.626724   -0.866860
     12          6           0        4.059441    1.607908   -0.418510
     13          1           0       -2.409152    2.533395   -1.243493
     14          1           0       -1.416327    3.722070   -0.394928
     15          1           0       -3.065061    3.386094    0.160475
     16          1           0       -0.727482    1.387331    0.222925
     17          1           0       -1.285796    2.290253    1.614737
     18          1           0       -2.207801    0.025735    1.715617
     19          1           0       -3.494136    1.203503    1.537584
     20          1           0       -3.942808   -0.760206    0.164566
     21          1           0       -3.745746    0.655317   -0.857245
     22          1           0       -2.660290   -1.231503   -1.906601
     23          1           0       -1.413122   -0.088511   -1.447748
     24          1           0       -0.152997   -0.613687    1.259577
     25          1           0        0.612825   -2.191610    1.133764
     26          1           0        1.571506   -1.631908   -1.063891
     27          1           0        0.671320   -0.124631   -1.144251
     28          1           0        1.882691    0.773417    0.805551
     29          1           0        3.579639   -1.775271    0.565774
     30          1           0        4.009605   -0.366979    1.555382
     31          1           0        2.582373   -1.321744    1.958877
     32          1           0        3.541410   -0.084119   -1.433037
     33          1           0        4.854735    1.220377    0.242268
     34          1           0        4.540479    2.058229   -1.293118
     35          1           0        3.540606    2.407774    0.123017
 ---------------------------------------------------------------------

 SCF Done:  E(UB3LYP) =  -848.057737515     A.U. after   28 cycles

 The electronic state is 2-A.
 Alpha  occ. eigenvalues --  -88.74320 -14.19956 -10.10493 -10.10475 -10.10429
 Alpha  occ. eigenvalues --  -10.08544 -10.07745 -10.07439 -10.07117 -10.06978
 Alpha  occ. eigenvalues --  -10.06254 -10.06116  -7.82925  -5.79324  -5.78949
 Alpha  occ. eigenvalues --   -5.78299  -0.81014  -0.73082  -0.70442  -0.67440
 Alpha  occ. eigenvalues --   -0.64302  -0.60670  -0.58398  -0.56213  -0.53236
 Alpha  occ. eigenvalues --   -0.49893  -0.48441  -0.45434  -0.39495  -0.38513
 Alpha  occ. eigenvalues --   -0.37976  -0.36745  -0.35660  -0.34212  -0.33206
 Alpha  occ. eigenvalues --   -0.32816  -0.32073  -0.30901  -0.29390  -0.28763
 Alpha  occ. eigenvalues --   -0.28329  -0.28232  -0.27234  -0.26707  -0.26022
 Alpha  occ. eigenvalues --   -0.24407  -0.24198  -0.23313  -0.22969  -0.22455
 Alpha  occ. eigenvalues --   -0.20601  -0.13389  -0.12835   0.04330
 Alpha virt. eigenvalues --    0.05925   0.06959   0.07171   0.08107   0.08191
 Alpha virt. eigenvalues --    0.08699   0.09495   0.09975   0.10503   0.10627
 Alpha virt. eigenvalues --    0.11190   0.11435   0.11554   0.12492   0.12933

  Beta  occ. eigenvalues --  -88.74319 -14.19944 -10.10486 -10.10463 -10.10420
  Beta  occ. eigenvalues --  -10.08505 -10.07731 -10.07432 -10.07105 -10.06963
  Beta  occ. eigenvalues --  -10.06219 -10.06083  -7.82924  -5.79323  -5.78945
  Beta  occ. eigenvalues --   -5.78297  -0.80991  -0.73063  -0.70420  -0.67412
  Beta  occ. eigenvalues --   -0.64267  -0.60630  -0.58343  -0.56153  -0.53180
  Beta  occ. eigenvalues --   -0.49845  -0.48398  -0.45386  -0.39461  -0.38490
  Beta  occ. eigenvalues --   -0.37932  -0.36716  -0.35623  -0.34180  -0.33181
  Beta  occ. eigenvalues --   -0.32780  -0.32035  -0.30866  -0.29353  -0.28722
  Beta  occ. eigenvalues --   -0.28299  -0.28202  -0.27201  -0.26674  -0.25992
  Beta  occ. eigenvalues --   -0.24380  -0.24159  -0.23286  -0.22940  -0.22424
  Beta  occ. eigenvalues --   -0.20584  -0.13378  -0.12815
  Beta virt. eigenvalues --    0.06346   0.06813   0.07464   0.07643   0.08515
  Beta virt. eigenvalues --    0.08636   0.09167   0.09767   0.10307   0.10710
  Beta virt. eigenvalues --    0.10955   0.11462   0.11767   0.11917   0.12675

 Mulliken charges and spin densities:
               1          2
     1  C    0.548034  -1.184584
     2  C   -0.744313   0.589061
     3  C   -0.119913  -0.045260
     4  C    0.251812  -0.714602
     5  C   -0.261433   0.160036
     6  S    0.055870  -0.097508
     7  C   -0.176127  -0.289835
     8  C    0.312271  -0.520133
     9  C   -1.425037   0.981933
    10  C    0.595739  -1.171237
    11  N   -0.043488   0.091017
    12  C    0.885887  -1.207420
    13  H   -0.132625   0.278475
    14  H   -0.236022   0.382785
    15  H   -0.289653   0.427080
    16  H    1.278400  -1.183658
    17  H   -0.394636   0.561339
    18  H    0.053179   0.074682
    19  H   -0.128473   0.300394
    20  H    0.062151   0.072608
    21  H   -0.144253   0.285527
    22  H    0.025091   0.237279
    23  H    0.160476  -0.080000
    24  H    0.009153   0.175296
    25  H    0.219934   0.018521
    26  H    0.035465   0.071182
    27  H   -0.101542   0.306702
    28  H    0.152202  -0.005672
    29  H   -0.189378   0.337463
    30  H   -0.253640   0.400881
    31  H   -0.205246   0.342062
    32  H    0.113300   0.104090
    33  H   -0.358722   0.477906
    34  H   -0.246463   0.376915
    35  H   -0.307999   0.446673
 Sum of Mulliken charges =  -1.00000   1.00000

 Dipole moment (field-independent basis, Debye):
    X=             -3.1822    Y=             -4.6133    Z=             -1.0131  Tot=              5.6952
 Quadrupole moment (field-independent basis, Debye-Ang):
   XX=           -174.7762   YY=           -143.4606   ZZ=           -122.0954
   XY=              0.9718   XZ=             -3.5230   YZ=             -0.4684

 Summary of Natural Population Analysis:

                                       Natural Population
                Natural  -----------------------------------------------
    Atom  No    Charge         Core      Valence    Rydberg      Total
 -----------------------------------------------------------------------
      C    1   -0.28643      0.99967     2.28164    0.00513     3.28643
      C    2   -0.19586      0.99964     2.18775    0.00847     3.19586
      C    3   -0.19173      0.99962     2.18320    0.00890     3.19173
      C    4   -0.19669      0.99961     2.18712    0.00995     3.19669
      C    5   -0.25415      0.99958     2.24350    0.01108     3.25415
      S    6    0.07985      4.99963     2.90357    0.01695     7.92015
      C    7   -0.24828      0.99957     2.24035    0.00836     3.24828
      C    8   -0.19732      0.99959     2.18774    0.00999     3.19732
      C    9   -0.01065      0.99959     1.99862    0.01243     3.01065
      C   10   -0.29737      0.99965     2.29166    0.00607     3.29737
      N   11   -0.33805      0.99974     2.82622    0.01209     3.83805
      C   12   -0.17919      0.99966     2.17099    0.00854     3.17919
      H   13    0.09458      0.00000     0.40427    0.00115     0.40542
      H   14    0.10197      0.00000     0.39708    0.00095     0.39803
      H   15    0.09617      0.00000     0.40256    0.00127     0.40383
      H   16    0.09268      0.00000     0.40464    0.00269     0.40732
      H   17    0.09762      0.00000     0.40110    0.00128     0.40238
      H   18    0.09763      0.00000     0.40102    0.00134     0.40237
      H   19    0.09730      0.00000     0.40163    0.00107     0.40270
      H   20    0.09839      0.00000     0.40025    0.00136     0.40161
      H   21    0.09862      0.00000     0.40010    0.00128     0.40138
      H   22    0.10558      0.00000     0.39346    0.00096     0.39442
      H   23    0.10368      0.00000     0.39468    0.00165     0.39632
      H   24    0.10099      0.00000     0.39712    0.00189     0.39901
      H   25    0.10570      0.00000     0.39311    0.00119     0.39430
      H   26    0.09647      0.00000     0.40193    0.00159     0.40353
      H   27    0.10346      0.00000     0.39444    0.00210     0.39654
      H   28    0.08944      0.00000     0.40805    0.00251     0.41056
      H   29    0.09545      0.00000     0.40325    0.00131     0.40455
      H   30    0.10428      0.00000     0.39451    0.00122     0.39572
      H   31    0.09947      0.00000     0.39944    0.00109     0.40053
      H   32    0.16827      0.00000     0.32904    0.00269     0.33173
      H   33    0.08058      0.00000     0.41732    0.00209     0.41942
      H   34    0.09452      0.00000     0.40445    0.00102     0.40548
      H   35    0.09301      0.00000     0.40550    0.00148     0.40699
 =======================================================================
   * Total *    0.00000     15.99555    36.85131    0.15314    53.00000

 Normal termination of Gaussian 16 at Wed Dec  9 18:34:55 2020.
