 Gaussian 16, Revision A.03,

 -----------------------------------------------------------
 # opt freq B3LYP/6-31G(d) empiricaldispersion=gd3bj scf=xqc
 -----------------------------------------------------------

 --------------------------------
 CID_103381680_JID_10376_neutraal
 --------------------------------
 Symbolic Z-matrix:
 Charge =  0 Multiplicity = 1

 SCF Done:  E(RB3LYP) =  -1276.34704262     A.U. after   15 cycles
 SCF Done:  E(RB3LYP) =  -1276.35321032     A.U. after   13 cycles
 SCF Done:  E(RB3LYP) =  -1276.35089002     A.U. after   15 cycles
 SCF Done:  E(RB3LYP) =  -1276.35556802     A.U. after   12 cycles
 SCF Done:  E(RB3LYP) =  -1276.35674055     A.U. after   12 cycles
 SCF Done:  E(RB3LYP) =  -1276.35782926     A.U. after   12 cycles
 SCF Done:  E(RB3LYP) =  -1276.35874186     A.U. after   13 cycles
 SCF Done:  E(RB3LYP) =  -1276.35982719     A.U. after   12 cycles
 SCF Done:  E(RB3LYP) =  -1276.36128941     A.U. after   13 cycles
 SCF Done:  E(RB3LYP) =  -1276.36133300     A.U. after   13 cycles
 SCF Done:  E(RB3LYP) =  -1276.36261013     A.U. after    8 cycles
 SCF Done:  E(RB3LYP) =  -1276.36261101     A.U. after    8 cycles
 SCF Done:  E(RB3LYP) =  -1276.36261161     A.U. after    8 cycles
 SCF Done:  E(RB3LYP) =  -1276.36261177     A.U. after    8 cycles
 SCF Done:  E(RB3LYP) =  -1276.36261182     A.U. after    7 cycles
 Optimization completed.
    -- Stationary point found.
 Normal termination of Gaussian 16 at Mon Dec 14 19:19:59 2020.

 --------------------------------------------------------------------
 #N Geom=AllCheck Guess=TCheck SCRF=Check GenChk RB3LYP/6-31G(d) Freq
 --------------------------------------------------------------------

 Structure from the checkpoint file:  "JID_10376.chk"
 --------------------------------
 CID_103381680_JID_10376_neutraal
 --------------------------------
 Charge =  0 Multiplicity = 1

 SCF Done:  E(RB3LYP) =  -1276.36261182     A.U. after    1 cycles

  Exact polarizability: 194.154   1.573 190.004 -23.572   1.151 160.916
 Approx polarizability: 272.348   4.209 296.954 -60.938   4.540 265.383

                      1                      2                      3
                      A                      A                      A
 Frequencies --     23.7877                39.2486                49.2954
 Red. masses --      5.0345                 3.8549                 3.2743
 Frc consts  --      0.0017                 0.0035                 0.0047
 IR Inten    --      0.4377                 0.4579                 0.3478

                      4                      5                      6
                      A                      A                      A
 Frequencies --     53.4702                82.6219                88.7660
 Red. masses --      3.2324                 4.8396                 4.7823
 Frc consts  --      0.0054                 0.0195                 0.0222
 IR Inten    --      0.7609                 1.1754                 0.1303

                      7                      8                      9
                      A                      A                      A
 Frequencies --    107.7438               113.2337               136.6133
 Red. masses --      4.4111                 3.4343                 3.4495
 Frc consts  --      0.0302                 0.0259                 0.0379
 IR Inten    --      1.6222                 2.3460                 1.0766

                     10                     11                     12
                      A                      A                      A
 Frequencies --    177.8707               218.2008               236.4016
 Red. masses --      3.8844                 1.0802                 1.3671
 Frc consts  --      0.0724                 0.0303                 0.0450
 IR Inten    --      1.6113                 0.0377                 0.8062

                     13                     14                     15
                      A                      A                      A
 Frequencies --    237.7645               240.1668               260.9058
 Red. masses --      2.8649                 1.6729                 2.5095
 Frc consts  --      0.0954                 0.0569                 0.1006
 IR Inten    --      1.0729                 0.3542                 3.5597

                     16                     17                     18
                      A                      A                      A
 Frequencies --    272.8926               276.1714               288.9642
 Red. masses --      2.5431                 3.2402                 3.9752
 Frc consts  --      0.1116                 0.1456                 0.1956
 IR Inten    --      5.7780                 1.4742                 1.4548

                     19                     20                     21
                      A                      A                      A
 Frequencies --    318.2643               334.4967               345.6602
 Red. masses --      2.5761                 2.6279                 2.8974
 Frc consts  --      0.1537                 0.1732                 0.2040
 IR Inten    --      2.9223                 1.2152                 1.1577

                     22                     23                     24
                      A                      A                      A
 Frequencies --    365.3075               380.1526               410.5087
 Red. masses --      3.8729                 3.8747                 3.2660
 Frc consts  --      0.3045                 0.3299                 0.3243
 IR Inten    --      3.4669                 4.8895                 6.0897

                     25                     26                     27
                      A                      A                      A
 Frequencies --    425.4247               457.4259               476.1542
 Red. masses --      3.4921                 3.0232                 2.0781
 Frc consts  --      0.3724                 0.3727                 0.2776
 IR Inten    --     15.7404                 4.1801                 5.3374

                     28                     29                     30
                      A                      A                      A
 Frequencies --    483.1722               493.7795               511.8996
 Red. masses --      1.7483                 1.8879                 3.8304
 Frc consts  --      0.2405                 0.2712                 0.5914
 IR Inten    --     20.6062                 6.7087                 2.7324

                     31                     32                     33
                      A                      A                      A
 Frequencies --    553.8075               572.0858               589.5384
 Red. masses --      4.0463                 4.1950                 6.3101
 Frc consts  --      0.7312                 0.8089                 1.2921
 IR Inten    --     40.8304                 8.6845                46.2232

                     34                     35                     36
                      A                      A                      A
 Frequencies --    607.6901               627.4072               645.4507
 Red. masses --      3.1008                 2.7045                 2.1552
 Frc consts  --      0.6747                 0.6272                 0.5290
 IR Inten    --      3.3054                96.0571                14.5522

                     37                     38                     39
                      A                      A                      A
 Frequencies --    668.6555               697.7796               737.8202
 Red. masses --      2.8815                 2.2174                 2.9119
 Frc consts  --      0.7591                 0.6361                 0.9340
 IR Inten    --     26.3811               136.1217                42.6599

                     40                     41                     42
                      A                      A                      A
 Frequencies --    786.3539               788.8676               814.2299
 Red. masses --      3.6179                 1.7502                 6.0329
 Frc consts  --      1.3181                 0.6417                 2.3565
 IR Inten    --     56.5565                26.0928                12.4685

                     43                     44                     45
                      A                      A                      A
 Frequencies --    820.3377               852.6951               876.3602
 Red. masses --      2.8738                 3.2670                 2.5678
 Frc consts  --      1.1395                 1.3995                 1.1619
 IR Inten    --      4.3315                11.6292                 1.9086

                     46                     47                     48
                      A                      A                      A
 Frequencies --    891.1918               913.9635               938.1903
 Red. masses --      2.4887                 3.6550                 1.6896
 Frc consts  --      1.1646                 1.7989                 0.8762
 IR Inten    --     27.2242                 3.9137                 3.2768

                     49                     50                     51
                      A                      A                      A
 Frequencies --    946.7890               960.4434               967.4489
 Red. masses --      1.2162                 2.2453                 1.4635
 Frc consts  --      0.6423                 1.2203                 0.8071
 IR Inten    --      0.7874                 5.4077                 0.8004

                     52                     53                     54
                      A                      A                      A
 Frequencies --    993.7221               999.8366              1036.1655
 Red. masses --      2.0011                 1.9269                 2.3660
 Frc consts  --      1.1643                 1.1349                 1.4967
 IR Inten    --      4.8672                23.1914                 5.4401

                     55                     56                     57
                      A                      A                      A
 Frequencies --   1098.6973              1109.1802              1138.7592
 Red. masses --      2.7052                 2.8388                 2.7802
 Frc consts  --      1.9240                 2.0577                 2.1242
 IR Inten    --     18.0810                18.5751                34.3669

                     58                     59                     60
                      A                      A                      A
 Frequencies --   1156.8838              1158.5876              1162.6511
 Red. masses --      3.1111                 3.1042                 2.2518
 Frc consts  --      2.4533                 2.4551                 1.7934
 IR Inten    --     47.0993                34.3312                22.5803

                     61                     62                     63
                      A                      A                      A
 Frequencies --   1168.4019              1179.5093              1199.6122
 Red. masses --      1.6672                 2.0796                 2.0496
 Frc consts  --      1.3410                 1.7046                 1.7378
 IR Inten    --      3.1990                42.8024                 0.4395

                     64                     65                     66
                      A                      A                      A
 Frequencies --   1208.3941              1212.5820              1243.8332
 Red. masses --      2.3668                 2.8055                 2.2385
 Frc consts  --      2.0362                 2.4304                 2.0405
 IR Inten    --     54.8966                32.2849                46.8989

                     67                     68                     69
                      A                      A                      A
 Frequencies --   1293.2640              1315.9873              1336.2078
 Red. masses --      1.2768                 1.3332                 1.3480
 Frc consts  --      1.2582                 1.3603                 1.4180
 IR Inten    --      0.4125                30.2439                14.9804

                     70                     71                     72
                      A                      A                      A
 Frequencies --   1357.7566              1362.5441              1370.8697
 Red. masses --      1.2609                 1.4620                 1.4440
 Frc consts  --      1.3696                 1.5992                 1.5988
 IR Inten    --      1.1367                36.4845                17.0756

                     73                     74                     75
                      A                      A                      A
 Frequencies --   1386.1973              1395.0936              1398.6383
 Red. masses --      1.2999                 1.5490                 1.3315
 Frc consts  --      1.4716                 1.7762                 1.5346
 IR Inten    --      0.7683                90.7000                13.1224

                     76                     77                     78
                      A                      A                      A
 Frequencies --   1413.2319              1426.5846              1430.4207
 Red. masses --      1.2705                 1.6162                 1.3534
 Frc consts  --      1.4950                 1.9379                 1.6316
 IR Inten    --     43.0748                36.5898                12.8725

                     79                     80                     81
                      A                      A                      A
 Frequencies --   1435.1953              1436.7518              1449.7812
 Red. masses --      2.0459                 1.2805                 1.2713
 Frc consts  --      2.4829                 1.5573                 1.5744
 IR Inten    --     37.5719                18.1153                15.5705

                     82                     83                     84
                      A                      A                      A
 Frequencies --   1452.3548              1459.3077              1478.5755
 Red. masses --      1.3123                 3.9898                 1.3788
 Frc consts  --      1.6309                 5.0061                 1.7760
 IR Inten    --     13.9400               232.4437                33.8824

                     85                     86                     87
                      A                      A                      A
 Frequencies --   1510.3266              1512.7529              1515.3874
 Red. masses --      1.1005                 1.1488                 1.0666
 Frc consts  --      1.4790                 1.5490                 1.4431
 IR Inten    --      3.7200                19.0828                 4.8598

                     88                     89                     90
                      A                      A                      A
 Frequencies --   1518.5297              1520.4694              1522.4163
 Red. masses --      1.0608                 1.3160                 1.1355
 Frc consts  --      1.4413                 1.7926                 1.5506
 IR Inten    --      5.6417                19.0623                 9.7195

                     91                     92                     93
                      A                      A                      A
 Frequencies --   1529.2847              1534.1771              1535.8200
 Red. masses --      1.0633                 1.0726                 1.0972
 Frc consts  --      1.4651                 1.4875                 1.5247
 IR Inten    --      6.6738                 0.7324                12.0723

                     94                     95                     96
                      A                      A                      A
 Frequencies --   1538.3556              1559.6648              1608.6386
 Red. masses --      1.0640                 1.8574                 4.1828
 Frc consts  --      1.4835                 2.6621                 6.3772
 IR Inten    --      3.7424               112.4173               160.4612

                     97                     98                     99
                      A                      A                      A
 Frequencies --   1661.1606              1736.1414              3003.5744
 Red. masses --      1.5721                 5.2474                 1.0835
 Frc consts  --      2.5560                 9.3190                 5.7593
 IR Inten    --    389.9080               283.5320                12.7502

                    100                    101                    102
                      A                      A                      A
 Frequencies --   3034.9211              3044.7770              3049.3701
 Red. masses --      1.0626                 1.0381                 1.0380
 Frc consts  --      5.7663                 5.6700                 5.6871
 IR Inten    --     27.9764                15.5971                30.1882

                    103                    104                    105
                      A                      A                      A
 Frequencies --   3057.3875              3058.6710              3070.8279
 Red. masses --      1.0620                 1.0365                 1.0640
 Frc consts  --      5.8489                 5.7131                 5.9116
 IR Inten    --     10.8234                12.9054                26.4121

                    106                    107                    108
                      A                      A                      A
 Frequencies --   3078.0155              3089.1989              3098.4374
 Red. masses --      1.0685                 1.0988                 1.1056
 Frc consts  --      5.9645                 6.1784                 6.2538
 IR Inten    --     40.6435                39.7201                28.3702

                    109                    110                    111
                      A                      A                      A
 Frequencies --   3105.5041              3111.0417              3124.5357
 Red. masses --      1.0917                 1.1006                 1.1029
 Frc consts  --      6.2030                 6.2763                 6.3439
 IR Inten    --     14.8086                 4.0527                35.4766

                    112                    113                    114
                      A                      A                      A
 Frequencies --   3127.5793              3131.6914              3135.2533
 Red. masses --      1.1020                 1.0966                 1.1012
 Frc consts  --      6.3509                 6.3365                 6.3775
 IR Inten    --     24.6618                20.8476                35.7608

                    115                    116                    117
                      A                      A                      A
 Frequencies --   3137.6912              3144.0129              3158.9215
 Red. masses --      1.0993                 1.1026                 1.0976
 Frc consts  --      6.3764                 6.4214                 6.4530
 IR Inten    --     19.0840                19.3878                 5.1540

                    118                    119                    120
                      A                      A                      A
 Frequencies --   3535.5371              3545.5650              3656.6084
 Red. masses --      1.0485                 1.0747                 1.0982
 Frc consts  --      7.7223                 7.9597                 8.6516
 IR Inten    --     42.9704                15.4859                47.2030

 - Thermochemistry -
 -------------------
 Temperature   298.150 Kelvin.  Pressure   1.00000 Atm.
 Atom     1 has atomic number  6 and mass  12.00000

 Molecular mass:   298.14635 amu.
 Principal axes and moments of inertia in atomic units:
                           1         2         3
     Eigenvalues --  4685.359206472.140457994.55462
           X            0.99949  -0.02518   0.01959
           Y            0.02568   0.99934  -0.02578
           Z           -0.01893   0.02627   0.99948
 This molecule is an asymmetric top.
 Rotational symmetry number  1.
 Warning -- assumption of classical behavior for rotation
           may cause significant error
 Rotational temperatures (Kelvin)      0.01849     0.01338     0.01083
 Rotational constants (GHZ):           0.38519     0.27885     0.22575
 Zero-point vibrational energy     943442.7 (Joules/Mol)
                                  225.48821 (Kcal/Mol)
 Warning -- explicit consideration of  34 degrees of freedom as
           vibrations may cause significant error
 Vibrational temperatures:     34.23    56.47    70.93    76.93   118.87
          (Kelvin)            127.71   155.02   162.92   196.56   255.92
                              313.94   340.13   342.09   345.55   375.39
                              392.63   397.35   415.76   457.91   481.27
                              497.33   525.60   546.95   590.63   612.09
                              658.13   685.08   695.18   710.44   736.51
                              796.81   823.10   848.21   874.33   902.70
                              928.66   962.05  1003.95  1061.56  1131.39
                             1135.00  1171.50  1180.28  1226.84  1260.89
                             1282.23  1314.99  1349.85  1362.22  1381.86
                             1391.94  1429.74  1438.54  1490.81  1580.78
                             1595.86  1638.42  1664.50  1666.95  1672.80
                             1681.07  1697.05  1725.97  1738.61  1744.63
                             1789.60  1860.72  1893.41  1922.51  1953.51
                             1960.40  1972.38  1994.43  2007.23  2012.33
                             2033.33  2052.54  2058.06  2064.93  2067.17
                             2085.91  2089.61  2099.62  2127.34  2173.02
                             2176.51  2180.30  2184.83  2187.62  2190.42
                             2200.30  2207.34  2209.70  2213.35  2244.01
                             2314.47  2390.04  2497.92  4321.47  4366.57
                             4380.76  4387.36  4398.90  4400.75  4418.24
                             4428.58  4444.67  4457.96  4468.13  4476.10
                             4495.51  4499.89  4505.81  4510.93  4514.44
                             4523.53  4544.98  5086.85  5101.28  5261.04

 Zero-point correction=                           0.359338 (Hartree/Particle)
 Thermal correction to Energy=                    0.379790
 Thermal correction to Enthalpy=                  0.380734
 Thermal correction to Gibbs Free Energy=         0.310000
 Sum of electronic and zero-point Energies=          -1276.003273
 Sum of electronic and thermal Energies=             -1275.982822
 Sum of electronic and thermal Enthalpies=           -1275.981878
 Sum of electronic and thermal Free Energies=        -1276.052612

                     E (Thermal)             CV                S
                      KCal/Mol        Cal/Mol-Kelvin    Cal/Mol-Kelvin
 Total                  238.322             78.408            148.872
 Electronic               0.000              0.000              0.000
 Translational            0.889              2.981             42.974
 Rotational               0.889              2.981             33.849
 Vibrational            236.544             72.447             72.049
 Vibration     1          0.593              1.985              6.290
 Vibration     2          0.594              1.981              5.297
 Vibration     3          0.595              1.978              4.845
 Vibration     4          0.596              1.976              4.685
 Vibration     5          0.600              1.961              3.828
 Vibration     6          0.602              1.957              3.687
 Vibration     7          0.606              1.943              3.309
 Vibration     8          0.607              1.938              3.213
 Vibration     9          0.614              1.917              2.851
 Vibration    10          0.628              1.870              2.351
 Vibration    11          0.646              1.813              1.974
 Vibration    12          0.655              1.785              1.830
 Vibration    13          0.656              1.783              1.820
 Vibration    14          0.657              1.779              1.802
 Vibration    15          0.669              1.744              1.656
 Vibration    16          0.676              1.723              1.578
 Vibration    17          0.678              1.717              1.557
 Vibration    18          0.686              1.694              1.480
 Vibration    19          0.705              1.639              1.319
 Vibration    20          0.716              1.607              1.238
 Vibration    21          0.724              1.584              1.186
 Vibration    22          0.739              1.544              1.099
 Vibration    23          0.750              1.512              1.039
 Vibration    24          0.775              1.447              0.925
 Vibration    25          0.787              1.415              0.874
 Vibration    26          0.816              1.344              0.774
 Vibration    27          0.833              1.303              0.721
 Vibration    28          0.839              1.287              0.702
 Vibration    29          0.849              1.264              0.674
 Vibration    30          0.867              1.224              0.629
 Vibration    31          0.909              1.131              0.536
 Vibration    32          0.928              1.092              0.500
 Vibration    33          0.947              1.054              0.468
 Vibration    34          0.966              1.016              0.437

 Optimization completed.
    -- Stationary point found.
 Normal termination of Gaussian 16 at Mon Dec 14 19:50:11 2020.

 ----------------------------------------------------------------------
 # B3LYP/6-311++G(d,p) empiricaldispersion=gd3bj scf=xqc pop=npa geom=c
 heck
 ----------------------------------------------------------------------

 ----------------------------------------
 CID_103381680_JID_10376_Energie_neutraal
 ----------------------------------------
 Structure from the checkpoint file:  "JID_10376.chk"
 Charge =  0 Multiplicity = 1

 SCF Done:  E(RB3LYP) =  -1276.64257713     A.U. after   17 cycles
 Normal termination of Gaussian 16 at Mon Dec 14 20:05:42 2020.

 ----------------------------------------------------------------------
 # B3LYP/6-311++G(d,p) empiricaldispersion=gd3bj scf=xqc pop=npa geom=c
 heck
 ----------------------------------------------------------------------

 --------------------------------------
 CID_103381680_JID_10376_Energie_kation
 --------------------------------------
 Structure from the checkpoint file:  "JID_10376.chk"
 Charge =  1 Multiplicity = 2

 SCF Done:  E(UB3LYP) =  -1276.36981853     A.U. after   27 cycles
 Normal termination of Gaussian 16 at Mon Dec 14 20:40:20 2020.
 Gaussian 16:  ES64L-G16RevA.03 25-Dec-2016

 ----------------------------------------------------------------------
 # B3LYP/6-311++G(d,p) empiricaldispersion=gd3bj scf=xqc pop=npa geom=c
 heck
 ----------------------------------------------------------------------

 -------------------------------------
 CID_103381680_JID_10376_Energie_anion
 -------------------------------------
 Structure from the checkpoint file:  "JID_10376.chk"
 Charge = -1 Multiplicity = 2

                         Standard orientation:
 ---------------------------------------------------------------------
 Center     Atomic      Atomic             Coordinates (Angstroms)
 Number     Number       Type             X           Y           Z
 ---------------------------------------------------------------------
      1          6           0        2.350410    2.512580    1.870767
      2          6           0        2.112175    1.219632    1.104002
      3          6           0        1.173361    1.450852   -0.084641
      4          7           0        0.914234    0.237473   -0.871101
      5          6           0        1.968641   -0.120431   -1.824994
      6          6           0        3.218134   -0.824216   -1.230924
      7          6           0        3.402977   -0.625511    0.274954
      8          8           0        3.383956    0.739084    0.675951
      9          6           0        0.089573   -0.746540   -0.389616
     10          6           0       -0.987098   -0.694897    0.490567
     11          6           0       -1.486241   -2.035650    0.741570
     12          7           0       -0.924126   -3.035068    0.094014
     13         16           0        0.339609   -2.428045   -0.851677
     14          7           0       -2.578174   -2.257827    1.552167
     15          6           0       -1.681940    0.450416    1.128447
     16          8           0       -2.024982    0.412236    2.314434
     17          7           0       -1.975824    1.551810    0.359059
     18          6           0       -2.180245    1.539929   -1.098685
     19          6           0       -3.458077    0.782789   -1.477330
     20          6           0       -2.192762    2.984830   -1.597554
     21          1           0        1.408049    2.908947    2.262962
     22          1           0        2.804877    3.266774    1.218558
     23          1           0        3.030029    2.331149    2.707753
     24          1           0        1.650270    0.473926    1.770434
     25          1           0        0.229593    1.873436    0.259722
     26          1           0        1.634671    2.177005   -0.762216
     27          1           0        2.270540    0.816526   -2.298807
     28          1           0        1.520740   -0.739302   -2.610002
     29          1           0        4.101444   -0.443902   -1.756390
     30          1           0        3.179520   -1.903214   -1.419189
     31          1           0        4.380394   -1.025062    0.567573
     32          1           0        2.637740   -1.189281    0.825630
     33          1           0       -2.656931   -1.591998    2.313903
     34          1           0       -2.698400   -3.228289    1.812314
     35          1           0       -2.557367    2.207066    0.874103
     36          1           0       -1.320345    1.032224   -1.540511
     37          1           0       -4.341144    1.278712   -1.056333
     38          1           0       -3.575708    0.743589   -2.566202
     39          1           0       -3.426575   -0.242526   -1.096567
     40          1           0       -1.261118    3.498826   -1.339751
     41          1           0       -2.314496    3.011195   -2.684908
     42          1           0       -3.027533    3.544959   -1.156679
 ---------------------------------------------------------------------

 SCF Done:  E(UB3LYP) =  -1276.63467499     A.U. after   33 cycles
 SCF Done:  E(UB3LYP) =  -1276.63467499     a.u. after    1 cycles

 The electronic state is 2-A.
 Alpha  occ. eigenvalues --  -88.77969 -19.03194 -18.98543 -14.25055 -14.23094
 Alpha  occ. eigenvalues --  -14.21867 -14.20288 -10.16902 -10.14289 -10.14164
 Alpha  occ. eigenvalues --  -10.13284 -10.12544 -10.11767 -10.11282 -10.10558
 Alpha  occ. eigenvalues --  -10.07751 -10.07557 -10.07456 -10.07240 -10.06801
 Alpha  occ. eigenvalues --   -7.86432  -5.82854  -5.82386  -5.81878  -0.94717
 Alpha  occ. eigenvalues --   -0.93692  -0.87631  -0.85597  -0.82450  -0.78882
 Alpha  occ. eigenvalues --   -0.71301  -0.69203  -0.68096  -0.65233  -0.63616
 Alpha  occ. eigenvalues --   -0.60979  -0.60039  -0.58281  -0.53353  -0.52046
 Alpha  occ. eigenvalues --   -0.50985  -0.49528  -0.47468  -0.45730  -0.43006
 Alpha  occ. eigenvalues --   -0.41101  -0.40947  -0.40224  -0.38573  -0.38225
 Alpha  occ. eigenvalues --   -0.37423  -0.36227  -0.34898  -0.34293  -0.33719
 Alpha  occ. eigenvalues --   -0.32575  -0.32338  -0.32178  -0.31094  -0.30768
 Alpha  occ. eigenvalues --   -0.30272  -0.30178  -0.29618  -0.28986  -0.28792
 Alpha  occ. eigenvalues --   -0.27948  -0.26355  -0.26006  -0.25561  -0.25243
 Alpha  occ. eigenvalues --   -0.24790  -0.23193  -0.22185  -0.19783  -0.18663
 Alpha  occ. eigenvalues --   -0.17477  -0.16543  -0.15476  -0.12454  -0.10846
 Alpha  occ. eigenvalues --    0.04152
 Alpha virt. eigenvalues --    0.05988   0.06592   0.07390   0.07547   0.08102
 Alpha virt. eigenvalues --    0.08568   0.08948   0.09230   0.09971   0.10324
 Alpha virt. eigenvalues --    0.10586   0.10763   0.11045   0.11663   0.11877

  Beta  occ. eigenvalues --  -88.77953 -19.03188 -18.98443 -14.25035 -14.23065
  Beta  occ. eigenvalues --  -14.21866 -14.20264 -10.16777 -10.14285 -10.13962
  Beta  occ. eigenvalues --  -10.13283 -10.12539 -10.11756 -10.11259 -10.10541
  Beta  occ. eigenvalues --  -10.07728 -10.07550 -10.07468 -10.07212 -10.06782
  Beta  occ. eigenvalues --   -7.86416  -5.82843  -5.82381  -5.81829  -0.94706
  Beta  occ. eigenvalues --   -0.93498  -0.87527  -0.85545  -0.82363  -0.78848
  Beta  occ. eigenvalues --   -0.71274  -0.69044  -0.68025  -0.65179  -0.63527
  Beta  occ. eigenvalues --   -0.60924  -0.59993  -0.58224  -0.53223  -0.51921
  Beta  occ. eigenvalues --   -0.50908  -0.49480  -0.47377  -0.45673  -0.42957
  Beta  occ. eigenvalues --   -0.41041  -0.40893  -0.40170  -0.38532  -0.38162
  Beta  occ. eigenvalues --   -0.37368  -0.36141  -0.34769  -0.34161  -0.33590
  Beta  occ. eigenvalues --   -0.32531  -0.32235  -0.32097  -0.31027  -0.30699
  Beta  occ. eigenvalues --   -0.30236  -0.30119  -0.29568  -0.28914  -0.28718
  Beta  occ. eigenvalues --   -0.27716  -0.26299  -0.25884  -0.25502  -0.25208
  Beta  occ. eigenvalues --   -0.24671  -0.22977  -0.22097  -0.19662  -0.18522
  Beta  occ. eigenvalues --   -0.17354  -0.16433  -0.15267  -0.12303  -0.10640
  Beta virt. eigenvalues --    0.06417   0.06929   0.07354   0.07692   0.08031
  Beta virt. eigenvalues --    0.08413   0.08868   0.09265   0.09359   0.10137
  Beta virt. eigenvalues --    0.10651   0.10892   0.10991   0.11287   0.11779

 Mulliken charges and spin densities:
               1          2
     1  C   -0.597985  -0.089105
     2  C    0.218684  -0.460626
     3  C   -0.664453   0.327863
     4  N    0.514704   0.040299
     5  C    0.235348  -0.250212
     6  C    0.443625  -0.793821
     7  C   -0.198280   0.045553
     8  O   -0.055505   0.016338
     9  C    0.090679   0.091177
    10  C    1.097150  -0.099222
    11  C   -0.591700  -0.230328
    12  N   -0.231677   0.016248
    13  S   -0.206582  -0.125325
    14  N   -0.258042   0.003862
    15  C   -0.941190   0.114853
    16  O   -0.329242   0.035414
    17  N   -0.141781  -0.005962
    18  C   -0.528805   0.647636
    19  C   -0.443166  -0.129795
    20  C    0.789729  -1.353929
    21  H    0.074805   0.071509
    22  H    0.014984   0.145898
    23  H    0.120162   0.025302
    24  H    0.237396  -0.043011
    25  H    0.632120  -0.499587
    26  H   -0.137794   0.359003
    27  H   -0.559878   0.726705
    28  H   -0.081796   0.237161
    29  H   -0.301363   0.495798
    30  H    0.081366   0.053865
    31  H   -0.042683   0.247272
    32  H    0.107010   0.020829
    33  H    0.266710   0.004428
    34  H    0.268850   0.000407
    35  H    0.258423   0.030154
    36  H    0.475972  -0.227165
    37  H    0.034636   0.101461
    38  H   -0.054173   0.194991
    39  H    0.143286   0.068730
    40  H   -0.407726   0.563048
    41  H   -0.233670   0.389711
    42  H   -0.098145   0.232570
 Sum of Mulliken charges =  -1.00000   1.00000

 Dipole moment (field-independent basis, Debye):
    X=             -0.9285    Y=             -2.6019    Z=              4.1986  Tot=              5.0259
 Quadrupole moment (field-independent basis, Debye-Ang):
   XX=           -190.1341   YY=           -179.6408   ZZ=           -172.7369
   XY=             -1.9735   XZ=              6.6182   YZ=              8.6754

 Summary of Natural Population Analysis:

                                       Natural Population
                Natural  -----------------------------------------------
    Atom  No    Charge         Core      Valence    Rydberg      Total
 -----------------------------------------------------------------------
      C    1   -0.29068      0.99964     2.28513    0.00591     3.29068
      C    2    0.05960      0.99955     1.92891    0.01194     2.94040
      C    3   -0.09936      0.99956     2.08758    0.01222     3.09936
      N    4   -0.25622      0.99963     2.74154    0.01505     3.75622
      C    5   -0.08821      0.99960     2.07561    0.01299     3.08821
      C    6   -0.21538      0.99962     2.20613    0.00963     3.21538
      C    7   -0.01126      0.99957     1.99927    0.01242     3.01126
      O    8   -0.30813      0.99987     3.29861    0.00964     4.30813
      C    9    0.08308      0.99944     1.90117    0.01631     2.91692
      C   10   -0.16742      0.99935     2.15667    0.01139     3.16742
      C   11    0.20707      0.99956     1.77684    0.01653     2.79293
      N   12   -0.35728      0.99968     2.84579    0.01181     3.85728
      S   13    0.26096      4.99944     2.71530    0.02430     7.73904
      N   14   -0.40338      0.99969     2.89553    0.00816     3.90338
      C   15    0.35652      0.99961     1.61966    0.02421     2.64348
      O   16   -0.33014      0.99988     3.32522    0.00504     4.33014
      N   17   -0.32314      0.99967     2.81314    0.01033     3.82314
      C   18   -0.02049      0.99960     2.01027    0.01061     3.02049
      C   19   -0.28894      0.99964     2.28386    0.00544     3.28894
      C   20   -0.28528      0.99964     2.27939    0.00625     3.28528
      H   21    0.10199      0.00000     0.39743    0.00058     0.39801
      H   22    0.10192      0.00000     0.39707    0.00101     0.39808
      H   23    0.10230      0.00000     0.39690    0.00080     0.39770
      H   24    0.08384      0.00000     0.41439    0.00177     0.41616
      H   25    0.11284      0.00000     0.38496    0.00220     0.38716
      H   26    0.10165      0.00000     0.39654    0.00181     0.39835
      H   27    0.10586      0.00000     0.39157    0.00257     0.39414
      H   28    0.10208      0.00000     0.39626    0.00166     0.39792
      H   29    0.10352      0.00000     0.39448    0.00200     0.39648
      H   30    0.10151      0.00000     0.39711    0.00139     0.39849
      H   31    0.08865      0.00000     0.41028    0.00107     0.41135
      H   32    0.08467      0.00000     0.41379    0.00154     0.41533
      H   33    0.20390      0.00000     0.29432    0.00177     0.29610
      H   34    0.18621      0.00000     0.31200    0.00178     0.31379
      H   35    0.18866      0.00000     0.30931    0.00203     0.31134
      H   36    0.10410      0.00000     0.39248    0.00342     0.39590
      H   37    0.09499      0.00000     0.40407    0.00094     0.40501
      H   38    0.10028      0.00000     0.39898    0.00073     0.39972
      H   39    0.10652      0.00000     0.39216    0.00131     0.39348
      H   40    0.10386      0.00000     0.39488    0.00125     0.39614
      H   41    0.10448      0.00000     0.39436    0.00116     0.39552
      H   42    0.09423      0.00000     0.40466    0.00110     0.40577
 =======================================================================
   * Total *   -0.00000     23.99226    55.73365    0.27409    80.00000

 Normal termination of Gaussian 16 at Mon Dec 14 21:23:14 2020.
