 Gaussian 16, Revision A.03,

 -----------------------------------------------------------
 # opt freq B3LYP/6-31G(d) empiricaldispersion=gd3bj scf=xqc
 -----------------------------------------------------------

 ----------------------------
 CID_71381868_JID_21_neutraal
 ----------------------------
 Symbolic Z-matrix:
 Charge =  0 Multiplicity = 1

 SCF Done:  E(RB3LYP) =  -477.165565984     A.U. after   14 cycles
 SCF Done:  E(RB3LYP) =  -477.169548918     A.U. after   12 cycles
 SCF Done:  E(RB3LYP) =  -477.167861273     A.U. after   12 cycles
 SCF Done:  E(RB3LYP) =  -477.170524776     A.U. after   11 cycles
 SCF Done:  E(RB3LYP) =  -477.170942554     A.U. after   11 cycles
 SCF Done:  E(RB3LYP) =  -477.171171055     A.U. after   11 cycles
 SCF Done:  E(RB3LYP) =  -477.171412002     A.U. after   12 cycles
 SCF Done:  E(RB3LYP) =  -477.171520345     A.U. after   12 cycles
 SCF Done:  E(RB3LYP) =  -477.171648257     A.U. after   11 cycles
 SCF Done:  E(RB3LYP) =  -477.171722589     A.U. after   11 cycles
 SCF Done:  E(RB3LYP) =  -477.171790910     A.U. after    9 cycles
 SCF Done:  E(RB3LYP) =  -477.171802336     A.U. after   10 cycles
 SCF Done:  E(RB3LYP) =  -477.171804489     A.U. after    8 cycles
 SCF Done:  E(RB3LYP) =  -477.171805132     A.U. after    8 cycles
 SCF Done:  E(RB3LYP) =  -477.171805343     A.U. after    7 cycles
 SCF Done:  E(RB3LYP) =  -477.171805369     A.U. after    7 cycles
 Optimization completed.
    -- Stationary point found.
 Normal termination of Gaussian 16 at Tue Dec  8 10:18:24 2020.

 --------------------------------------------------------------------
 #N Geom=AllCheck Guess=TCheck SCRF=Check GenChk RB3LYP/6-31G(d) Freq
 --------------------------------------------------------------------

 Structure from the checkpoint file:  "JID_21.chk"
 ----------------------------
 CID_71381868_JID_21_neutraal
 ----------------------------
 Charge =  0 Multiplicity = 1

 SCF Done:  E(RB3LYP) =  -477.171805369     A.U. after    1 cycles

  Exact polarizability:  99.069  -0.649  86.900   3.107   1.174  73.067
 Approx polarizability: 124.296  -4.190 130.218   5.952   5.439 107.403

                      1                      2                      3
                      A                      A                      A
 Frequencies --     28.5425                93.9900               106.7013
 Red. masses --      3.5500                 4.8779                 3.5222
 Frc consts  --      0.0017                 0.0254                 0.0236
 IR Inten    --      0.5711                 3.1601                 1.4639

                      4                      5                      6
                      A                      A                      A
 Frequencies --    147.8587               191.1470               223.5004
 Red. masses --      1.6922                 1.0888                 1.7858
 Frc consts  --      0.0218                 0.0234                 0.0526
 IR Inten    --      1.7310                45.5187                 1.0385

                      7                      8                      9
                      A                      A                      A
 Frequencies --    235.3383               256.4957               285.2933
 Red. masses --      1.0880                 1.8324                 1.9236
 Frc consts  --      0.0355                 0.0710                 0.0922
 IR Inten    --      0.0564                 2.6328                 4.3771

                     10                     11                     12
                      A                      A                      A
 Frequencies --    286.7600               322.0526               337.4093
 Red. masses --      1.4205                 1.8516                 1.2853
 Frc consts  --      0.0688                 0.1132                 0.0862
 IR Inten    --      7.0345                 0.7038                 1.1169

                     13                     14                     15
                      A                      A                      A
 Frequencies --    355.9399               400.8302               413.0383
 Red. masses --      2.6158                 2.4448                 3.1174
 Frc consts  --      0.1953                 0.2314                 0.3133
 IR Inten    --      6.1253                 1.1473                21.6777

                     16                     17                     18
                      A                      A                      A
 Frequencies --    453.4831               462.9058               545.6367
 Red. masses --      2.6052                 2.6300                 2.8519
 Frc consts  --      0.3157                 0.3320                 0.5003
 IR Inten    --      3.2304                 4.9764                13.0337

                     19                     20                     21
                      A                      A                      A
 Frequencies --    631.2617               708.6957               795.5808
 Red. masses --      4.8133                 5.4208                 3.2798
 Frc consts  --      1.1301                 1.6041                 1.2231
 IR Inten    --     16.9239                 2.2985                19.0003

                     22                     23                     24
                      A                      A                      A
 Frequencies --    830.2795               863.7077               933.1466
 Red. masses --      5.4225                 2.1059                 1.7594
 Frc consts  --      2.2024                 0.9256                 0.9027
 IR Inten    --      2.7664                67.7790                 1.0193

                     25                     26                     27
                      A                      A                      A
 Frequencies --    939.1902               974.4346               979.6045
 Red. masses --      1.8660                 1.4034                 1.4669
 Frc consts  --      0.9697                 0.7851                 0.8294
 IR Inten    --      0.2016                 1.8757                 1.3707

                     28                     29                     30
                      A                      A                      A
 Frequencies --   1007.9618              1065.5225              1069.3127
 Red. masses --      1.9902                 1.4826                 1.4699
 Frc consts  --      1.1913                 0.9918                 0.9902
 IR Inten    --     57.3238                29.0961                11.4316

                     31                     32                     33
                      A                      A                      A
 Frequencies --   1076.7252              1165.4295              1203.6787
 Red. masses --      1.7008                 1.2604                 2.6932
 Frc consts  --      1.1617                 1.0086                 2.2990
 IR Inten    --     60.7541                19.3764               120.0372

                     34                     35                     36
                      A                      A                      A
 Frequencies --   1243.9197              1270.6450              1279.0360
 Red. masses --      2.2811                 2.6074                 2.5710
 Frc consts  --      2.0796                 2.4803                 2.4781
 IR Inten    --     47.4263                38.4968                 8.6714

                     37                     38                     39
                      A                      A                      A
 Frequencies --   1304.9895              1363.4280              1401.4190
 Red. masses --      3.2208                 1.2575                 2.8324
 Frc consts  --      3.2317                 1.3773                 3.2775
 IR Inten    --     33.8339                33.2641               213.5008

                     40                     41                     42
                      A                      A                      A
 Frequencies --   1426.9550              1428.8856              1455.3296
 Red. masses --      1.2521                 1.2461                 1.2354
 Frc consts  --      1.5021                 1.4990                 1.5416
 IR Inten    --     11.1579                 9.5240                13.3105

                     43                     44                     45
                      A                      A                      A
 Frequencies --   1473.2877              1495.4952              1506.5651
 Red. masses --      1.2144                 1.3029                 1.0512
 Frc consts  --      1.5531                 1.7168                 1.4057
 IR Inten    --     23.8546                 5.1094                 0.5061

                     46                     47                     48
                      A                      A                      A
 Frequencies --   1512.3124              1517.1766              1525.3660
 Red. masses --      1.0498                 1.0486                 1.0510
 Frc consts  --      1.4147                 1.4221                 1.4407
 IR Inten    --      0.4523                 4.0928                 2.0599

                     49                     50                     51
                      A                      A                      A
 Frequencies --   1535.8528              1540.7576              1545.1002
 Red. masses --      1.0599                 1.1041                 1.1100
 Frc consts  --      1.4730                 1.5443                 1.5612
 IR Inten    --      5.8205                 2.5638                29.1791

                     52                     53                     54
                      A                      A                      A
 Frequencies --   1554.3077              1730.8039              1763.4435
 Red. masses --      1.0524                 1.0925                 6.5514
 Frc consts  --      1.4980                 1.9283                12.0034
 IR Inten    --      5.2501                49.3105               282.7085

                     55                     56                     57
                      A                      A                      A
 Frequencies --   3046.2807              3051.0852              3058.1451
 Red. masses --      1.0364                 1.0356                 1.0376
 Frc consts  --      5.6668                 5.6803                 5.7172
 IR Inten    --     21.1659                17.1733                46.9458

                     58                     59                     60
                      A                      A                      A
 Frequencies --   3065.1632              3113.6292              3116.3053
 Red. masses --      1.0374                 1.0998                 1.1047
 Frc consts  --      5.7426                 6.2819                 6.3206
 IR Inten    --     16.4362                11.8775                27.9868

                     61                     62                     63
                      A                      A                      A
 Frequencies --   3120.3863              3124.8531              3127.7674
 Red. masses --      1.1021                 1.1026                 1.1021
 Frc consts  --      6.3224                 6.3435                 6.3524
 IR Inten    --     31.3977                28.2088                13.8281

                     64                     65                     66
                      A                      A                      A
 Frequencies --   3136.5358              3153.2802              3194.9791
 Red. masses --      1.1026                 1.1020                 1.0988
 Frc consts  --      6.3910                 6.4557                 6.6084
 IR Inten    --     50.7879                19.0149                 7.8615

                     67                     68                     69
                      A                      A                      A
 Frequencies --   3423.9259              3504.9778              3512.5075
 Red. masses --      1.0486                 1.0925                 1.0732
 Frc consts  --      7.2427                 7.9076                 7.8014
 IR Inten    --      8.4666                 2.5697                 4.3935

 - Thermochemistry -
 -------------------
 Temperature   298.150 Kelvin.  Pressure   1.00000 Atm.
 Atom     1 has atomic number  6 and mass  12.00000

 Molecular mass:   145.12151 amu.
 Principal axes and moments of inertia in atomic units:
                           1         2         3
     Eigenvalues --   861.944141948.264282263.24718
           X            0.99987   0.01602  -0.00069
           Y           -0.01603   0.99913  -0.03860
           Z            0.00008   0.03861   0.99925
 This molecule is an asymmetric top.
 Rotational symmetry number  1.
 Warning -- assumption of classical behavior for rotation
           may cause significant error
 Rotational temperatures (Kelvin)      0.10049     0.04446     0.03827
 Rotational constants (GHZ):           2.09380     0.92633     0.79741
 Zero-point vibrational energy     586268.0 (Joules/Mol)
                                  140.12141 (Kcal/Mol)
 Warning -- explicit consideration of  18 degrees of freedom as
           vibrations may cause significant error
 Vibrational temperatures:     41.07   135.23   153.52   212.74   275.02
          (Kelvin)            321.57   338.60   369.04   410.47   412.58
                              463.36   485.46   512.12   576.71   594.27
                              652.46   666.02   785.05   908.24  1019.66
                             1144.66  1194.59  1242.68  1342.59  1351.29
                             1401.99  1409.43  1450.23  1533.05  1538.50
                             1549.17  1676.79  1731.83  1789.72  1828.17
                             1840.25  1877.59  1961.67  2016.33  2053.07
                             2055.85  2093.89  2119.73  2151.68  2167.61
                             2175.88  2182.88  2194.66  2209.75  2216.81
                             2223.05  2236.30  2490.24  2537.20  4382.92
                             4389.83  4399.99  4410.09  4479.82  4483.67
                             4489.54  4495.97  4500.16  4512.78  4536.87
                             4596.86  4926.27  5042.88  5053.71

 Zero-point correction=                           0.223298 (Hartree/Particle)
 Thermal correction to Energy=                    0.235450
 Thermal correction to Enthalpy=                  0.236394
 Thermal correction to Gibbs Free Energy=         0.185654
 Sum of electronic and zero-point Energies=           -476.948508
 Sum of electronic and thermal Energies=              -476.936355
 Sum of electronic and thermal Enthalpies=            -476.935411
 Sum of electronic and thermal Free Energies=         -476.986152

                     E (Thermal)             CV                S
                      KCal/Mol        Cal/Mol-Kelvin    Cal/Mol-Kelvin
 Total                  147.747             44.816            106.792
 Electronic               0.000              0.000              0.000
 Translational            0.889              2.981             40.828
 Rotational               0.889              2.981             29.720
 Vibrational            145.970             38.854             36.244
 Vibration     1          0.593              1.984              5.928
 Vibration     2          0.603              1.953              3.575
 Vibration     3          0.606              1.944              3.328
 Vibration     4          0.617              1.905              2.700
 Vibration     5          0.634              1.852              2.217
 Vibration     6          0.649              1.805              1.931
 Vibration     7          0.655              1.787              1.838
 Vibration     8          0.666              1.752              1.686
 Vibration     9          0.683              1.701              1.502
 Vibration    10          0.684              1.698              1.493
 Vibration    11          0.707              1.631              1.300
 Vibration    12          0.718              1.601              1.224
 Vibration    13          0.731              1.563              1.140
 Vibration    14          0.767              1.468              0.960
 Vibration    15          0.777              1.442              0.916
 Vibration    16          0.812              1.353              0.785
 Vibration    17          0.821              1.332              0.758
 Vibration    18          0.901              1.149              0.553

 Optimization completed.
    -- Stationary point found.
 Normal termination of Gaussian 16 at Tue Dec  8 10:23:07 2020.

 ----------------------------------------------------------------------
 # B3LYP/6-311++G(d,p) empiricaldispersion=gd3bj scf=xqc pop=npa geom=c
 heck
 ----------------------------------------------------------------------

 ------------------------------------
 CID_71381868_JID_21_Energie_neutraal
 ------------------------------------
 Structure from the checkpoint file:  "JID_21.chk"
 Charge =  0 Multiplicity = 1

 SCF Done:  E(RB3LYP) =  -477.322143835     A.U. after   14 cycles
 Normal termination of Gaussian 16 at Tue Dec  8 10:24:48 2020.

 ----------------------------------------------------------------------
 # B3LYP/6-311++G(d,p) empiricaldispersion=gd3bj scf=xqc pop=npa geom=c
 heck
 ----------------------------------------------------------------------

 ----------------------------------
 CID_71381868_JID_21_Energie_kation
 ----------------------------------
 Structure from the checkpoint file:  "JID_21.chk"
 Charge =  1 Multiplicity = 2

 SCF Done:  E(UB3LYP) =  -476.997032701     A.U. after   24 cycles
 Normal termination of Gaussian 16 at Tue Dec  8 10:28:24 2020.
 Gaussian 16:  ES64L-G16RevA.03 25-Dec-2016

 ----------------------------------------------------------------------
 # B3LYP/6-311++G(d,p) empiricaldispersion=gd3bj scf=xqc pop=npa geom=c
 heck
 ----------------------------------------------------------------------

 ---------------------------------
 CID_71381868_JID_21_Energie_anion
 ---------------------------------
 Structure from the checkpoint file:  "JID_21.chk"
 Charge = -1 Multiplicity = 2

                         Standard orientation:
 ---------------------------------------------------------------------
 Center     Atomic      Atomic             Coordinates (Angstroms)
 Number     Number       Type             X           Y           Z
 ---------------------------------------------------------------------
      1          6           0       -1.311320    1.455879    0.688080
      2          6           0       -1.543098    0.066692    0.085085
      3          6           0       -1.642088   -0.979483    1.209513
      4          6           0       -2.838207    0.081664   -0.737339
      5          7           0       -0.459658   -0.309016   -0.883675
      6          6           0        0.808460   -0.687723   -0.397997
      7          8           0        1.207994   -1.848826   -0.439876
      8          7           0        1.591212    0.334384    0.114472
      9          6           0        1.640820    1.653801   -0.514663
     10          7           0        2.859040   -0.061287    0.630850
     11          1           0       -2.146905    1.705621    1.350788
     12          1           0       -1.255555    2.220584   -0.092218
     13          1           0       -0.391909    1.486287    1.277314
     14          1           0       -2.480635   -0.753592    1.877792
     15          1           0       -1.790108   -1.983527    0.797395
     16          1           0       -0.725298   -0.994958    1.808485
     17          1           0       -2.760049    0.794653   -1.564322
     18          1           0       -3.052305   -0.909787   -1.155447
     19          1           0       -3.686763    0.368124   -0.107928
     20          1           0       -0.785654   -1.119789   -1.405846
     21          1           0        1.666309    2.440405    0.245389
     22          1           0        2.547407    1.730034   -1.125458
     23          1           0        0.762069    1.782916   -1.144006
     24          1           0        2.705129   -0.350665    1.597349
     25          1           0        3.108752   -0.919239    0.132121
 ---------------------------------------------------------------------

 SCF Done:  E(UB3LYP) =  -477.307533261     A.U. after   29 cycles

 The electronic state is 2-A.
 Alpha  occ. eigenvalues --  -18.99175 -14.25945 -14.22727 -14.21449 -10.19023
 Alpha  occ. eigenvalues --  -10.11616 -10.09272 -10.05543 -10.05100 -10.04855
 Alpha  occ. eigenvalues --   -0.95828  -0.87453  -0.81597  -0.71210  -0.67842
 Alpha  occ. eigenvalues --   -0.59634  -0.58610  -0.58297  -0.48904  -0.46165
 Alpha  occ. eigenvalues --   -0.41752  -0.39658  -0.38123  -0.37020  -0.34612
 Alpha  occ. eigenvalues --   -0.33056  -0.32178  -0.32098  -0.30354  -0.29543
 Alpha  occ. eigenvalues --   -0.27964  -0.27717  -0.26350  -0.26160  -0.23834
 Alpha  occ. eigenvalues --   -0.23070  -0.18970  -0.18251  -0.14716  -0.14474
 Alpha  occ. eigenvalues --    0.04734
 Alpha virt. eigenvalues --    0.07367   0.08062   0.08564   0.09688   0.10020
 Alpha virt. eigenvalues --    0.10564   0.10878   0.11608   0.11799   0.13130
 Alpha virt. eigenvalues --    0.13203   0.13627   0.14269   0.14716   0.15255

  Beta  occ. eigenvalues --  -18.99168 -14.25942 -14.22694 -14.21433 -10.19022
  Beta  occ. eigenvalues --  -10.11611 -10.09241 -10.05497 -10.05061 -10.04812
  Beta  occ. eigenvalues --   -0.95816  -0.87429  -0.81577  -0.71163  -0.67803
  Beta  occ. eigenvalues --   -0.59586  -0.58534  -0.58224  -0.48847  -0.46107
  Beta  occ. eigenvalues --   -0.41709  -0.39613  -0.38091  -0.36975  -0.34566
  Beta  occ. eigenvalues --   -0.33024  -0.32140  -0.32058  -0.30320  -0.29507
  Beta  occ. eigenvalues --   -0.27920  -0.27675  -0.26309  -0.26117  -0.23790
  Beta  occ. eigenvalues --   -0.23025  -0.18951  -0.18217  -0.14694  -0.14451
  Beta virt. eigenvalues --    0.07155   0.08190   0.08877   0.09396   0.10223
  Beta virt. eigenvalues --    0.10583   0.11197   0.11366   0.11993   0.12128
  Beta virt. eigenvalues --    0.13557   0.13694   0.14075   0.14677   0.15178

 Mulliken charges and spin densities:
               1          2
     1  C    1.303915  -1.811871
     2  C   -2.600680   2.538536
     3  C    1.705611  -2.175663
     4  C    0.751316  -1.201046
     5  N    0.008326  -0.042639
     6  C    0.410737  -0.551979
     7  O   -0.378669   0.042092
     8  N   -0.235610   0.236299
     9  C    0.636785  -1.000854
    10  N   -0.256616  -0.027846
    11  H   -0.429859   0.593322
    12  H   -0.162238   0.301970
    13  H   -0.271932   0.417803
    14  H   -0.328631   0.496048
    15  H    0.003097   0.145612
    16  H   -0.280138   0.457330
    17  H   -0.294768   0.462172
    18  H   -0.479804   0.613162
    19  H   -0.188183   0.337227
    20  H    0.284943  -0.010888
    21  H   -0.331866   0.502837
    22  H    0.016266   0.124289
    23  H   -0.050120   0.226096
    24  H    0.004084   0.252686
    25  H    0.164034   0.075307
 Sum of Mulliken charges =  -1.00000   1.00000

 Dipole moment (field-independent basis, Debye):
    X=              3.2475    Y=             -1.4560    Z=             -2.1500  Tot=              4.1580
 Quadrupole moment (field-independent basis, Debye-Ang):
   XX=           -119.4231   YY=           -103.9621   ZZ=            -98.2665
   XY=              1.7629   XZ=              0.1133   YZ=             -1.7846

 Summary of Natural Population Analysis:

                                       Natural Population
                Natural  -----------------------------------------------
    Atom  No    Charge         Core      Valence    Rydberg      Total
 -----------------------------------------------------------------------
      C    1   -0.29217      0.99960     2.28448    0.00809     3.29217
      C    2    0.05659      0.99958     1.93001    0.01382     2.94341
      C    3   -0.29413      0.99961     2.28719    0.00733     3.29413
      C    4   -0.28654      0.99961     2.27925    0.00768     3.28654
      N    5   -0.35068      0.99967     2.83968    0.01133     3.85068
      C    6    0.41176      0.99966     1.56465    0.02393     2.58824
      O    7   -0.33589      0.99987     3.33036    0.00566     4.33589
      N    8   -0.18736      0.99965     2.67486    0.01285     3.68736
      C    9   -0.17343      0.99963     2.16524    0.00857     3.17343
      N   10   -0.32091      0.99977     2.80962    0.01152     3.82091
      H   11    0.10505      0.00000     0.39323    0.00173     0.39495
      H   12    0.10232      0.00000     0.39600    0.00168     0.39768
      H   13    0.10568      0.00000     0.39182    0.00250     0.39432
      H   14    0.10468      0.00000     0.39394    0.00138     0.39532
      H   15    0.10129      0.00000     0.39757    0.00114     0.39871
      H   16    0.10322      0.00000     0.39520    0.00158     0.39678
      H   17    0.10447      0.00000     0.39406    0.00146     0.39553
      H   18    0.09785      0.00000     0.40070    0.00145     0.40215
      H   19    0.10585      0.00000     0.39254    0.00161     0.39415
      H   20    0.18641      0.00000     0.31103    0.00257     0.31359
      H   21    0.09678      0.00000     0.40181    0.00141     0.40322
      H   22    0.09311      0.00000     0.40569    0.00120     0.40689
      H   23    0.10819      0.00000     0.39012    0.00168     0.39181
      H   24    0.17687      0.00000     0.32096    0.00217     0.32313
      H   25    0.18099      0.00000     0.31697    0.00204     0.31901
 =======================================================================
   * Total *    0.00000      9.99666    29.86698    0.13636    40.00000

 Normal termination of Gaussian 16 at Tue Dec  8 10:33:34 2020.
