 Gaussian 16, Revision A.03,

 -----------------------------------------------------------
 # opt freq B3LYP/6-31G(d) empiricaldispersion=gd3bj scf=xqc
 -----------------------------------------------------------

 ------------------------------
 CID_62499550_JID_5836_neutraal
 ------------------------------
 Symbolic Z-matrix:
 Charge =  0 Multiplicity = 1

 SCF Done:  E(RB3LYP) =  -653.097911494     A.U. after   15 cycles
 SCF Done:  E(RB3LYP) =  -653.101046442     A.U. after   13 cycles
 SCF Done:  E(RB3LYP) =  -653.102123686     A.U. after   12 cycles
 SCF Done:  E(RB3LYP) =  -653.102499097     A.U. after   13 cycles
 SCF Done:  E(RB3LYP) =  -653.102752375     A.U. after   11 cycles
 SCF Done:  E(RB3LYP) =  -653.102855882     A.U. after   12 cycles
 SCF Done:  E(RB3LYP) =  -653.102919515     A.U. after   11 cycles
 SCF Done:  E(RB3LYP) =  -653.102960067     A.U. after   11 cycles
 SCF Done:  E(RB3LYP) =  -653.102975873     A.U. after   10 cycles
 SCF Done:  E(RB3LYP) =  -653.102981988     A.U. after   10 cycles
 SCF Done:  E(RB3LYP) =  -653.102983368     A.U. after    9 cycles
 SCF Done:  E(RB3LYP) =  -653.102983807     A.U. after    9 cycles
 SCF Done:  E(RB3LYP) =  -653.102983906     A.U. after    8 cycles
 SCF Done:  E(RB3LYP) =  -653.102983939     A.U. after    8 cycles
 Optimization completed.
    -- Stationary point found.
 Normal termination of Gaussian 16 at Thu Dec 10 17:15:45 2020.

 --------------------------------------------------------------------
 #N Geom=AllCheck Guess=TCheck SCRF=Check GenChk RB3LYP/6-31G(d) Freq
 --------------------------------------------------------------------

 Structure from the checkpoint file:  "JID_5836.chk"
 ------------------------------
 CID_62499550_JID_5836_neutraal
 ------------------------------
 Charge =  0 Multiplicity = 1

 SCF Done:  E(RB3LYP) =  -653.102983939     A.U. after    1 cycles

  Exact polarizability: 236.305  -6.056 155.611   1.122  -0.336  59.681
 Approx polarizability: 332.800  -1.529 281.997   1.738  -2.860  93.121

                      1                      2                      3
                      A                      A                      A
 Frequencies --     15.9973                54.0848                82.0656
 Red. masses --      4.0188                 2.3219                 1.4163
 Frc consts  --      0.0006                 0.0040                 0.0056
 IR Inten    --      1.8666                 3.0770                 0.2124

                      4                      5                      6
                      A                      A                      A
 Frequencies --     96.9880               110.6014               149.7550
 Red. masses --      4.8560                 3.6126                 5.0101
 Frc consts  --      0.0269                 0.0260                 0.0662
 IR Inten    --      3.0837                 0.2510                 0.2255

                      7                      8                      9
                      A                      A                      A
 Frequencies --    204.2995               220.6568               260.6900
 Red. masses --      3.5396                 4.3244                 3.6028
 Frc consts  --      0.0870                 0.1241                 0.1443
 IR Inten    --      1.7202                 1.5884                 0.4515

                     10                     11                     12
                      A                      A                      A
 Frequencies --    281.8849               315.0294               362.2911
 Red. masses --      1.2736                 2.8102                 4.1023
 Frc consts  --      0.0596                 0.1643                 0.3172
 IR Inten    --      0.3617                 0.0747                 1.2644

                     13                     14                     15
                      A                      A                      A
 Frequencies --    402.2980               460.7449               481.7261
 Red. masses --      4.0446                 3.0690                 5.3845
 Frc consts  --      0.3857                 0.3839                 0.7362
 IR Inten    --      1.6514                 1.8905                 9.7409

                     16                     17                     18
                      A                      A                      A
 Frequencies --    522.2454               539.7281               549.6491
 Red. masses --      4.0135                 3.9110                 3.2963
 Frc consts  --      0.6449                 0.6713                 0.5867
 IR Inten    --      1.2937                 0.3573                 2.0430

                     19                     20                     21
                      A                      A                      A
 Frequencies --    567.0030               638.7120               668.4903
 Red. masses --      5.4621                 4.2066                 3.6883
 Frc consts  --      1.0346                 1.0111                 0.9711
 IR Inten    --      0.3522                20.9875                 1.2556

                     22                     23                     24
                      A                      A                      A
 Frequencies --    685.3149               698.0830               738.2301
 Red. masses --      5.8463                 5.3877                 2.1506
 Frc consts  --      1.6178                 1.5469                 0.6905
 IR Inten    --     10.2867                 1.2763                10.7727

                     25                     26                     27
                      A                      A                      A
 Frequencies --    781.1492               805.4938               819.5393
 Red. masses --      1.4414                 1.3815                 4.7754
 Frc consts  --      0.5182                 0.5281                 1.8897
 IR Inten    --     50.3988                17.5970                 0.7240

                     28                     29                     30
                      A                      A                      A
 Frequencies --    876.4585               888.7715               935.8351
 Red. masses --      1.3371                 1.3272                 4.4113
 Frc consts  --      0.6052                 0.6177                 2.2762
 IR Inten    --      0.8543                 0.4365                21.6517

                     31                     32                     33
                      A                      A                      A
 Frequencies --    954.9614               958.4204               991.4326
 Red. masses --      4.6463                 1.3617                 2.5499
 Frc consts  --      2.4965                 0.7369                 1.4767
 IR Inten    --     28.1953                 1.5377                22.3426

                     34                     35                     36
                      A                      A                      A
 Frequencies --    993.2540              1024.6529              1050.9630
 Red. masses --      1.3337                 1.5744                 1.7478
 Frc consts  --      0.7752                 0.9739                 1.1374
 IR Inten    --      2.2610                 2.1704                 2.6726

                     37                     38                     39
                      A                      A                      A
 Frequencies --   1072.9651              1077.3648              1082.4814
 Red. masses --      1.3197                 1.5252                 2.9903
 Frc consts  --      0.8952                 1.0431                 2.0645
 IR Inten    --     33.5371                 2.8205                 2.5585

                     40                     41                     42
                      A                      A                      A
 Frequencies --   1096.2427              1148.7314              1164.8489
 Red. masses --      2.8013                 2.3716                 1.8056
 Frc consts  --      1.9835                 1.8438                 1.4435
 IR Inten    --      2.7845                25.8277                19.1664

                     43                     44                     45
                      A                      A                      A
 Frequencies --   1202.3317              1236.8626              1247.8036
 Red. masses --      1.1149                 2.4648                 2.4013
 Frc consts  --      0.9496                 2.2216                 2.2029
 IR Inten    --      0.3639                 2.8417                 0.5153

                     46                     47                     48
                      A                      A                      A
 Frequencies --   1291.8734              1324.0629              1339.0008
 Red. masses --      2.8470                 1.6419                 5.4247
 Frc consts  --      2.7995                 1.6959                 5.7304
 IR Inten    --     76.1681                 7.9738               149.1759

                     49                     50                     51
                      A                      A                      A
 Frequencies --   1356.0492              1405.3203              1417.8280
 Red. masses --      5.3055                 1.7661                 2.2273
 Frc consts  --      5.7482                 2.0551                 2.6380
 IR Inten    --      0.3825                10.7719                54.7533

                     52                     53                     54
                      A                      A                      A
 Frequencies --   1445.4468              1487.1266              1499.9577
 Red. masses --      1.2504                 2.1322                 1.0596
 Frc consts  --      1.5392                 2.7782                 1.4046
 IR Inten    --      0.5562                48.6793                 7.5838

                     55                     56                     57
                      A                      A                      A
 Frequencies --   1505.3334              1518.2430              1533.9944
 Red. masses --      1.0473                 1.0475                 2.9718
 Frc consts  --      1.3983                 1.4227                 4.1202
 IR Inten    --      9.5987                 7.7381               111.1211

                     58                     59                     60
                      A                      A                      A
 Frequencies --   1535.7031              1557.4736              1615.4708
 Red. masses --      1.1796                 4.0241                 5.7975
 Frc consts  --      1.6391                 5.7513                 8.9143
 IR Inten    --     32.3123                68.1373                 9.2149

                     61                     62                     63
                      A                      A                      A
 Frequencies --   1633.0251              1665.2698              1771.2976
 Red. masses --      5.9217                 5.4605                10.7683
 Frc consts  --      9.3042                 8.9218                19.9058
 IR Inten    --      0.8487                 1.3822               235.7940

                     64                     65                     66
                      A                      A                      A
 Frequencies --   3042.2852              3055.3890              3097.4596
 Red. masses --      1.0390                 1.0377                 1.0992
 Frc consts  --      5.6660                 5.7076                 6.2137
 IR Inten    --     20.8453                 3.2377                16.6891

                     67                     68                     69
                      A                      A                      A
 Frequencies --   3115.5289              3130.9520              3171.8799
 Red. masses --      1.1004                 1.1003                 1.1014
 Frc consts  --      6.2933                 6.3551                 6.5288
 IR Inten    --     10.5061                19.6823                10.6879

                     70                     71                     72
                      A                      A                      A
 Frequencies --   3182.0166              3196.0444              3210.6496
 Red. masses --      1.0868                 1.0896                 1.0956
 Frc consts  --      6.4835                 6.5573                 6.6540
 IR Inten    --      9.8151                15.6318                30.4350

                     73                     74                     75
                      A                      A                      A
 Frequencies --   3235.8125              3273.0352              3324.7924
 Red. masses --      1.0928                 1.0960                 1.0964
 Frc consts  --      6.7415                 6.9176                 7.1409
 IR Inten    --      2.8868                 4.4290                 1.3194

 - Thermochemistry -
 -------------------
 Temperature   298.150 Kelvin.  Pressure   1.00000 Atm.
 Atom     1 has atomic number  6 and mass  12.00000

 Molecular mass:   200.08373 amu.
 Principal axes and moments of inertia in atomic units:
                           1         2         3
     Eigenvalues --  1254.414675431.270456649.91368
           X            0.99999  -0.00508   0.00126
           Y            0.00508   0.99998   0.00321
           Z           -0.00128  -0.00321   0.99999
 This molecule is an asymmetric top.
 Rotational symmetry number  1.
 Warning -- assumption of classical behavior for rotation
           may cause significant error
 Rotational temperatures (Kelvin)      0.06905     0.01595     0.01302
 Rotational constants (GHZ):           1.43871     0.33229     0.27139
 Zero-point vibrational energy     570950.4 (Joules/Mol)
                                  136.46042 (Kcal/Mol)
 Warning -- explicit consideration of  19 degrees of freedom as
           vibrations may cause significant error
 Vibrational temperatures:     23.02    77.82   118.07   139.54   159.13
          (Kelvin)            215.46   293.94   317.48   375.07   405.57
                              453.26   521.26   578.82   662.91   693.10
                              751.39   776.55   790.82   815.79   918.96
                              961.81   986.02  1004.39  1062.15  1123.90
                             1158.93  1179.13  1261.03  1278.74  1346.46
                             1373.98  1378.95  1426.45  1429.07  1474.25
                             1512.10  1543.76  1550.09  1557.45  1577.25
                             1652.77  1675.96  1729.89  1779.57  1795.31
                             1858.72  1905.03  1926.52  1951.05  2021.94
                             2039.94  2079.68  2139.64  2158.10  2165.84
                             2184.41  2207.08  2209.53  2240.86  2324.30
                             2349.56  2395.95  2548.50  4377.17  4396.02
                             4456.55  4482.55  4504.74  4563.63  4578.21
                             4598.40  4619.41  4655.61  4709.17  4783.63

 Zero-point correction=                           0.217464 (Hartree/Particle)
 Thermal correction to Energy=                    0.230733
 Thermal correction to Enthalpy=                  0.231677
 Thermal correction to Gibbs Free Energy=         0.175949
 Sum of electronic and zero-point Energies=           -652.885520
 Sum of electronic and thermal Energies=              -652.872251
 Sum of electronic and thermal Enthalpies=            -652.871307
 Sum of electronic and thermal Free Energies=         -652.927035

                     E (Thermal)             CV                S
                      KCal/Mol        Cal/Mol-Kelvin    Cal/Mol-Kelvin
 Total                  144.787             50.412            117.289
 Electronic               0.000              0.000              0.000
 Translational            0.889              2.981             41.785
 Rotational               0.889              2.981             32.183
 Vibrational            143.010             44.450             43.321
 Vibration     1          0.593              1.986              7.078
 Vibration     2          0.596              1.976              4.662
 Vibration     3          0.600              1.961              3.841
 Vibration     4          0.603              1.951              3.514
 Vibration     5          0.606              1.941              3.258
 Vibration     6          0.618              1.903              2.675
 Vibration     7          0.640              1.834              2.094
 Vibration     8          0.647              1.810              1.954
 Vibration     9          0.669              1.745              1.657
 Vibration    10          0.681              1.707              1.522
 Vibration    11          0.702              1.645              1.336
 Vibration    12          0.736              1.550              1.112
 Vibration    13          0.768              1.465              0.954
 Vibration    14          0.819              1.337              0.764
 Vibration    15          0.838              1.291              0.705
 Vibration    16          0.877              1.201              0.605
 Vibration    17          0.895              1.162              0.566
 Vibration    18          0.905              1.140              0.545
 Vibration    19          0.923              1.103              0.510

                           ! Non-Optimized Parameters !
 Normal termination of Gaussian 16 at Thu Dec 10 17:24:25 2020.

 ----------------------------------------------------------------------
 # B3LYP/6-311++G(d,p) empiricaldispersion=gd3bj scf=xqc pop=npa geom=c
 heck
 ----------------------------------------------------------------------

 --------------------------------------
 CID_62499550_JID_5836_Energie_neutraal
 --------------------------------------
 Structure from the checkpoint file:  "JID_5836.chk"
 Charge =  0 Multiplicity = 1

 SCF Done:  E(RB3LYP) =  -653.276706517     A.U. after   15 cycles
 Normal termination of Gaussian 16 at Thu Dec 10 17:27:53 2020.

 ----------------------------------------------------------------------
 # B3LYP/6-311++G(d,p) empiricaldispersion=gd3bj scf=xqc pop=npa geom=c
 heck
 ----------------------------------------------------------------------

 ------------------------------------
 CID_62499550_JID_5836_Energie_kation
 ------------------------------------
 Structure from the checkpoint file:  "JID_5836.chk"
 Charge =  1 Multiplicity = 2

 SCF Done:  E(UB3LYP) =  -652.989055858     A.U. after   23 cycles
 Normal termination of Gaussian 16 at Thu Dec 10 17:35:27 2020.
 Gaussian 16:  ES64L-G16RevA.03 25-Dec-2016

 ----------------------------------------------------------------------
 # B3LYP/6-311++G(d,p) empiricaldispersion=gd3bj scf=xqc pop=npa geom=c
 heck
 ----------------------------------------------------------------------

 -----------------------------------
 CID_62499550_JID_5836_Energie_anion
 -----------------------------------
 Structure from the checkpoint file:  "JID_5836.chk"
 Charge = -1 Multiplicity = 2

                         Standard orientation:
 ---------------------------------------------------------------------
 Center     Atomic      Atomic             Coordinates (Angstroms)
 Number     Number       Type             X           Y           Z
 ---------------------------------------------------------------------
      1          6           0        2.453823    2.258397    0.153560
      2          6           0        2.514745    0.755296    0.058130
      3          6           0        3.767909    0.134136    0.068060
      4          6           0        3.908177   -1.249481   -0.007602
      5          6           0        2.769665   -2.050288   -0.092269
      6          6           0        1.512604   -1.460416   -0.103588
      7          6           0        1.360532   -0.061269   -0.032460
      8          6           0        0.002088    0.475274   -0.050726
      9          6           0       -0.570721    1.730783   -0.155565
     10          6           0       -1.977043    1.544677   -0.132378
     11          6           0       -2.198342    0.193582   -0.014623
     12          8           0       -0.995124   -0.452788    0.035140
     13          6           0       -3.410473   -0.626716    0.060152
     14          8           0       -3.356872   -1.843885    0.154536
     15          6           0       -4.729934    0.126695    0.011956
     16          1           0        3.452045    2.670617    0.324654
     17          1           0        2.065275    2.709290   -0.768216
     18          1           0        1.808010    2.587649    0.975659
     19          1           0        4.654198    0.759085    0.141154
     20          1           0        4.898105   -1.696382    0.002617
     21          1           0        2.858200   -3.131078   -0.149871
     22          1           0        0.624715   -2.078085   -0.168419
     23          1           0       -0.058595    2.672268   -0.254036
     24          1           0       -2.733381    2.314143   -0.196911
     25          1           0       -4.805876    0.834479    0.845694
     26          1           0       -4.817928    0.701383   -0.917488
     27          1           0       -5.546978   -0.594007    0.071877
 ---------------------------------------------------------------------

 SCF Done:  E(UB3LYP) =  -653.297190616     A.U. after   23 cycles

 The electronic state is 2-A.
 Alpha  occ. eigenvalues --  -19.02316 -18.93092 -10.08290 -10.07960 -10.06438
 Alpha  occ. eigenvalues --  -10.05728 -10.05551 -10.04901 -10.04665 -10.04471
 Alpha  occ. eigenvalues --  -10.03951 -10.03917 -10.03411 -10.03243 -10.03008
 Alpha  occ. eigenvalues --   -0.96048  -0.86972  -0.73354  -0.66397  -0.65369
 Alpha  occ. eigenvalues --   -0.64347  -0.61272  -0.58218  -0.56499  -0.49441
 Alpha  occ. eigenvalues --   -0.47415  -0.45650  -0.43578  -0.40835  -0.38515
 Alpha  occ. eigenvalues --   -0.34754  -0.33801  -0.32393  -0.32231  -0.30994
 Alpha  occ. eigenvalues --   -0.30068  -0.29608  -0.29406  -0.28689  -0.27511
 Alpha  occ. eigenvalues --   -0.26737  -0.26296  -0.24808  -0.23569  -0.22881
 Alpha  occ. eigenvalues --   -0.21738  -0.21248  -0.20947  -0.15171  -0.14590
 Alpha  occ. eigenvalues --   -0.12579  -0.09545  -0.07888   0.03558
 Alpha virt. eigenvalues --    0.07887   0.08617   0.09037   0.10174   0.10583
 Alpha virt. eigenvalues --    0.10847   0.11088   0.12046   0.12435   0.12929
 Alpha virt. eigenvalues --    0.13188   0.13778   0.15086   0.15608   0.15795

  Beta  occ. eigenvalues --  -19.02027 -18.92603 -10.08047 -10.07744 -10.06286
  Beta  occ. eigenvalues --  -10.05738 -10.05441 -10.04842 -10.04706 -10.04526
  Beta  occ. eigenvalues --  -10.03975 -10.03704 -10.03284 -10.03282 -10.02932
  Beta  occ. eigenvalues --   -0.95570  -0.86099  -0.73132  -0.66174  -0.65067
  Beta  occ. eigenvalues --   -0.64033  -0.60935  -0.58027  -0.56404  -0.48909
  Beta  occ. eigenvalues --   -0.47307  -0.45371  -0.43286  -0.40632  -0.38307
  Beta  occ. eigenvalues --   -0.34479  -0.33688  -0.32116  -0.31450  -0.30591
  Beta  occ. eigenvalues --   -0.29905  -0.29509  -0.28823  -0.28600  -0.27320
  Beta  occ. eigenvalues --   -0.26577  -0.26192  -0.24528  -0.22993  -0.22682
  Beta  occ. eigenvalues --   -0.21594  -0.20795  -0.19157  -0.13993  -0.13609
  Beta  occ. eigenvalues --   -0.12107  -0.09087  -0.06483
  Beta virt. eigenvalues --    0.07869   0.08580   0.08911   0.09020   0.10139
  Beta virt. eigenvalues --    0.10966   0.11080   0.11728   0.12026   0.12681
  Beta virt. eigenvalues --    0.13017   0.13741   0.13796   0.15069   0.15590

 Mulliken charges and spin densities:
               1          2
     1  C   -0.630701  -0.007491
     2  C    0.208785   0.078778
     3  C   -0.544490  -0.033110
     4  C   -0.311990   0.169856
     5  C   -0.338391  -0.038301
     6  C   -0.346628   0.126724
     7  C    0.815525   0.020066
     8  C    0.176894   0.134427
     9  C   -0.566144  -0.016657
    10  C   -0.510907   0.075906
    11  C    0.619015   0.122318
    12  O   -0.000996   0.069238
    13  C   -0.189827   0.118431
    14  O   -0.394799   0.176641
    15  C   -0.479204  -0.016162
    16  H    0.135802  -0.000496
    17  H    0.136515   0.005620
    18  H    0.133230   0.003549
    19  H    0.075211   0.001807
    20  H    0.109666  -0.013445
    21  H    0.121277   0.002358
    22  H    0.180620  -0.007344
    23  H    0.088951   0.001653
    24  H    0.142179  -0.003283
    25  H    0.109302   0.013931
    26  H    0.100962   0.016089
    27  H    0.160142  -0.001103
 Sum of Mulliken charges =  -1.00000   1.00000

 Dipole moment (field-independent basis, Debye):
    X=              3.4139    Y=              4.4689    Z=             -0.2793  Tot=              5.6307
 Quadrupole moment (field-independent basis, Debye-Ang):
   XX=           -133.0673   YY=           -104.4481   ZZ=            -98.2872
   XY=             -9.2355   XZ=              1.3262   YZ=              0.9739

 Summary of Natural Population Analysis:

                                       Natural Population
                Natural  -----------------------------------------------
    Atom  No    Charge         Core      Valence    Rydberg      Total
 -----------------------------------------------------------------------
      C    1   -0.29632      0.99966     2.29158    0.00508     3.29632
      C    2    0.01651      0.99939     1.97589    0.00821     2.98349
      C    3   -0.12347      0.99955     2.11423    0.00969     3.12347
      C    4   -0.07173      0.99957     2.06254    0.00962     3.07173
      C    5   -0.12699      0.99959     2.11777    0.00962     3.12699
      C    6   -0.05487      0.99945     2.04662    0.00881     3.05487
      C    7   -0.03651      0.99939     2.02823    0.00889     3.03651
      C    8    0.18876      0.99948     1.79853    0.01324     2.81124
      C    9   -0.16823      0.99954     2.16051    0.00818     3.16823
      C   10   -0.13094      0.99953     2.12312    0.00829     3.13094
      C   11    0.13300      0.99943     1.85408    0.01350     2.86700
      O   12   -0.20260      0.99985     3.19330    0.00945     4.20260
      C   13    0.27047      0.99964     1.70980    0.02010     2.72953
      O   14   -0.24707      0.99988     3.23965    0.00754     4.24707
      C   15   -0.32866      0.99965     2.32508    0.00393     3.32866
      H   16    0.09427      0.00000     0.40474    0.00099     0.40573
      H   17    0.10039      0.00000     0.39833    0.00129     0.39961
      H   18    0.10396      0.00000     0.39462    0.00142     0.39604
      H   19    0.08922      0.00000     0.40967    0.00111     0.41078
      H   20    0.08781      0.00000     0.41057    0.00162     0.41219
      H   21    0.09299      0.00000     0.40592    0.00108     0.40701
      H   22    0.10966      0.00000     0.38927    0.00108     0.39034
      H   23    0.10056      0.00000     0.39850    0.00093     0.39944
      H   24    0.09842      0.00000     0.40070    0.00088     0.40158
      H   25    0.10019      0.00000     0.39855    0.00127     0.39981
      H   26    0.10009      0.00000     0.39864    0.00127     0.39991
      H   27    0.10109      0.00000     0.39716    0.00175     0.39891
 =======================================================================
   * Total *    0.00000     14.99359    37.84757    0.15884    53.00000

 Normal termination of Gaussian 16 at Thu Dec 10 17:41:57 2020.
