 Gaussian 16, Revision A.03,

 -----------------------------------------------------------
 # opt freq B3LYP/6-31G(d) empiricaldispersion=gd3bj scf=xqc
 -----------------------------------------------------------

 -------------------------------
 CID_129927708_JID_4005_neutraal
 -------------------------------
 Symbolic Z-matrix:
 Charge =  0 Multiplicity = 1

 SCF Done:  E(RB3LYP) =  -652.136733230     A.U. after   15 cycles
 SCF Done:  E(RB3LYP) =  -652.140913367     A.U. after   12 cycles
 SCF Done:  E(RB3LYP) =  -652.141378586     A.U. after   11 cycles
 SCF Done:  E(RB3LYP) =  -652.141228538     A.U. after   12 cycles
 SCF Done:  E(RB3LYP) =  -652.141531607     A.U. after   11 cycles
 SCF Done:  E(RB3LYP) =  -652.141604387     A.U. after   10 cycles
 SCF Done:  E(RB3LYP) =  -652.141653533     A.U. after   11 cycles
 SCF Done:  E(RB3LYP) =  -652.141667036     A.U. after   10 cycles
 SCF Done:  E(RB3LYP) =  -652.141675441     A.U. after   10 cycles
 SCF Done:  E(RB3LYP) =  -652.141682764     A.U. after   10 cycles
 SCF Done:  E(RB3LYP) =  -652.141684942     A.U. after    7 cycles
 SCF Done:  E(RB3LYP) =  -652.141685007     A.U. after    7 cycles
 SCF Done:  E(RB3LYP) =  -652.141685091     A.U. after    7 cycles
 SCF Done:  E(RB3LYP) =  -652.141685162     A.U. after    7 cycles
 SCF Done:  E(RB3LYP) =  -652.141685195     A.U. after    7 cycles
 Optimization completed.
    -- Stationary point found.
 Normal termination of Gaussian 16 at Thu Dec 10 09:15:57 2020.

 --------------------------------------------------------------------
 #N Geom=AllCheck Guess=TCheck SCRF=Check GenChk RB3LYP/6-31G(d) Freq
 --------------------------------------------------------------------

 Structure from the checkpoint file:  "JID_4005.chk"
 -------------------------------
 CID_129927708_JID_4005_neutraal
 -------------------------------
 Charge =  0 Multiplicity = 1

 SCF Done:  E(RB3LYP) =  -652.141685195     A.U. after    1 cycles

  Exact polarizability: 156.039  -1.630 146.605   2.382   3.594  64.513
 Approx polarizability: 227.480  -5.693 233.003   4.820   9.193  99.181

                      1                      2                      3
                      A                      A                      A
 Frequencies --     27.2400                51.6772                85.3245
 Red. masses --      3.2422                 8.4770                 1.6893
 Frc consts  --      0.0014                 0.0133                 0.0072
 IR Inten    --      0.8680                 0.6127                 0.9691

                      4                      5                      6
                      A                      A                      A
 Frequencies --     97.3413               138.4822               164.0331
 Red. masses --      1.6614                 3.4977                 4.1020
 Frc consts  --      0.0093                 0.0395                 0.0650
 IR Inten    --      0.1382                 0.7187                 1.7339

                      7                      8                      9
                      A                      A                      A
 Frequencies --    222.9019               245.9681               256.2333
 Red. masses --      2.3351                 3.7587                 1.2486
 Frc consts  --      0.0684                 0.1340                 0.0483
 IR Inten    --      0.1018                 2.1708                 0.2220

                     10                     11                     12
                      A                      A                      A
 Frequencies --    289.7167               331.7883               352.6481
 Red. masses --      3.9641                 3.4414                 5.7400
 Frc consts  --      0.1960                 0.2232                 0.4206
 IR Inten    --      0.0595                 0.5421                 3.2098

                     13                     14                     15
                      A                      A                      A
 Frequencies --    386.8689               453.6447               495.2978
 Red. masses --      4.0866                 3.2184                 2.9196
 Frc consts  --      0.3604                 0.3902                 0.4220
 IR Inten    --      2.5175                 1.7386                10.2020

                     16                     17                     18
                      A                      A                      A
 Frequencies --    530.5349               577.3881               589.3617
 Red. masses --      4.0290                 3.5358                 4.3586
 Frc consts  --      0.6682                 0.6945                 0.8920
 IR Inten    --     10.7353                 4.9602                12.2564

                     19                     20                     21
                      A                      A                      A
 Frequencies --    596.2822               609.8395               652.1928
 Red. masses --      4.7522                 1.3741                 4.0895
 Frc consts  --      0.9955                 0.3011                 1.0249
 IR Inten    --      6.7528                70.4979                30.5275

                     22                     23                     24
                      A                      A                      A
 Frequencies --    719.7729               737.7960               748.4438
 Red. masses --      4.8260                 4.9485                 5.4081
 Frc consts  --      1.4731                 1.5871                 1.7849
 IR Inten    --     13.6284                31.3999                 4.0755

                     25                     26                     27
                      A                      A                      A
 Frequencies --    777.9470               831.3436               843.8312
 Red. masses --      2.8485                 1.7838                 3.3890
 Frc consts  --      1.0157                 0.7264                 1.4218
 IR Inten    --     53.0088                 1.6619                11.9149

                     28                     29                     30
                      A                      A                      A
 Frequencies --    928.9046               940.0206               955.2001
 Red. masses --      2.7805                 1.4891                 3.2395
 Frc consts  --      1.4136                 0.7753                 1.7415
 IR Inten    --     17.6107                 0.9751                 7.6200

                     31                     32                     33
                      A                      A                      A
 Frequencies --    958.2859               989.1633              1063.0559
 Red. masses --      1.3241                 1.9800                 1.5858
 Frc consts  --      0.7164                 1.1414                 1.0559
 IR Inten    --      0.6225                44.4854                25.6741

                     34                     35                     36
                      A                      A                      A
 Frequencies --   1075.0682              1091.3314              1118.1160
 Red. masses --      1.9783                 2.3718                 1.7547
 Frc consts  --      1.3471                 1.6643                 1.2925
 IR Inten    --     65.7628                66.6659                37.9076

                     37                     38                     39
                      A                      A                      A
 Frequencies --   1151.0499              1166.2786              1202.5641
 Red. masses --      2.2277                 2.2217                 1.7367
 Frc consts  --      1.7390                 1.7805                 1.4797
 IR Inten    --    113.2720               138.2571                56.3237

                     40                     41                     42
                      A                      A                      A
 Frequencies --   1229.8472              1234.9870              1258.6116
 Red. masses --      1.5782                 2.0691                 1.9907
 Frc consts  --      1.4065                 1.8593                 1.8580
 IR Inten    --     34.7294                76.6529                57.1439

                     43                     44                     45
                      A                      A                      A
 Frequencies --   1293.9311              1305.7886              1364.9755
 Red. masses --      2.3912                 1.6104                 1.7880
 Frc consts  --      2.3588                 1.6178                 1.9627
 IR Inten    --     52.0251                 1.9763                18.0357

                     46                     47                     48
                      A                      A                      A
 Frequencies --   1391.0040              1400.1095              1404.4861
 Red. masses --      2.3053                 1.6108                 3.0811
 Frc consts  --      2.6281                 1.8605                 3.5809
 IR Inten    --     58.7128                42.0753                26.2022

                     49                     50                     51
                      A                      A                      A
 Frequencies --   1441.9435              1442.7116              1471.7276
 Red. masses --      1.2746                 1.3250                 3.8453
 Frc consts  --      1.5614                 1.6249                 4.9072
 IR Inten    --      6.5717                12.1282                89.7270

                     52                     53                     54
                      A                      A                      A
 Frequencies --   1513.0508              1514.8710              1518.3897
 Red. masses --      1.0462                 1.0494                 1.1024
 Frc consts  --      1.4112                 1.4189                 1.4974
 IR Inten    --      8.5156                 2.5995                12.0281

                     55                     56                     57
                      A                      A                      A
 Frequencies --   1521.6862              1528.5477              1542.9392
 Red. masses --      1.1674                 1.0618                 2.8815
 Frc consts  --      1.5927                 1.4617                 4.0418
 IR Inten    --     18.3533                 9.7926                15.5409

                     58                     59                     60
                      A                      A                      A
 Frequencies --   1639.7297              1672.4209              1823.7897
 Red. masses --      8.1530                 7.3585                 9.6834
 Frc consts  --     12.9155                12.1263                18.9771
 IR Inten    --     53.2947                90.2398               322.0691

                     61                     62                     63
                      A                      A                      A
 Frequencies --   3030.5560              3041.1346              3054.9761
 Red. masses --      1.0682                 1.0384                 1.0857
 Frc consts  --      5.7803                 5.6582                 5.9699
 IR Inten    --     25.2879                23.3336                25.9784

                     64                     65                     66
                      A                      A                      A
 Frequencies --   3057.5392              3085.6053              3090.3489
 Red. masses --      1.0368                 1.0959                 1.1000
 Frc consts  --      5.7110                 6.1476                 6.1898
 IR Inten    --     18.7488                36.9077                 9.2772

                     67                     68                     69
                      A                      A                      A
 Frequencies --   3127.3131              3133.1983              3142.2661
 Red. masses --      1.1024                 1.1002                 1.1029
 Frc consts  --      6.3525                 6.3633                 6.4161
 IR Inten    --     29.4687                18.8283                18.1411

                     70                     71                     72
                      A                      A                      A
 Frequencies --   3193.8316              3237.6029              3704.9811
 Red. masses --      1.0895                 1.0920                 1.0642
 Frc consts  --      6.5479                 6.7442                 8.6066
 IR Inten    --     15.3198                 3.0006                71.1166

 - Thermochemistry -
 -------------------
 Temperature   298.150 Kelvin.  Pressure   1.00000 Atm.
 Atom     1 has atomic number  6 and mass  12.00000

 Molecular mass:   192.07864 amu.
 Principal axes and moments of inertia in atomic units:
                           1         2         3
     Eigenvalues --  2057.156022802.048594753.86186
           X            0.99934   0.03620  -0.00181
           Y           -0.03621   0.99934  -0.00423
           Z            0.00165   0.00429   0.99999
 This molecule is an asymmetric top.
 Rotational symmetry number  1.
 Warning -- assumption of classical behavior for rotation
           may cause significant error
 Rotational temperatures (Kelvin)      0.04210     0.03091     0.01822
 Rotational constants (GHZ):           0.87730     0.64408     0.37964
 Zero-point vibrational energy     555473.0 (Joules/Mol)
                                  132.76124 (Kcal/Mol)
 Warning -- explicit consideration of  20 degrees of freedom as
           vibrations may cause significant error
 Vibrational temperatures:     39.19    74.35   122.76   140.05   199.25
          (Kelvin)            236.01   320.71   353.89   368.66   416.84
                              477.37   507.38   556.62   652.69   712.62
                              763.32   830.73   847.96   857.92   877.42
                              938.36  1035.59  1061.52  1076.84  1119.29
                             1196.12  1214.08  1336.49  1352.48  1374.32
                             1378.76  1423.19  1529.50  1546.78  1570.18
                             1608.72  1656.10  1678.01  1730.22  1769.48
                             1776.87  1810.86  1861.68  1878.74  1963.90
                             2001.34  2014.45  2020.74  2074.64  2075.74
                             2117.49  2176.94  2179.56  2184.62  2189.37
                             2199.24  2219.95  2359.21  2406.24  2624.03
                             4360.29  4375.51  4395.43  4399.12  4439.50
                             4446.32  4499.51  4507.97  4521.02  4595.21
                             4658.19  5330.64

 Zero-point correction=                           0.211569 (Hartree/Particle)
 Thermal correction to Energy=                    0.224421
 Thermal correction to Enthalpy=                  0.225365
 Thermal correction to Gibbs Free Energy=         0.171219
 Sum of electronic and zero-point Energies=           -651.930117
 Sum of electronic and thermal Energies=              -651.917264
 Sum of electronic and thermal Enthalpies=            -651.916320
 Sum of electronic and thermal Free Energies=         -651.970466

                     E (Thermal)             CV                S
                      KCal/Mol        Cal/Mol-Kelvin    Cal/Mol-Kelvin
 Total                  140.826             48.454            113.960
 Electronic               0.000              0.000              0.000
 Translational            0.889              2.981             41.664
 Rotational               0.889              2.981             31.683
 Vibrational            139.049             42.493             40.613
 Vibration     1          0.593              1.984              6.021
 Vibration     2          0.596              1.977              4.752
 Vibration     3          0.601              1.959              3.765
 Vibration     4          0.603              1.951              3.507
 Vibration     5          0.614              1.915              2.825
 Vibration     6          0.623              1.887              2.503
 Vibration     7          0.649              1.806              1.935
 Vibration     8          0.660              1.769              1.759
 Vibration     9          0.666              1.752              1.687
 Vibration    10          0.686              1.693              1.476
 Vibration    11          0.714              1.612              1.251
 Vibration    12          0.729              1.570              1.154
 Vibration    13          0.755              1.498              1.012
 Vibration    14          0.812              1.353              0.785
 Vibration    15          0.851              1.260              0.670
 Vibration    16          0.885              1.182              0.586
 Vibration    17          0.934              1.080              0.490
 Vibration    18          0.947              1.054              0.468
 Vibration    19          0.954              1.040              0.456
 Vibration    20          0.969              1.011              0.433

 Optimization completed.
    -- Stationary point found.
 Normal termination of Gaussian 16 at Thu Dec 10 09:22:33 2020.

 ----------------------------------------------------------------------
 # B3LYP/6-311++G(d,p) empiricaldispersion=gd3bj scf=xqc pop=npa geom=c
 heck
 ----------------------------------------------------------------------

 ---------------------------------------
 CID_129927708_JID_4005_Energie_neutraal
 ---------------------------------------
 Structure from the checkpoint file:  "JID_4005.chk"
 Charge =  0 Multiplicity = 1

 SCF Done:  E(RB3LYP) =  -652.327045580     A.U. after   15 cycles
 Normal termination of Gaussian 16 at Thu Dec 10 09:24:59 2020.

 ----------------------------------------------------------------------
 # B3LYP/6-311++G(d,p) empiricaldispersion=gd3bj scf=xqc pop=npa geom=c
 heck
 ----------------------------------------------------------------------

 -------------------------------------
 CID_129927708_JID_4005_Energie_kation
 -------------------------------------
 Structure from the checkpoint file:  "JID_4005.chk"
 Charge =  1 Multiplicity = 2

 SCF Done:  E(UB3LYP) =  -652.032765069     A.U. after   23 cycles
 Normal termination of Gaussian 16 at Thu Dec 10 09:30:15 2020.
 Gaussian 16:  ES64L-G16RevA.03 25-Dec-2016

 ----------------------------------------------------------------------
 # B3LYP/6-311++G(d,p) empiricaldispersion=gd3bj scf=xqc pop=npa geom=c
 heck
 ----------------------------------------------------------------------

 ------------------------------------
 CID_129927708_JID_4005_Energie_anion
 ------------------------------------
 Structure from the checkpoint file:  "JID_4005.chk"
 Charge = -1 Multiplicity = 2

                         Standard orientation:
 ---------------------------------------------------------------------
 Center     Atomic      Atomic             Coordinates (Angstroms)
 Number     Number       Type             X           Y           Z
 ---------------------------------------------------------------------
      1          6           0       -2.138655   -2.894647    0.527941
      2          6           0       -1.672954   -1.785590   -0.395318
      3          6           0       -2.337052   -0.405551   -0.155940
      4          6           0       -1.145161    0.515169   -0.086295
      5          6           0       -1.082981    1.899926    0.016950
      6          6           0        0.192165    2.489996    0.103535
      7          6           0        1.342415    1.713120    0.097408
      8          6           0        1.290359    0.308153    0.000118
      9          6           0        0.014093   -0.268508   -0.093233
     10          8           0       -0.238036   -1.592718   -0.191674
     11          6           0        2.511854   -0.518658   -0.005497
     12          8           0        2.560312   -1.730030   -0.073631
     13          8           0        3.648889    0.234393    0.077487
     14          6           0       -2.340685    2.728022    0.039049
     15          1           0       -3.199894   -3.107957    0.357087
     16          1           0       -2.006167   -2.597643    1.573791
     17          1           0       -1.565681   -3.809676    0.352294
     18          1           0       -1.787282   -2.088296   -1.442898
     19          1           0       -3.035148   -0.147514   -0.959979
     20          1           0       -2.909830   -0.396291    0.782137
     21          1           0        0.273318    3.570507    0.178990
     22          1           0        2.314905    2.185758    0.166885
     23          1           0        4.377062   -0.412943    0.066830
     24          1           0       -2.939186    2.567126   -0.866502
     25          1           0       -2.977146    2.459507    0.891870
     26          1           0       -2.114652    3.795679    0.109735
 ---------------------------------------------------------------------

 SCF Done:  E(UB3LYP) =  -652.321480066     A.U. after   33 cycles
 SCF Done:  E(UB3LYP) =  -652.321480066     a.u. after    1 cycles

 The electronic state is 2-A.
 Alpha  occ. eigenvalues --  -19.03000 -19.02218 -18.95583 -10.14562 -10.11790
 Alpha  occ. eigenvalues --  -10.09759 -10.06253 -10.05802 -10.05217 -10.04519
 Alpha  occ. eigenvalues --  -10.03981 -10.03844 -10.03730 -10.03656  -0.96535
 Alpha  occ. eigenvalues --   -0.94675  -0.86993  -0.72864  -0.68612  -0.64754
 Alpha  occ. eigenvalues --   -0.63456  -0.58438  -0.56361  -0.50694  -0.48757
 Alpha  occ. eigenvalues --   -0.46683  -0.44740  -0.38935  -0.37665  -0.36548
 Alpha  occ. eigenvalues --   -0.34927  -0.34104  -0.31845  -0.31353  -0.30864
 Alpha  occ. eigenvalues --   -0.29967  -0.29281  -0.28978  -0.27632  -0.27074
 Alpha  occ. eigenvalues --   -0.26613  -0.24853  -0.24494  -0.22995  -0.22627
 Alpha  occ. eigenvalues --   -0.20905  -0.19045  -0.18801  -0.13406  -0.12076
 Alpha  occ. eigenvalues --   -0.09220   0.04977
 Alpha virt. eigenvalues --    0.06926   0.07851   0.08885   0.09361   0.09884
 Alpha virt. eigenvalues --    0.10826   0.11101   0.11654   0.12741   0.12993
 Alpha virt. eigenvalues --    0.13579   0.14209   0.14590   0.15910   0.16224

  Beta  occ. eigenvalues --  -19.02964 -19.02200 -18.95345 -10.14364 -10.11786
  Beta  occ. eigenvalues --  -10.09676 -10.06234 -10.05779 -10.05224 -10.04224
  Beta  occ. eigenvalues --  -10.03983 -10.03758 -10.03749 -10.03538  -0.96321
  Beta  occ. eigenvalues --   -0.94612  -0.86652  -0.72591  -0.68523  -0.64466
  Beta  occ. eigenvalues --   -0.63288  -0.58240  -0.56183  -0.50381  -0.48683
  Beta  occ. eigenvalues --   -0.46510  -0.44572  -0.38847  -0.37509  -0.36380
  Beta  occ. eigenvalues --   -0.34769  -0.33919  -0.31659  -0.30896  -0.30278
  Beta  occ. eigenvalues --   -0.29790  -0.29190  -0.28862  -0.27530  -0.26997
  Beta  occ. eigenvalues --   -0.26485  -0.24728  -0.24192  -0.22888  -0.22538
  Beta  occ. eigenvalues --   -0.20819  -0.18563  -0.17917  -0.13183  -0.10860
  Beta  occ. eigenvalues --   -0.08767
  Beta virt. eigenvalues --    0.07391   0.08204   0.08887   0.09581   0.09764
  Beta virt. eigenvalues --    0.09979   0.10987   0.11446   0.11884   0.12776
  Beta virt. eigenvalues --    0.13208   0.13710   0.14371   0.14786   0.15889

 Mulliken charges and spin densities:
               1          2
     1  C    0.607199  -1.168065
     2  C   -0.579613   1.073526
     3  C   -0.202484  -1.019202
     4  C    0.208966   0.957091
     5  C    0.005204   1.001079
     6  C   -0.570611  -0.674416
     7  C   -0.558228   0.444007
     8  C    0.212795  -0.000029
     9  C   -0.571144  -0.443941
    10  O   -0.009070   0.006438
    11  C    0.373255   0.068133
    12  O   -0.404806   0.079938
    13  O   -0.215230   0.009283
    14  C    0.756626  -1.257988
    15  H   -0.375021   0.507213
    16  H    0.066867   0.089942
    17  H    0.065060   0.083054
    18  H   -0.010907   0.196254
    19  H   -0.079352   0.218495
    20  H   -0.051489   0.226115
    21  H    0.073856   0.004717
    22  H    0.149668   0.001371
    23  H    0.263011  -0.001662
    24  H   -0.185602   0.348777
    25  H    0.072449   0.071826
    26  H   -0.041399   0.178045
 Sum of Mulliken charges =  -1.00000   1.00000

 Dipole moment (field-independent basis, Debye):
    X=              1.9489    Y=              1.4769    Z=              0.7839  Tot=              2.5679
 Quadrupole moment (field-independent basis, Debye-Ang):
   XX=           -126.6411   YY=           -119.2766   ZZ=            -97.4214
   XY=              1.7731   XZ=             -1.6480   YZ=              2.3233

 Summary of Natural Population Analysis:

                                       Natural Population
                Natural  -----------------------------------------------
    Atom  No    Charge         Core      Valence    Rydberg      Total
 -----------------------------------------------------------------------
      C    1   -0.29172      0.99964     2.28601    0.00607     3.29172
      C    2    0.06777      0.99958     1.91906    0.01359     2.93223
      C    3   -0.20452      0.99960     2.19677    0.00815     3.20452
      C    4   -0.05782      0.99944     2.04902    0.00936     3.05782
      C    5    0.04592      0.99948     1.94493    0.00968     2.95408
      C    6   -0.14226      0.99953     2.13378    0.00895     3.14226
      C    7   -0.04199      0.99956     2.03362    0.00880     3.04199
      C    8   -0.10069      0.99942     2.09189    0.00937     3.10069
      C    9    0.20397      0.99933     1.78258    0.01413     2.79603
      O   10   -0.26464      0.99986     3.25655    0.00822     4.26464
      C   11    0.41500      0.99966     1.55916    0.02617     2.58500
      O   12   -0.29611      0.99987     3.28969    0.00656     4.29611
      O   13   -0.35963      0.99988     3.35261    0.00715     4.35963
      C   14   -0.29554      0.99965     2.29071    0.00518     3.29554
      H   15    0.10011      0.00000     0.39848    0.00142     0.39989
      H   16    0.10000      0.00000     0.39903    0.00097     0.40000
      H   17    0.10286      0.00000     0.39624    0.00090     0.39714
      H   18    0.08357      0.00000     0.41523    0.00120     0.41643
      H   19    0.10465      0.00000     0.39415    0.00120     0.39535
      H   20    0.10012      0.00000     0.39846    0.00142     0.39988
      H   21    0.09247      0.00000     0.40659    0.00094     0.40753
      H   22    0.10136      0.00000     0.39751    0.00112     0.39864
      H   23    0.23245      0.00000     0.26464    0.00291     0.26755
      H   24    0.10595      0.00000     0.39212    0.00193     0.39405
      H   25    0.10142      0.00000     0.39763    0.00095     0.39858
      H   26    0.09730      0.00000     0.40192    0.00078     0.40270
 =======================================================================
   * Total *    0.00000     13.99450    36.84839    0.15711    51.00000

 Normal termination of Gaussian 16 at Thu Dec 10 09:38:00 2020.
