 Gaussian 16, Revision A.03,

 -----------------------------------------------------------
 # opt freq B3LYP/6-31G(d) empiricaldispersion=gd3bj scf=xqc
 -----------------------------------------------------------

 -------------------------------
 CID_149560229_JID_4684_neutraal
 -------------------------------
 Symbolic Z-matrix:
 Charge =  0 Multiplicity = 1

 SCF Done:  E(RB3LYP) =  -546.594085272     A.U. after   13 cycles
 SCF Done:  E(RB3LYP) =  -546.627476682     A.U. after   11 cycles
 SCF Done:  E(RB3LYP) =  -546.653095427     A.U. after   11 cycles
 SCF Done:  E(RB3LYP) =  -546.655993115     A.U. after   11 cycles
 SCF Done:  E(RB3LYP) =  -546.657248449     A.U. after   11 cycles
 SCF Done:  E(RB3LYP) =  -546.657735420     A.U. after   10 cycles
 SCF Done:  E(RB3LYP) =  -546.657886601     A.U. after   10 cycles
 SCF Done:  E(RB3LYP) =  -546.658014287     A.U. after   10 cycles
 SCF Done:  E(RB3LYP) =  -546.658054696     A.U. after    9 cycles
 SCF Done:  E(RB3LYP) =  -546.658061082     A.U. after    8 cycles
 SCF Done:  E(RB3LYP) =  -546.658062683     A.U. after    7 cycles
 SCF Done:  E(RB3LYP) =  -546.658063092     A.U. after    6 cycles
 SCF Done:  E(RB3LYP) =  -546.658063284     A.U. after    6 cycles
 Optimization completed.
    -- Stationary point found.
 Normal termination of Gaussian 16 at Thu Dec 10 10:27:24 2020.

 --------------------------------------------------------------------
 #N Geom=AllCheck Guess=TCheck SCRF=Check GenChk RB3LYP/6-31G(d) Freq
 --------------------------------------------------------------------

 Structure from the checkpoint file:  "JID_4684.chk"
 -------------------------------
 CID_149560229_JID_4684_neutraal
 -------------------------------
 Charge =  0 Multiplicity = 1

 SCF Done:  E(RB3LYP) =  -546.658063284     A.U. after    1 cycles

  Exact polarizability: 159.183  -1.382 137.222  -3.101   0.352 115.813
 Approx polarizability: 204.387  -2.138 193.878  -5.559  -0.733 188.565

                      1                      2                      3
                      A                      A                      A
 Frequencies --     54.0128               129.1367               143.4951
 Red. masses --      2.8576                 2.6851                 2.6242
 Frc consts  --      0.0049                 0.0264                 0.0318
 IR Inten    --      0.0036                 0.0733                 0.0337

                      4                      5                      6
                      A                      A                      A
 Frequencies --    170.0355               203.1460               223.3911
 Red. masses --      2.4999                 2.6812                 1.7547
 Frc consts  --      0.0426                 0.0652                 0.0516
 IR Inten    --      0.0817                 0.3060                 0.0751

                      7                      8                      9
                      A                      A                      A
 Frequencies --    234.9649               285.4786               329.8405
 Red. masses --      1.9247                 2.2399                 2.2747
 Frc consts  --      0.0626                 0.1076                 0.1458
 IR Inten    --      0.0561                 0.1447                 0.1398

                     10                     11                     12
                      A                      A                      A
 Frequencies --    345.6073               363.8564               394.9474
 Red. masses --      2.5846                 2.3500                 2.3928
 Frc consts  --      0.1819                 0.1833                 0.2199
 IR Inten    --      0.3512                 0.1347                 0.3422

                     13                     14                     15
                      A                      A                      A
 Frequencies --    396.3121               453.1942               467.0142
 Red. masses --      2.4034                 2.8999                 2.6506
 Frc consts  --      0.2224                 0.3509                 0.3406
 IR Inten    --      0.8460                 0.1801                 1.1880

                     16                     17                     18
                      A                      A                      A
 Frequencies --    500.5749               550.1482               601.8958
 Red. masses --      2.7560                 2.2407                 2.6552
 Frc consts  --      0.4069                 0.3996                 0.5668
 IR Inten    --      0.4199                 0.4449                 1.5502

                     19                     20                     21
                      A                      A                      A
 Frequencies --    623.2563               663.8260               724.8862
 Red. masses --      2.8407                 2.2002                 2.3839
 Frc consts  --      0.6501                 0.5712                 0.7380
 IR Inten    --      0.1018                 1.5366                 0.5906

                     22                     23                     24
                      A                      A                      A
 Frequencies --    739.2052               756.8715               822.1720
 Red. masses --      2.4857                 1.5589                 2.4824
 Frc consts  --      0.8003                 0.5261                 0.9887
 IR Inten    --      0.1847                 0.8979                 0.0908

                     25                     26                     27
                      A                      A                      A
 Frequencies --    831.9223               850.7594               885.8844
 Red. masses --      1.6372                 2.0673                 2.3643
 Frc consts  --      0.6676                 0.8816                 1.0932
 IR Inten    --      1.4349                 1.1463                 0.4579

                     28                     29                     30
                      A                      A                      A
 Frequencies --    897.4992               900.6601               915.1961
 Red. masses --      2.0671                 2.2967                 2.1175
 Frc consts  --      0.9810                 1.0977                 1.0450
 IR Inten    --      0.3678                 1.6110                 3.1315

                     31                     32                     33
                      A                      A                      A
 Frequencies --    940.0005               951.9938               962.1433
 Red. masses --      1.9067                 1.5975                 2.2906
 Frc consts  --      0.9926                 0.8530                 1.2493
 IR Inten    --      2.6619                 0.2362                 0.7180

                     34                     35                     36
                      A                      A                      A
 Frequencies --    975.8659               987.7018              1009.8738
 Red. masses --      1.8650                 1.5601                 1.6392
 Frc consts  --      1.0464                 0.8967                 0.9849
 IR Inten    --      0.6442                 0.3386                 1.2065

                     37                     38                     39
                      A                      A                      A
 Frequencies --   1022.9462              1037.5246              1059.2918
 Red. masses --      1.8107                 1.5670                 1.9113
 Frc consts  --      1.1164                 0.9938                 1.2636
 IR Inten    --      2.3628                 8.5362                 1.0636

                     40                     41                     42
                      A                      A                      A
 Frequencies --   1064.9218              1085.3953              1100.1558
 Red. masses --      2.1505                 1.4244                 2.1416
 Frc consts  --      1.4369                 0.9887                 1.5272
 IR Inten    --      0.6662                 1.0407                 1.3065

                     43                     44                     45
                      A                      A                      A
 Frequencies --   1110.0554              1132.1086              1143.9905
 Red. masses --      2.3693                 2.7447                 1.7211
 Frc consts  --      1.7201                 2.0726                 1.3271
 IR Inten    --      1.2931                 0.4180                 0.1072

                     46                     47                     48
                      A                      A                      A
 Frequencies --   1148.3806              1163.7696              1178.9324
 Red. masses --      1.6412                 1.9886                 2.2897
 Frc consts  --      1.2752                 1.5869                 1.8750
 IR Inten    --      1.8984                 0.9838                 0.6951

                     49                     50                     51
                      A                      A                      A
 Frequencies --   1190.8713              1212.6859              1221.7421
 Red. masses --      1.4510                 1.5198                 1.9276
 Frc consts  --      1.2124                 1.3169                 1.6953
 IR Inten    --      0.6969                 1.5963                 0.4908

                     52                     53                     54
                      A                      A                      A
 Frequencies --   1227.5866              1231.9639              1240.8000
 Red. masses --      1.2173                 1.4422                 1.4689
 Frc consts  --      1.0808                 1.2897                 1.3325
 IR Inten    --      0.6115                 5.4409                 7.8213

                     55                     56                     57
                      A                      A                      A
 Frequencies --   1243.0980              1246.5765              1261.5924
 Red. masses --      1.4328                 1.7219                 1.3904
 Frc consts  --      1.3045                 1.5765                 1.3039
 IR Inten    --      0.6203                 2.0135                 0.3382

                     58                     59                     60
                      A                      A                      A
 Frequencies --   1267.7295              1284.4932              1294.7703
 Red. masses --      1.3310                 1.3642                 1.4731
 Frc consts  --      1.2603                 1.3262                 1.4550
 IR Inten    --      0.3998                 0.7229                 2.1468

                     61                     62                     63
                      A                      A                      A
 Frequencies --   1321.4579              1330.1487              1347.1567
 Red. masses --      1.4722                 1.3467                 1.2777
 Frc consts  --      1.5147                 1.4039                 1.3662
 IR Inten    --      0.3567                 1.1650                 1.4458

                     64                     65                     66
                      A                      A                      A
 Frequencies --   1363.4062              1377.9620              1390.4435
 Red. masses --      1.3829                 1.4822                 1.4659
 Frc consts  --      1.5146                 1.6582                 1.6698
 IR Inten    --      3.1152                 3.5165                 2.6997

                     67                     68                     69
                      A                      A                      A
 Frequencies --   1405.0327              1414.9099              1437.8056
 Red. masses --      1.4138                 1.5213                 1.2289
 Frc consts  --      1.6444                 1.7945                 1.4968
 IR Inten    --      1.2024                 5.0096                 5.9961

                     70                     71                     72
                      A                      A                      A
 Frequencies --   1451.9056              1472.2570              1508.6210
 Red. masses --      1.1731                 1.1460                 1.1013
 Frc consts  --      1.4570                 1.4635                 1.4767
 IR Inten    --      3.4627                 2.9619                 5.6933

                     73                     74                     75
                      A                      A                      A
 Frequencies --   1513.2034              1513.7434              1519.5606
 Red. masses --      1.0817                 1.0944                 1.0992
 Frc consts  --      1.4593                 1.4775                 1.4954
 IR Inten    --      1.6493                 3.0844                 0.9900

                     76                     77                     78
                      A                      A                      A
 Frequencies --   1524.2406              1528.4123              1532.4968
 Red. masses --      1.1172                 1.0921                 1.0776
 Frc consts  --      1.5293                 1.5031                 1.4911
 IR Inten    --      0.4133                 2.2969                 6.0196

                     79                     80                     81
                      A                      A                      A
 Frequencies --   1540.4946              1542.1864              2983.8303
 Red. masses --      1.0636                 1.0857                 1.0820
 Frc consts  --      1.4871                 1.5214                 5.6757
 IR Inten    --      2.6250                 7.8891                18.8663

                     82                     83                     84
                      A                      A                      A
 Frequencies --   3021.1527              3029.1138              3037.6922
 Red. masses --      1.0634                 1.0635                 1.0772
 Frc consts  --      5.7187                 5.7494                 5.8565
 IR Inten    --     28.6972                18.7581                 4.4033

                     85                     86                     87
                      A                      A                      A
 Frequencies --   3045.4719              3052.5217              3058.0577
 Red. masses --      1.0841                 1.0449                 1.0886
 Frc consts  --      5.9242                 5.7362                 5.9980
 IR Inten    --     38.9302                26.2415                13.4892

                     88                     89                     90
                      A                      A                      A
 Frequencies --   3060.3248              3061.7971              3063.1274
 Red. masses --      1.0821                 1.0641                 1.0577
 Frc consts  --      5.9713                 5.8774                 5.8471
 IR Inten    --     19.3716                65.0408                49.5258

                     91                     92                     93
                      A                      A                      A
 Frequencies --   3069.9234              3071.2601              3072.2216
 Red. masses --      1.0660                 1.0728                 1.0997
 Frc consts  --      5.9190                 5.9620                 6.1155
 IR Inten    --     85.0077                24.6731                65.8134

                     94                     95                     96
                      A                      A                      A
 Frequencies --   3079.1289              3085.3458              3108.9189
 Red. masses --      1.0731                 1.0597                 1.1015
 Frc consts  --      5.9943                 5.9433                 6.2724
 IR Inten    --     47.7022                31.7028                54.4795

                     97                     98                     99
                      A                      A                      A
 Frequencies --   3110.6978              3118.2959              3128.7801
 Red. masses --      1.1039                 1.1107                 1.1015
 Frc consts  --      6.2933                 6.3636                 6.3533
 IR Inten    --     58.1550                15.9070                32.7832

                    100                    101                    102
                      A                      A                      A
 Frequencies --   3133.8312              3141.4398              3145.8145
 Red. masses --      1.1080                 1.1032                 1.1024
 Frc consts  --      6.4110                 6.4147                 6.4280
 IR Inten    --     67.6765                53.0879                27.0244

 - Thermochemistry -
 -------------------
 Temperature   298.150 Kelvin.  Pressure   1.00000 Atm.
 Atom     1 has atomic number  6 and mass  12.00000

 Molecular mass:   190.17215 amu.
 Principal axes and moments of inertia in atomic units:
                           1         2         3
     Eigenvalues --  1684.975582989.483183949.51389
           X            0.99999  -0.00128  -0.00404
           Y            0.00131   0.99998   0.00541
           Z            0.00403  -0.00542   0.99998
 This molecule is an asymmetric top.
 Rotational symmetry number  1.
 Warning -- assumption of classical behavior for rotation
           may cause significant error
 Rotational temperatures (Kelvin)      0.05140     0.02897     0.02193
 Rotational constants (GHZ):           1.07108     0.60370     0.45695
 Zero-point vibrational energy     874304.8 (Joules/Mol)
                                  208.96386 (Kcal/Mol)
 Warning -- explicit consideration of  18 degrees of freedom as
           vibrations may cause significant error
 Vibrational temperatures:     77.71   185.80   206.46   244.64   292.28
          (Kelvin)            321.41   338.06   410.74   474.57   497.25
                              523.51   568.24   570.20   652.05   671.93
                              720.22   791.54   865.99   896.73   955.10
                             1042.95  1063.55  1088.97  1182.92  1196.95
                             1224.05  1274.59  1291.30  1295.85  1316.76
                             1352.45  1369.71  1384.31  1404.05  1421.08
                             1452.98  1471.79  1492.77  1524.08  1532.18
                             1561.64  1582.88  1597.12  1628.85  1645.95
                             1652.26  1674.40  1696.22  1713.40  1744.78
                             1757.81  1766.22  1772.52  1785.23  1788.54
                             1793.55  1815.15  1823.98  1848.10  1862.89
                             1901.28  1913.79  1938.26  1961.64  1982.58
                             2000.54  2021.53  2035.74  2068.68  2088.97
                             2118.25  2170.57  2177.16  2177.94  2186.31
                             2193.04  2199.04  2204.92  2216.43  2218.86
                             4293.07  4346.76  4358.22  4370.56  4381.75
                             4391.90  4399.86  4403.12  4405.24  4407.16
                             4416.94  4418.86  4420.24  4430.18  4439.12
                             4473.04  4475.60  4486.53  4501.62  4508.88
                             4519.83  4526.13

 Zero-point correction=                           0.333005 (Hartree/Particle)
 Thermal correction to Energy=                    0.345278
 Thermal correction to Enthalpy=                  0.346222
 Thermal correction to Gibbs Free Energy=         0.295555
 Sum of electronic and zero-point Energies=           -546.325058
 Sum of electronic and thermal Energies=              -546.312786
 Sum of electronic and thermal Enthalpies=            -546.311841
 Sum of electronic and thermal Free Energies=         -546.362508

                     E (Thermal)             CV                S
                      KCal/Mol        Cal/Mol-Kelvin    Cal/Mol-Kelvin
 Total                  216.665             52.301            106.637
 Electronic               0.000              0.000              0.000
 Translational            0.889              2.981             41.634
 Rotational               0.889              2.981             31.365
 Vibrational            214.888             46.340             33.638
 Vibration     1          0.596              1.976              4.665
 Vibration     2          0.612              1.924              2.959
 Vibration     3          0.616              1.910              2.757
 Vibration     4          0.625              1.879              2.435
 Vibration     5          0.639              1.835              2.104
 Vibration     6          0.649              1.805              1.931
 Vibration     7          0.655              1.787              1.841
 Vibration     8          0.683              1.701              1.501
 Vibration     9          0.713              1.616              1.261
 Vibration    10          0.724              1.584              1.186
 Vibration    11          0.737              1.547              1.106
 Vibration    12          0.762              1.481              0.981
 Vibration    13          0.763              1.478              0.976
 Vibration    14          0.812              1.354              0.786
 Vibration    15          0.824              1.323              0.746
 Vibration    16          0.856              1.249              0.657
 Vibration    17          0.905              1.139              0.544
 Vibration    18          0.960              1.028              0.446

 Optimization completed.
    -- Stationary point found.
 Normal termination of Gaussian 16 at Thu Dec 10 10:41:01 2020.

 ----------------------------------------------------------------------
 # B3LYP/6-311++G(d,p) empiricaldispersion=gd3bj scf=xqc pop=npa geom=c
 heck
 ----------------------------------------------------------------------

 ---------------------------------------
 CID_149560229_JID_4684_Energie_neutraal
 ---------------------------------------
 Structure from the checkpoint file:  "JID_4684.chk"
 Charge =  0 Multiplicity = 1

 SCF Done:  E(RB3LYP) =  -546.796078271     A.U. after   13 cycles
 Normal termination of Gaussian 16 at Thu Dec 10 10:47:00 2020.

 ----------------------------------------------------------------------
 # B3LYP/6-311++G(d,p) empiricaldispersion=gd3bj scf=xqc pop=npa geom=c
 heck
 ----------------------------------------------------------------------

 -------------------------------------
 CID_149560229_JID_4684_Energie_kation
 -------------------------------------
 Structure from the checkpoint file:  "JID_4684.chk"
 Charge =  1 Multiplicity = 2

 SCF Done:  E(UB3LYP) =  -546.497536692     A.U. after   19 cycles
 Normal termination of Gaussian 16 at Thu Dec 10 11:00:10 2020.
 Gaussian 16:  ES64L-G16RevA.03 25-Dec-2016

 ----------------------------------------------------------------------
 # B3LYP/6-311++G(d,p) empiricaldispersion=gd3bj scf=xqc pop=npa geom=c
 heck
 ----------------------------------------------------------------------

 ------------------------------------
 CID_149560229_JID_4684_Energie_anion
 ------------------------------------
 Structure from the checkpoint file:  "JID_4684.chk"
 Charge = -1 Multiplicity = 2

                         Standard orientation:
 ---------------------------------------------------------------------
 Center     Atomic      Atomic             Coordinates (Angstroms)
 Number     Number       Type             X           Y           Z
 ---------------------------------------------------------------------
      1          6           0        0.032951    2.869702    0.136179
      2          6           0       -0.642820    1.566193   -0.307666
      3          6           0       -2.030315    1.434914    0.344974
      4          6           0       -2.884676    0.427229   -0.422618
      5          6           0       -2.162752   -0.903227   -0.597282
      6          6           0       -2.079178   -1.894692    0.585817
      7          6           0       -0.669734   -2.285566    0.092632
      8          6           0       -0.592955   -0.937910   -0.700205
      9          6           0        0.169648    0.268977   -0.078172
     10          6           0        0.745901    0.025051    1.412464
     11          6           0        2.010919   -0.552903    0.702216
     12          6           0        1.703719    0.322176   -0.463326
     13          6           0        2.966651   -0.271800   -1.173937
     14          6           0        3.523761   -0.436094    0.312379
     15          1           0        0.218996    2.889204    1.216091
     16          1           0       -0.623296    3.716628   -0.094484
     17          1           0        0.983788    3.048302   -0.373911
     18          1           0       -0.799706    1.641807   -1.396668
     19          1           0       -2.532503    2.410192    0.363446
     20          1           0       -1.909625    1.128793    1.393953
     21          1           0       -3.849866    0.261774    0.075392
     22          1           0       -3.111901    0.854364   -1.409373
     23          1           0       -2.571741   -1.434111   -1.465493
     24          1           0       -2.843739   -2.676125    0.648402
     25          1           0       -2.036313   -1.371039    1.547666
     26          1           0       -0.709002   -3.131043   -0.602222
     27          1           0        0.082131   -2.505827    0.851738
     28          1           0       -0.231404   -1.042740   -1.729287
     29          1           0        0.926656    0.975997    1.918987
     30          1           0        0.181456   -0.631973    2.080527
     31          1           0        1.753047   -1.578698    0.421547
     32          1           0        2.023931    1.332741   -0.182707
     33          1           0        2.793744   -1.251786   -1.630565
     34          1           0        3.528376    0.364344   -1.866003
     35          1           0        4.183810   -1.284660    0.521238
     36          1           0        3.996437    0.491540    0.650992
 ---------------------------------------------------------------------

 SCF Done:  E(UB3LYP) =  -546.778201508     A.U. after   33 cycles
 SCF Done:  E(UB3LYP) =  -546.778201509     a.u. after    1 cycles

 The electronic state is 2-A.
 Alpha  occ. eigenvalues --  -10.09238 -10.08359 -10.08058 -10.07744 -10.06925
 Alpha  occ. eigenvalues --  -10.06922 -10.06536 -10.06463 -10.06304 -10.06110
 Alpha  occ. eigenvalues --  -10.05989 -10.05958 -10.05808 -10.05669  -0.78816
 Alpha  occ. eigenvalues --   -0.74998  -0.70294  -0.66912  -0.62930  -0.58450
 Alpha  occ. eigenvalues --   -0.56220  -0.54417  -0.52650  -0.51402  -0.48370
 Alpha  occ. eigenvalues --   -0.46393  -0.45857  -0.40469  -0.39311  -0.37240
 Alpha  occ. eigenvalues --   -0.35867  -0.34435  -0.34278  -0.33426  -0.32378
 Alpha  occ. eigenvalues --   -0.31889  -0.30052  -0.28792  -0.27661  -0.26815
 Alpha  occ. eigenvalues --   -0.25981  -0.25422  -0.25016  -0.24332  -0.24067
 Alpha  occ. eigenvalues --   -0.22419  -0.22183  -0.21660  -0.20133  -0.19045
 Alpha  occ. eigenvalues --   -0.18391  -0.17783  -0.13874   0.04638
 Alpha virt. eigenvalues --    0.06532   0.06760   0.07298   0.08318   0.08499
 Alpha virt. eigenvalues --    0.08978   0.09470   0.09679   0.10642   0.11002
 Alpha virt. eigenvalues --    0.11622   0.11706   0.12256   0.12602   0.13006

  Beta  occ. eigenvalues --  -10.09238 -10.08347 -10.08040 -10.07735 -10.06917
  Beta  occ. eigenvalues --  -10.06913 -10.06532 -10.06452 -10.06290 -10.06102
  Beta  occ. eigenvalues --  -10.05977 -10.05942 -10.05792 -10.05646  -0.78803
  Beta  occ. eigenvalues --   -0.74971  -0.70271  -0.66892  -0.62898  -0.58418
  Beta  occ. eigenvalues --   -0.56183  -0.54379  -0.52607  -0.51362  -0.48330
  Beta  occ. eigenvalues --   -0.46359  -0.45818  -0.40437  -0.39261  -0.37201
  Beta  occ. eigenvalues --   -0.35843  -0.34406  -0.34252  -0.33396  -0.32353
  Beta  occ. eigenvalues --   -0.31856  -0.30023  -0.28765  -0.27633  -0.26785
  Beta  occ. eigenvalues --   -0.25954  -0.25388  -0.24988  -0.24303  -0.24036
  Beta  occ. eigenvalues --   -0.22394  -0.22157  -0.21634  -0.20109  -0.19013
  Beta  occ. eigenvalues --   -0.18365  -0.17760  -0.13852
  Beta virt. eigenvalues --    0.06659   0.07321   0.07488   0.07620   0.08860
  Beta virt. eigenvalues --    0.08985   0.09285   0.09949   0.10069   0.11041
  Beta virt. eigenvalues --    0.11404   0.11953   0.12206   0.12593   0.12873

 Mulliken charges and spin densities:
               1          2
     1  C    0.591421  -1.245289
     2  C   -1.142555   1.537258
     3  C    0.005552  -0.413275
     4  C    1.044702  -1.777224
     5  C   -0.245874   0.286361
     6  C    0.382331  -0.871701
     7  C   -0.174941  -0.363552
     8  C   -0.523723   0.441405
     9  C    0.763987  -0.293040
    10  C   -0.175042  -0.837290
    11  C    0.119712   0.347310
    12  C    0.148723  -0.198324
    13  C    0.437886  -0.797607
    14  C   -0.173546  -0.152532
    15  H    0.004913   0.141167
    16  H   -0.369759   0.521469
    17  H   -0.416611   0.548955
    18  H   -0.122140   0.335558
    19  H   -0.152114   0.322945
    20  H    0.115197   0.028118
    21  H   -0.195151   0.353480
    22  H   -0.083969   0.213351
    23  H   -0.578113   0.792251
    24  H   -0.260480   0.435685
    25  H    0.026025   0.082024
    26  H   -0.245893   0.414337
    27  H   -0.038803   0.149357
    28  H   -0.211518   0.462958
    29  H    0.143909  -0.022376
    30  H    0.152091  -0.000944
    31  H    0.122577  -0.068174
    32  H    0.582829  -0.462822
    33  H   -0.028024   0.165587
    34  H   -0.296664   0.443491
    35  H   -0.080674   0.229679
    36  H   -0.126261   0.251404
 Sum of Mulliken charges =  -1.00000   1.00000

 Dipole moment (field-independent basis, Debye):
    X=              2.3855    Y=             -0.4133    Z=              4.3255  Tot=              4.9570
 Quadrupole moment (field-independent basis, Debye-Ang):
   XX=           -156.0180   YY=           -148.6015   ZZ=           -125.3182
   XY=             -4.9591   XZ=             -2.3208   YZ=             -1.2362

 Summary of Natural Population Analysis:

                                       Natural Population
                Natural  -----------------------------------------------
    Atom  No    Charge         Core      Valence    Rydberg      Total
 -----------------------------------------------------------------------
      C    1   -0.28268      0.99965     2.27676    0.00628     3.28268
      C    2   -0.11407      0.99953     2.10257    0.01197     3.11407
      C    3   -0.18572      0.99961     2.17699    0.00913     3.18572
      C    4   -0.18771      0.99960     2.17909    0.00902     3.18771
      C    5   -0.10149      0.99959     2.08944    0.01246     3.10149
      C    6   -0.18714      0.99962     2.17924    0.00827     3.18714
      C    7   -0.18925      0.99962     2.18064    0.00898     3.18925
      C    8   -0.10355      0.99954     2.09064    0.01337     3.10355
      C    9   -0.01380      0.99952     1.99823    0.01606     3.01380
      C   10   -0.18188      0.99958     2.17434    0.00796     3.18188
      C   11   -0.11665      0.99945     2.10783    0.00937     3.11665
      C   12   -0.10578      0.99944     2.09271    0.01363     3.10578
      C   13   -0.17700      0.99962     2.16858    0.00879     3.17700
      C   14   -0.17851      0.99962     2.17032    0.00857     3.17851
      H   15    0.09439      0.00000     0.40462    0.00099     0.40561
      H   16    0.10192      0.00000     0.39699    0.00108     0.39808
      H   17    0.10002      0.00000     0.39891    0.00107     0.39998
      H   18    0.09785      0.00000     0.40013    0.00202     0.40215
      H   19    0.09958      0.00000     0.39938    0.00104     0.40042
      H   20    0.09251      0.00000     0.40616    0.00132     0.40749
      H   21    0.09788      0.00000     0.40110    0.00102     0.40212
      H   22    0.09774      0.00000     0.40064    0.00162     0.40226
      H   23    0.10138      0.00000     0.39633    0.00228     0.39862
      H   24    0.09647      0.00000     0.40224    0.00129     0.40353
      H   25    0.09127      0.00000     0.40729    0.00144     0.40873
      H   26    0.10094      0.00000     0.39770    0.00135     0.39906
      H   27    0.09439      0.00000     0.40441    0.00120     0.40561
      H   28    0.10340      0.00000     0.39490    0.00170     0.39660
      H   29    0.10086      0.00000     0.39805    0.00108     0.39914
      H   30    0.09742      0.00000     0.40160    0.00098     0.40258
      H   31    0.08854      0.00000     0.40896    0.00250     0.41146
      H   32    0.08727      0.00000     0.40992    0.00281     0.41273
      H   33    0.09678      0.00000     0.40146    0.00177     0.40322
      H   34    0.09572      0.00000     0.40310    0.00118     0.40428
      H   35    0.09358      0.00000     0.40555    0.00088     0.40642
      H   36    0.09531      0.00000     0.40325    0.00144     0.40469
 =======================================================================
   * Total *   -0.00000     13.99400    38.83007    0.17593    53.00000

 Normal termination of Gaussian 16 at Thu Dec 10 11:20:09 2020.
