 Gaussian 16, Revision A.03,

 -----------------------------------------------------------
 # opt freq B3LYP/6-31G(d) empiricaldispersion=gd3bj scf=xqc
 -----------------------------------------------------------

 ------------------------------
 CID_63302118_JID_9821_neutraal
 ------------------------------
 Symbolic Z-matrix:
 Charge =  0 Multiplicity = 1

 SCF Done:  E(RB3LYP) =  -1160.35902480     A.U. after   15 cycles
 SCF Done:  E(RB3LYP) =  -1160.36465581     A.U. after   12 cycles
 SCF Done:  E(RB3LYP) =  -1160.36578015     A.U. after   12 cycles
 SCF Done:  E(RB3LYP) =  -1160.36625427     A.U. after   12 cycles
 SCF Done:  E(RB3LYP) =  -1160.36673111     A.U. after   12 cycles
 SCF Done:  E(RB3LYP) =  -1160.36703486     A.U. after   12 cycles
 SCF Done:  E(RB3LYP) =  -1160.36782030     A.U. after   12 cycles
 SCF Done:  E(RB3LYP) =  -1160.36934315     A.U. after   12 cycles
 SCF Done:  E(RB3LYP) =  -1160.36946848     A.U. after   12 cycles
 SCF Done:  E(RB3LYP) =  -1160.36980833     A.U. after   12 cycles
 SCF Done:  E(RB3LYP) =  -1160.36995694     A.U. after   10 cycles
 SCF Done:  E(RB3LYP) =  -1160.36995947     A.U. after   10 cycles
 SCF Done:  E(RB3LYP) =  -1160.36996000     A.U. after    9 cycles
 SCF Done:  E(RB3LYP) =  -1160.36996018     A.U. after    8 cycles
 Optimization completed.
    -- Stationary point found.
 Normal termination of Gaussian 16 at Sat Dec 12 10:09:06 2020.

 --------------------------------------------------------------------
 #N Geom=AllCheck Guess=TCheck SCRF=Check GenChk RB3LYP/6-31G(d) Freq
 --------------------------------------------------------------------

 Structure from the checkpoint file:  "JID_9821.chk"
 ------------------------------
 CID_63302118_JID_9821_neutraal
 ------------------------------
 Charge =  0 Multiplicity = 1

 SCF Done:  E(RB3LYP) =  -1160.36996018     A.U. after    1 cycles

  Exact polarizability: 277.971  13.650 161.873  -6.342  14.562 120.853
 Approx polarizability: 356.970  12.728 278.464 -14.560  25.115 210.335

                      1                      2                      3
                      A                      A                      A
 Frequencies --      8.5995                28.3181                35.0046
 Red. masses --      4.9856                 4.3699                 4.1063
 Frc consts  --      0.0002                 0.0021                 0.0030
 IR Inten    --      0.2291                 0.3021                 0.0187

                      4                      5                      6
                      A                      A                      A
 Frequencies --     44.0422                66.0456                83.3670
 Red. masses --      5.8445                 4.6737                 1.4791
 Frc consts  --      0.0067                 0.0120                 0.0061
 IR Inten    --      0.3382                 1.1510                 0.4851

                      7                      8                      9
                      A                      A                      A
 Frequencies --     86.6319               140.2041               145.2458
 Red. masses --      2.2181                 6.0496                 4.2317
 Frc consts  --      0.0098                 0.0701                 0.0526
 IR Inten    --      1.8703                 2.1109                 3.6154

                     10                     11                     12
                      A                      A                      A
 Frequencies --    200.9021               217.3492               257.9388
 Red. masses --      3.2721                 4.4355                 3.8247
 Frc consts  --      0.0778                 0.1235                 0.1499
 IR Inten    --      5.4276                 2.3952                 2.6931

                     13                     14                     15
                      A                      A                      A
 Frequencies --    262.3681               271.2881               291.5093
 Red. masses --      2.6503                 4.2312                 3.9167
 Frc consts  --      0.1075                 0.1835                 0.1961
 IR Inten    --      0.9585                 1.4606                 1.3278

                     16                     17                     18
                      A                      A                      A
 Frequencies --    347.7833               411.0718               417.1632
 Red. masses --      5.6533                 3.8349                 2.9965
 Frc consts  --      0.4029                 0.3818                 0.3072
 IR Inten    --      0.6010                15.8877                 0.0871

                     19                     20                     21
                      A                      A                      A
 Frequencies --    431.1352               494.0545               534.8554
 Red. masses --      2.8828                 5.3610                 3.2501
 Frc consts  --      0.3157                 0.7710                 0.5478
 IR Inten    --      0.9542                 0.9085                 8.4344

                     22                     23                     24
                      A                      A                      A
 Frequencies --    578.1708               601.9902               615.2444
 Red. masses --      3.4648                 5.1695                 6.7227
 Frc consts  --      0.6824                 1.1038                 1.4993
 IR Inten    --     51.5414                 3.0055                25.8952

                     25                     26                     27
                      A                      A                      A
 Frequencies --    634.5343               656.1800               666.2455
 Red. masses --      6.2884                 4.3772                 4.4432
 Frc consts  --      1.4918                 1.1104                 1.1620
 IR Inten    --      0.6125                52.2165                11.5161

                     28                     29                     30
                      A                      A                      A
 Frequencies --    676.6354               695.1583               702.8271
 Red. masses --      6.4021                 2.8500                 2.5595
 Frc consts  --      1.7270                 0.8114                 0.7449
 IR Inten    --      9.8642                16.2752                55.9479

                     31                     32                     33
                      A                      A                      A
 Frequencies --    716.1871               738.5304               775.8112
 Red. masses --      1.7795                 4.3723                 2.0441
 Frc consts  --      0.5378                 1.4051                 0.7249
 IR Inten    --     32.7075                15.6527                14.5909

                     34                     35                     36
                      A                      A                      A
 Frequencies --    782.2185               800.3033               859.5377
 Red. masses --      1.9132                 1.7976                 1.2509
 Frc consts  --      0.6897                 0.6783                 0.5445
 IR Inten    --     10.7191                42.9420                 0.0733

                     37                     38                     39
                      A                      A                      A
 Frequencies --    873.5315               879.8599               925.1767
 Red. masses --      1.3104                 4.3158                 1.4670
 Frc consts  --      0.5891                 1.9685                 0.7398
 IR Inten    --      1.7476                18.9874                 0.1223

                     40                     41                     42
                      A                      A                      A
 Frequencies --    946.1334               968.9797               971.0667
 Red. masses --      3.6792                 1.5268                 1.8318
 Frc consts  --      1.9405                 0.8446                 1.0177
 IR Inten    --     23.2546                 0.9741                 6.8872

                     43                     44                     45
                      A                      A                      A
 Frequencies --    983.1482               997.8552              1021.9394
 Red. masses --      2.1453                 1.2784                 6.0805
 Frc consts  --      1.2218                 0.7500                 3.7415
 IR Inten    --     34.0391                 0.9215                 0.9431

                     46                     47                     48
                      A                      A                      A
 Frequencies --   1032.8412              1039.6808              1049.0331
 Red. masses --      2.5000                 2.2669                 3.6157
 Frc consts  --      1.5713                 1.4437                 2.3444
 IR Inten    --      8.6220                 8.0108                67.8813

                     49                     50                     51
                      A                      A                      A
 Frequencies --   1062.0805              1074.6687              1117.1496
 Red. masses --      2.1725                 1.4690                 1.6242
 Frc consts  --      1.4439                 0.9996                 1.1943
 IR Inten    --      2.1636                 2.2848                 8.9582

                     52                     53                     54
                      A                      A                      A
 Frequencies --   1119.5627              1159.8455              1194.7717
 Red. masses --      3.0063                 1.3049                 1.0990
 Frc consts  --      2.2201                 1.0343                 0.9243
 IR Inten    --     42.1331                 4.2654                 0.1044

                     55                     56                     57
                      A                      A                      A
 Frequencies --   1201.4962              1216.4339              1219.8039
 Red. masses --      2.1541                 1.1347                 1.1654
 Frc consts  --      1.8321                 0.9893                 1.0216
 IR Inten    --     10.1532                 0.5873                10.2646

                     58                     59                     60
                      A                      A                      A
 Frequencies --   1231.6685              1241.6119              1265.1676
 Red. masses --      2.0845                 1.8130                 1.5388
 Frc consts  --      1.8631                 1.6467                 1.4512
 IR Inten    --      0.6323                 3.5758               136.2329

                     61                     62                     63
                      A                      A                      A
 Frequencies --   1276.7785              1305.7813              1333.4800
 Red. masses --      1.3689                 1.7964                 3.9477
 Frc consts  --      1.3148                 1.8046                 4.1358
 IR Inten    --      7.2528                11.7629                12.0192

                     64                     65                     66
                      A                      A                      A
 Frequencies --   1339.4472              1354.6864              1368.7228
 Red. masses --      2.0266                 1.5663                 2.7456
 Frc consts  --      2.1423                 1.6936                 3.0305
 IR Inten    --    128.9037               113.1180                 6.4316

                     67                     68                     69
                      A                      A                      A
 Frequencies --   1369.7131              1391.5158              1400.0148
 Red. masses --      2.0821                 1.7264                 1.6597
 Frc consts  --      2.3015                 1.9696                 1.9166
 IR Inten    --     10.4567                30.0270                 5.1723

                     70                     71                     72
                      A                      A                      A
 Frequencies --   1445.7228              1472.9830              1482.6857
 Red. masses --      2.2760                 1.6566                 1.4793
 Frc consts  --      2.8028                 2.1177                 1.9161
 IR Inten    --     31.9721                10.3221                27.5864

                     73                     74                     75
                      A                      A                      A
 Frequencies --   1504.9369              1512.3748              1520.3492
 Red. masses --      2.1724                 1.6987                 1.2975
 Frc consts  --      2.8988                 2.2893                 1.7671
 IR Inten    --      6.9364                10.1999                 2.6624

                     76                     77                     78
                      A                      A                      A
 Frequencies --   1524.7592              1525.6624              1541.6741
 Red. masses --      1.1382                 1.1071                 1.2569
 Frc consts  --      1.5590                 1.5183                 1.7600
 IR Inten    --     26.8585                 3.3709                16.1464

                     79                     80                     81
                      A                      A                      A
 Frequencies --   1547.9084              1603.4603              1647.0232
 Red. masses --      2.2221                 5.4550                 5.4942
 Frc consts  --      3.1369                 8.2634                 8.7811
 IR Inten    --     11.1804                 3.1617                 0.7013

                     82                     83                     84
                      A                      A                      A
 Frequencies --   1666.8781              1717.8120              3029.7023
 Red. masses --      5.5749                 7.2798                 1.0678
 Frc consts  --      9.1263                12.6567                 5.7747
 IR Inten    --      4.9574               405.1373                51.0212

                     85                     86                     87
                      A                      A                      A
 Frequencies --   3033.3189              3060.6192              3080.4292
 Red. masses --      1.0679                 1.0426                 1.0871
 Frc consts  --      5.7890                 5.7542                 6.0779
 IR Inten    --     32.3577                33.2881                 5.5953

                     88                     89                     90
                      A                      A                      A
 Frequencies --   3094.4763              3097.6887              3138.9794
 Red. masses --      1.0952                 1.0950                 1.0947
 Frc consts  --      6.1792                 6.1905                 6.3550
 IR Inten    --     17.8566                35.9470                 8.9204

                     91                     92                     93
                      A                      A                      A
 Frequencies --   3179.6612              3187.2575              3189.4478
 Red. masses --      1.0864                 1.0867                 1.1042
 Frc consts  --      6.4714                 6.5044                 6.6183
 IR Inten    --      6.9342                 0.0890                 2.3657

                     94                     95                     96
                      A                      A                      A
 Frequencies --   3196.5751              3204.8947              3213.5300
 Red. masses --      1.0904                 1.0939                 1.0980
 Frc consts  --      6.5645                 6.6197                 6.6807
 IR Inten    --     17.3010                31.7019                19.1913

                     97                     98                     99
                      A                      A                      A
 Frequencies --   3257.2231              3275.4261              3563.9421
 Red. masses --      1.0921                 1.1018                 1.0751
 Frc consts  --      6.8266                 6.9647                 8.0453
 IR Inten    --      8.9623                 5.4621                23.4931

 - Thermochemistry -
 -------------------
 Temperature   298.150 Kelvin.  Pressure   1.00000 Atm.
 Atom     1 has atomic number  6 and mass  12.00000

 Molecular mass:   272.10957 amu.
 Principal axes and moments of inertia in atomic units:
                           1         2         3
     Eigenvalues --  1667.49174********************
           X            1.00000   0.00129   0.00094
           Y           -0.00132   0.99927   0.03812
           Z           -0.00089  -0.03812   0.99927
 This molecule is an asymmetric top.
 Rotational symmetry number  1.
 Warning -- assumption of classical behavior for rotation
           may cause significant error
 Rotational temperatures (Kelvin)      0.05194     0.00626     0.00594
 Rotational constants (GHZ):           1.08231     0.13047     0.12381
 Zero-point vibrational energy     752005.5 (Joules/Mol)
                                  179.73363 (Kcal/Mol)
 Warning -- explicit consideration of  24 degrees of freedom as
           vibrations may cause significant error
 Vibrational temperatures:     12.37    40.74    50.36    63.37    95.02
          (Kelvin)            119.95   124.64   201.72   208.98   289.05
                              312.72   371.12   377.49   390.32   419.42
                              500.38   591.44   600.20   620.31   710.83
                              769.54   831.86   866.13   885.20   912.95
                              944.10   958.58   973.53  1000.18  1011.21
                             1030.43  1062.58  1116.22  1125.44  1151.46
                             1236.68  1256.82  1265.92  1331.12  1361.27
                             1394.15  1397.15  1414.53  1435.69  1470.34
                             1486.03  1495.87  1509.32  1528.10  1546.21
                             1607.33  1610.80  1668.76  1719.01  1728.68
                             1750.18  1755.03  1772.10  1786.40  1820.29
                             1837.00  1878.73  1918.58  1927.17  1949.09
                             1969.29  1970.71  2002.08  2014.31  2080.07
                             2119.29  2133.25  2165.27  2175.97  2187.44
                             2193.79  2195.09  2218.13  2227.09  2307.02
                             2369.70  2398.27  2471.55  4359.07  4364.27
                             4403.55  4432.05  4452.26  4456.88  4516.29
                             4574.82  4585.75  4588.90  4599.16  4611.13
                             4623.55  4686.42  4712.61  5127.72

 Zero-point correction=                           0.286424 (Hartree/Particle)
 Thermal correction to Energy=                    0.303626
 Thermal correction to Enthalpy=                  0.304570
 Thermal correction to Gibbs Free Energy=         0.237276
 Sum of electronic and zero-point Energies=          -1160.083536
 Sum of electronic and thermal Energies=             -1160.066335
 Sum of electronic and thermal Enthalpies=           -1160.065390
 Sum of electronic and thermal Free Energies=        -1160.132684

                     E (Thermal)             CV                S
                      KCal/Mol        Cal/Mol-Kelvin    Cal/Mol-Kelvin
 Total                  190.528             64.694            141.631
 Electronic               0.000              0.000              0.000
 Translational            0.889              2.981             42.702
 Rotational               0.889              2.981             34.174
 Vibrational            188.750             58.732             64.755
 Vibration     1          0.593              1.987              8.311
 Vibration     2          0.593              1.984              5.944
 Vibration     3          0.594              1.982              5.523
 Vibration     4          0.595              1.980              5.068
 Vibration     5          0.597              1.970              4.268
 Vibration     6          0.600              1.961              3.810
 Vibration     7          0.601              1.959              3.735
 Vibration     8          0.615              1.913              2.801
 Vibration     9          0.617              1.908              2.734
 Vibration    10          0.638              1.839              2.125
 Vibration    11          0.646              1.815              1.981
 Vibration    12          0.667              1.749              1.676
 Vibration    13          0.670              1.742              1.646
 Vibration    14          0.675              1.726              1.588
 Vibration    15          0.687              1.690              1.465
 Vibration    16          0.725              1.580              1.176
 Vibration    17          0.775              1.446              0.923
 Vibration    18          0.780              1.433              0.902
 Vibration    19          0.792              1.402              0.855
 Vibration    20          0.850              1.263              0.673
 Vibration    21          0.890              1.173              0.576
 Vibration    22          0.935              1.078              0.489
 Vibration    23          0.960              1.028              0.446
 Vibration    24          0.975              1.000              0.424

                           ! Non-Optimized Parameters !
 Normal termination of Gaussian 16 at Sat Dec 12 10:23:11 2020.

 ----------------------------------------------------------------------
 # B3LYP/6-311++G(d,p) empiricaldispersion=gd3bj scf=xqc pop=npa geom=c
 heck
 ----------------------------------------------------------------------

 --------------------------------------
 CID_63302118_JID_9821_Energie_neutraal
 --------------------------------------
 Structure from the checkpoint file:  "JID_9821.chk"
 Charge =  0 Multiplicity = 1

 SCF Done:  E(RB3LYP) =  -1160.59846772     A.U. after   17 cycles
 Normal termination of Gaussian 16 at Sat Dec 12 10:29:46 2020.

 ----------------------------------------------------------------------
 # B3LYP/6-311++G(d,p) empiricaldispersion=gd3bj scf=xqc pop=npa geom=c
 heck
 ----------------------------------------------------------------------

 ------------------------------------
 CID_63302118_JID_9821_Energie_kation
 ------------------------------------
 Structure from the checkpoint file:  "JID_9821.chk"
 Charge =  1 Multiplicity = 2

 SCF Done:  E(UB3LYP) =  -1160.30603497     A.U. after   33 cycles
 SCF Done:  E(UB3LYP) =  -1160.30603507     a.u. after    3 cycles
 Normal termination of Gaussian 16 at Sat Dec 12 11:20:23 2020.
 Gaussian 16:  ES64L-G16RevA.03 25-Dec-2016

 ----------------------------------------------------------------------
 # B3LYP/6-311++G(d,p) empiricaldispersion=gd3bj scf=xqc pop=npa geom=c
 heck
 ----------------------------------------------------------------------

 -----------------------------------
 CID_63302118_JID_9821_Energie_anion
 -----------------------------------
 Structure from the checkpoint file:  "JID_9821.chk"
 Charge = -1 Multiplicity = 2

                         Standard orientation:
 ---------------------------------------------------------------------
 Center     Atomic      Atomic             Coordinates (Angstroms)
 Number     Number       Type             X           Y           Z
 ---------------------------------------------------------------------
      1          6           0       -3.076457    2.055511    0.352917
      2          7           0       -4.068030    1.035423    0.066709
      3          6           0       -3.857125   -0.207080   -0.457745
      4          6           0       -5.108455   -0.782872   -0.606420
      5          6           0       -6.012500    0.198461   -0.149098
      6          7           0       -5.380074    1.300383    0.256695
      7          6           0       -2.493130   -0.739342   -0.754989
      8          7           0       -1.720949   -0.916741    0.478304
      9          6           0       -0.354424   -1.042167    0.495422
     10          7           0        0.280053   -1.738469    1.357782
     11          6           0        1.710325   -1.498039    1.296180
     12          6           0        2.118290   -0.991533   -0.115968
     13         16           0        0.611168   -0.074103   -0.692419
     14          6           0        3.379177   -0.167745   -0.143915
     15          6           0        3.472949    1.051564    0.541656
     16          6           0        4.664212    1.772352    0.544155
     17          6           0        5.782094    1.286814   -0.139198
     18          6           0        5.697684    0.077381   -0.827142
     19          6           0        4.501600   -0.641903   -0.830518
     20          1           0       -3.548426    2.795028    0.999432
     21          1           0       -2.219776    1.603687    0.857541
     22          1           0       -2.738525    2.544974   -0.567934
     23          1           0       -5.324242   -1.771143   -0.986920
     24          1           0       -7.091738    0.150635   -0.091252
     25          1           0       -2.592971   -1.679491   -1.314841
     26          1           0       -1.938996   -0.047851   -1.397996
     27          1           0       -2.162745   -1.508862    1.174313
     28          1           0        2.264319   -2.414078    1.528301
     29          1           0        1.991070   -0.749689    2.051077
     30          1           0        2.230265   -1.847587   -0.787709
     31          1           0        2.601926    1.439738    1.061367
     32          1           0        4.720572    2.717114    1.077519
     33          1           0        6.710297    1.851045   -0.137356
     34          1           0        6.559773   -0.306929   -1.364938
     35          1           0        4.438073   -1.583529   -1.370353
 ---------------------------------------------------------------------

 SCF Done:  E(UB3LYP) =  -1160.58899438     A.U. after   33 cycles
 SCF Done:  E(UB3LYP) =  -1160.58899438     a.u. after    1 cycles

 The electronic state is 2-A.
 Alpha  occ. eigenvalues --  -88.74471 -14.29672 -14.24060 -14.23596 -14.18858
 Alpha  occ. eigenvalues --  -10.16300 -10.12802 -10.11897 -10.11863 -10.10499
 Alpha  occ. eigenvalues --  -10.10089 -10.09628 -10.07264 -10.07227 -10.07182
 Alpha  occ. eigenvalues --  -10.07073 -10.06765 -10.06301 -10.06151  -7.83135
 Alpha  occ. eigenvalues --   -5.79477  -5.79161  -5.78555  -0.95870  -0.87587
 Alpha  occ. eigenvalues --   -0.80942  -0.75593  -0.75106  -0.70940  -0.69241
 Alpha  occ. eigenvalues --   -0.64377  -0.63854  -0.62848  -0.60979  -0.59288
 Alpha  occ. eigenvalues --   -0.52769  -0.51279  -0.50445  -0.48669  -0.46793
 Alpha  occ. eigenvalues --   -0.46581  -0.42857  -0.41375  -0.39558  -0.38446
 Alpha  occ. eigenvalues --   -0.37684  -0.36957  -0.35619  -0.35481  -0.34820
 Alpha  occ. eigenvalues --   -0.33987  -0.33276  -0.32909  -0.32017  -0.31287
 Alpha  occ. eigenvalues --   -0.30320  -0.29622  -0.29349  -0.28253  -0.26990
 Alpha  occ. eigenvalues --   -0.25997  -0.24355  -0.24060  -0.23130  -0.20383
 Alpha  occ. eigenvalues --   -0.17193  -0.16293  -0.15931  -0.15619  -0.15261
 Alpha  occ. eigenvalues --   -0.14220  -0.12391   0.04503
 Alpha virt. eigenvalues --    0.06021   0.06690   0.07330   0.07705   0.08144
 Alpha virt. eigenvalues --    0.08422   0.08613   0.08776   0.09270   0.09814
 Alpha virt. eigenvalues --    0.10091   0.10337   0.10888   0.11096   0.11455

  Beta  occ. eigenvalues --  -88.74431 -14.29654 -14.24026 -14.23576 -14.18854
  Beta  occ. eigenvalues --  -10.16290 -10.12763 -10.11882 -10.11859 -10.10426
  Beta  occ. eigenvalues --  -10.10079 -10.09626 -10.07314 -10.07201 -10.07200
  Beta  occ. eigenvalues --  -10.06904 -10.06685 -10.06122 -10.06022  -7.83091
  Beta  occ. eigenvalues --   -5.79402  -5.79116  -5.78523  -0.95839  -0.87546
  Beta  occ. eigenvalues --   -0.80889  -0.75370  -0.75058  -0.70886  -0.69007
  Beta  occ. eigenvalues --   -0.64216  -0.63646  -0.62686  -0.60941  -0.59165
  Beta  occ. eigenvalues --   -0.52518  -0.51248  -0.50386  -0.48511  -0.46703
  Beta  occ. eigenvalues --   -0.46443  -0.42816  -0.41278  -0.39475  -0.38366
  Beta  occ. eigenvalues --   -0.37608  -0.36808  -0.35518  -0.35438  -0.34682
  Beta  occ. eigenvalues --   -0.33911  -0.33212  -0.32828  -0.31974  -0.31248
  Beta  occ. eigenvalues --   -0.30270  -0.29465  -0.29294  -0.28137  -0.26463
  Beta  occ. eigenvalues --   -0.25908  -0.24232  -0.23950  -0.22811  -0.20349
  Beta  occ. eigenvalues --   -0.17022  -0.16219  -0.15839  -0.15227  -0.14979
  Beta  occ. eigenvalues --   -0.13583  -0.12217
  Beta virt. eigenvalues --    0.06537   0.06862   0.07431   0.07826   0.07940
  Beta virt. eigenvalues --    0.08341   0.08611   0.08697   0.09089   0.09494
  Beta virt. eigenvalues --    0.09949   0.10154   0.10559   0.11109   0.11402

 Mulliken charges and spin densities:
               1          2
     1  C   -0.316225  -0.087739
     2  N    0.164270   0.147743
     3  C   -1.104888   1.250972
     4  C    0.334824  -0.035473
     5  C    0.254661  -0.494835
     6  N   -0.212650  -0.014011
     7  C    1.592363  -2.742238
     8  N   -0.051467   0.086244
     9  C   -0.531254  -0.184342
    10  N   -0.063892   0.012327
    11  C   -0.350629  -0.154814
    12  C   -0.502290   0.058483
    13  S    0.267260  -0.080090
    14  C    1.351405   0.083696
    15  C   -0.709598   0.128860
    16  C   -0.185118  -0.027088
    17  C   -0.286532   0.087260
    18  C   -0.386307   0.075893
    19  C   -0.187092   0.019081
    20  H    0.075487   0.091851
    21  H    0.146544   0.095796
    22  H    0.057576   0.112584
    23  H   -1.043090   1.225129
    24  H   -0.214086   0.366638
    25  H   -0.214889   0.422229
    26  H   -0.132943   0.297546
    27  H    0.176682   0.113208
    28  H    0.159102   0.011958
    29  H    0.130779   0.044034
    30  H    0.237643   0.026821
    31  H    0.086263   0.024549
    32  H    0.113745   0.032080
    33  H    0.110565  -0.007341
    34  H    0.118472   0.009905
    35  H    0.115311   0.003084
 Sum of Mulliken charges =  -1.00000   1.00000

 Dipole moment (field-independent basis, Debye):
    X=              4.9895    Y=              2.0184    Z=              0.7974  Tot=              5.4410
 Quadrupole moment (field-independent basis, Debye-Ang):
   XX=           -237.1782   YY=           -149.0925   ZZ=           -145.7063
   XY=            -12.7432   XZ=             -7.3567   YZ=              1.1234

 Summary of Natural Population Analysis:

                                       Natural Population
                Natural  -----------------------------------------------
    Atom  No    Charge         Core      Valence    Rydberg      Total
 -----------------------------------------------------------------------
      C    1   -0.17768      0.99964     2.17137    0.00667     3.17768
      N    2   -0.10453      0.99962     2.59213    0.01278     3.60453
      C    3    0.07662      0.99952     1.91054    0.01332     2.92338
      C    4   -0.15504      0.99950     2.14618    0.00936     3.15504
      C    5   -0.01762      0.99964     2.00289    0.01509     3.01762
      N    6   -0.15320      0.99974     2.64208    0.01139     3.65320
      C    7   -0.10261      0.99957     2.09199    0.01105     3.10261
      N    8   -0.32288      0.99964     2.81122    0.01202     3.82288
      C    9    0.16352      0.99956     1.81543    0.02149     2.83648
      N   10   -0.28477      0.99963     2.77211    0.01303     3.78477
      C   11   -0.08915      0.99960     2.07814    0.01142     3.08915
      C   12   -0.14934      0.99953     2.13870    0.01110     3.14934
      S   13    0.09636      4.99956     2.88666    0.01742     7.90364
      C   14   -0.00423      0.99948     1.99438    0.01037     3.00423
      C   15   -0.07799      0.99952     2.06935    0.00911     3.07799
      C   16   -0.11190      0.99958     2.10329    0.00904     3.11190
      C   17   -0.07910      0.99957     2.07026    0.00927     3.07910
      C   18   -0.09407      0.99958     2.08515    0.00935     3.09407
      C   19   -0.10274      0.99952     2.09515    0.00807     3.10274
      H   20    0.10691      0.00000     0.39184    0.00125     0.39309
      H   21    0.10974      0.00000     0.38899    0.00127     0.39026
      H   22    0.09637      0.00000     0.40229    0.00134     0.40363
      H   23    0.11243      0.00000     0.38530    0.00227     0.38757
      H   24    0.09655      0.00000     0.40251    0.00094     0.40345
      H   25    0.10152      0.00000     0.39698    0.00150     0.39848
      H   26    0.11237      0.00000     0.38603    0.00161     0.38763
      H   27    0.19356      0.00000     0.30265    0.00379     0.30644
      H   28    0.09580      0.00000     0.40287    0.00132     0.40420
      H   29    0.09336      0.00000     0.40518    0.00146     0.40664
      H   30    0.09721      0.00000     0.40068    0.00211     0.40279
      H   31    0.10115      0.00000     0.39760    0.00125     0.39885
      H   32    0.09425      0.00000     0.40458    0.00117     0.40575
      H   33    0.09164      0.00000     0.40740    0.00097     0.40836
      H   34    0.09293      0.00000     0.40605    0.00102     0.40707
      H   35    0.09458      0.00000     0.40412    0.00129     0.40542
 =======================================================================
   * Total *    0.00000     22.99199    48.76212    0.24589    72.00000

 Normal termination of Gaussian 16 at Sat Dec 12 11:37:19 2020.
