 Gaussian 16, Revision A.03,

 -----------------------------------------------------------
 # opt freq B3LYP/6-31G(d) empiricaldispersion=gd3bj scf=xqc
 -----------------------------------------------------------

 -------------------------------
 CID_131537439_JID_2471_neutraal
 -------------------------------
 Symbolic Z-matrix:
 Charge =  0 Multiplicity = 1

 SCF Done:  E(RB3LYP) =  -565.784942435     A.U. after   15 cycles
 SCF Done:  E(RB3LYP) =  -565.808642559     A.U. after   13 cycles
 SCF Done:  E(RB3LYP) =  -565.810899806     A.U. after   13 cycles
 SCF Done:  E(RB3LYP) =  -565.812145200     A.U. after   13 cycles
 SCF Done:  E(RB3LYP) =  -565.812430340     A.U. after   12 cycles
 SCF Done:  E(RB3LYP) =  -565.812604983     A.U. after   12 cycles
 SCF Done:  E(RB3LYP) =  -565.812623955     A.U. after   10 cycles
 SCF Done:  E(RB3LYP) =  -565.812628477     A.U. after   10 cycles
 SCF Done:  E(RB3LYP) =  -565.812629633     A.U. after    9 cycles
 SCF Done:  E(RB3LYP) =  -565.812629780     A.U. after    8 cycles
 Optimization completed.
    -- Stationary point found.
 Normal termination of Gaussian 16 at Sun Dec 13 19:55:30 2020.

 --------------------------------------------------------------------
 #N Geom=AllCheck Guess=TCheck SCRF=Check GenChk RB3LYP/6-31G(d) Freq
 --------------------------------------------------------------------

 Structure from the checkpoint file:  "JID_2471.chk"
 -------------------------------
 CID_131537439_JID_2471_neutraal
 -------------------------------
 Charge =  0 Multiplicity = 1

 SCF Done:  E(RB3LYP) =  -565.812629780     A.U. after    1 cycles

  Exact polarizability: 122.360  -3.340 106.936   3.788   1.639  58.781
 Approx polarizability: 168.081  -2.425 182.753   3.675   5.951  94.283

 ******    1 imaginary frequencies (negative Signs) ******

                      1                      2                      3
                      A                      A                      A
 Frequencies --    -11.1660                43.6924                67.9599
 Red. masses --      1.0236                 6.4332                 7.0939
 Frc consts  --      0.0001                 0.0072                 0.0193
 IR Inten    --      0.2739                 2.6676                 7.4950

                      4                      5                      6
                      A                      A                      A
 Frequencies --    165.1389               190.9061               209.5309
 Red. masses --      5.3764                 3.5518                 5.6105
 Frc consts  --      0.0864                 0.0763                 0.1451
 IR Inten    --      3.2179                 6.9941                 2.8144

                      7                      8                      9
                      A                      A                      A
 Frequencies --    215.9202               264.2018               297.1603
 Red. masses --      3.8423                 8.3729                 2.7483
 Frc consts  --      0.1055                 0.3443                 0.1430
 IR Inten    --      4.6872                 4.3906                 1.1660

                     10                     11                     12
                      A                      A                      A
 Frequencies --    365.5560               383.7140               410.4424
 Red. masses --      4.6599                 2.7544                 1.2081
 Frc consts  --      0.3669                 0.2389                 0.1199
 IR Inten    --      7.0431                 4.8527               192.9453

                     13                     14                     15
                      A                      A                      A
 Frequencies --    495.5426               512.6800               551.2018
 Red. masses --      1.3698                 2.9245                 6.2501
 Frc consts  --      0.1982                 0.4529                 1.1188
 IR Inten    --    133.6981                28.5886                 1.3688

                     16                     17                     18
                      A                      A                      A
 Frequencies --    563.1765               616.7108               627.1599
 Red. masses --      5.6871                 2.8200                 5.0070
 Frc consts  --      1.0627                 0.6319                 1.1603
 IR Inten    --     11.5034                 5.8620                 3.6807

                     19                     20                     21
                      A                      A                      A
 Frequencies --    658.5412               702.0253               762.6539
 Red. masses --      5.0567                11.2401                 1.6448
 Frc consts  --      1.2920                 3.2638                 0.5637
 IR Inten    --     14.3370                 2.4975                 0.2283

                     22                     23                     24
                      A                      A                      A
 Frequencies --    816.4986               914.7830               964.2170
 Red. masses --      3.7718                 5.7277                 3.4833
 Frc consts  --      1.4815                 2.8240                 1.9081
 IR Inten    --     56.0508                15.8814                18.7652

                     25                     26                     27
                      A                      A                      A
 Frequencies --   1001.8513              1014.1455              1045.4964
 Red. masses --      6.0690                 2.5575                 1.7599
 Frc consts  --      3.5890                 1.5498                 1.1334
 IR Inten    --     14.2036                 3.7600                 1.8516

                     28                     29                     30
                      A                      A                      A
 Frequencies --   1073.5191              1076.9177              1131.4467
 Red. masses --      2.3451                 1.6536                 1.9794
 Frc consts  --      1.5923                 1.1299                 1.4930
 IR Inten    --     19.5345                 5.7657                 7.2733

                     31                     32                     33
                      A                      A                      A
 Frequencies --   1147.8902              1233.1863              1307.1143
 Red. masses --      3.7466                 1.7735                 1.5249
 Frc consts  --      2.9086                 1.5891                 1.5350
 IR Inten    --    138.7909               195.9367                65.9533

                     34                     35                     36
                      A                      A                      A
 Frequencies --   1332.1738              1399.5926              1410.7854
 Red. masses --      2.7451                 1.4014                 1.5710
 Frc consts  --      2.8703                 1.6174                 1.8423
 IR Inten    --      1.6149                41.6632                26.0594

                     37                     38                     39
                      A                      A                      A
 Frequencies --   1457.0090              1469.9212              1487.5117
 Red. masses --      2.8185                 2.6045                 1.8923
 Frc consts  --      3.5253                 3.3156                 2.4670
 IR Inten    --     74.5029               108.0107                 4.6065

                     40                     41                     42
                      A                      A                      A
 Frequencies --   1507.5930              1508.9722              1524.8343
 Red. masses --      1.0788                 1.2068                 1.5447
 Frc consts  --      1.4447                 1.6191                 2.1161
 IR Inten    --      9.5169                57.1647                38.2584

                     43                     44                     45
                      A                      A                      A
 Frequencies --   1626.3230              1638.5923              1676.5267
 Red. masses --      5.0850                 4.7167                 1.5269
 Frc consts  --      7.9242                 7.4616                 2.5286
 IR Inten    --    388.7967               239.3247               387.3512

                     46                     47                     48
                      A                      A                      A
 Frequencies --   2372.9756              3052.4698              3060.7924
 Red. masses --     12.5899                 1.0670                 1.0422
 Frc consts  --     41.7696                 5.8577                 5.7528
 IR Inten    --      0.0218                16.0091                 9.1034

                     49                     50                     51
                      A                      A                      A
 Frequencies --   3125.4438              3133.6817              3172.2928
 Red. masses --      1.0937                 1.0965                 1.1037
 Frc consts  --      6.2946                 6.3443                 6.5443
 IR Inten    --     11.7872                 3.1515                 8.4808

                     52                     53                     54
                      A                      A                      A
 Frequencies --   3237.8700              3583.9786              3699.9227
 Red. masses --      1.0917                 1.0463                 1.1021
 Frc consts  --      6.7431                 7.9184                 8.8890
 IR Inten    --      4.9584                51.4009                29.5591

 - Thermochemistry -
 -------------------
 Temperature   298.150 Kelvin.  Pressure   1.00000 Atm.
 Atom     1 has atomic number  6 and mass  12.00000

 Molecular mass:   164.06981 amu.
 Principal axes and moments of inertia in atomic units:
                           1         2         3
     Eigenvalues --  1149.530122851.109783706.83346
           X            0.99978  -0.01089   0.01812
           Y            0.01101   0.99992  -0.00662
           Z           -0.01804   0.00682   0.99981
 This molecule is an asymmetric top.
 Rotational symmetry number  1.
 Warning -- assumption of classical behavior for rotation
           may cause significant error
 Rotational temperatures (Kelvin)      0.07535     0.03038     0.02337
 Rotational constants (GHZ):           1.56998     0.63300     0.48687
    1 imaginary frequencies ignored.
 Zero-point vibrational energy     402604.7 (Joules/Mol)
                                   96.22482 (Kcal/Mol)
 Warning -- explicit consideration of  16 degrees of freedom as
           vibrations may cause significant error
 Vibrational temperatures:     62.86    97.78   237.60   274.67   301.47
          (Kelvin)            310.66   380.13   427.55   525.95   552.08
                              590.53   712.98   737.63   793.06   810.29
                              887.31   902.34   947.49  1010.06  1097.29
                             1174.76  1316.17  1387.29  1441.44  1459.13
                             1504.24  1544.55  1549.44  1627.90  1651.56
                             1774.28  1880.65  1916.70  2013.70  2029.81
                             2096.31  2114.89  2140.20  2169.09  2171.07
                             2193.90  2339.92  2357.57  2412.15  3414.18
                             4391.82  4403.80  4496.82  4508.67  4564.22
                             4658.57  5156.55  5323.36

 Zero-point correction=                           0.153344 (Hartree/Particle)
 Thermal correction to Energy=                    0.163854
 Thermal correction to Enthalpy=                  0.164798
 Thermal correction to Gibbs Free Energy=         0.116589
 Sum of electronic and zero-point Energies=           -565.659286
 Sum of electronic and thermal Energies=              -565.648776
 Sum of electronic and thermal Enthalpies=            -565.647831
 Sum of electronic and thermal Free Energies=         -565.696041

                     E (Thermal)             CV                S
                      KCal/Mol        Cal/Mol-Kelvin    Cal/Mol-Kelvin
 Total                  102.820             39.314            101.466
 Electronic               0.000              0.000              0.000
 Translational            0.889              2.981             41.194
 Rotational               0.889              2.981             30.875
 Vibrational            101.043             33.353             29.397
 Vibration     1          0.595              1.980              5.084
 Vibration     2          0.598              1.969              4.212
 Vibration     3          0.624              1.885              2.490
 Vibration     4          0.634              1.852              2.219
 Vibration     5          0.642              1.826              2.048
 Vibration     6          0.645              1.817              1.993
 Vibration     7          0.671              1.739              1.634
 Vibration     8          0.691              1.679              1.433
 Vibration     9          0.739              1.543              1.098
 Vibration    10          0.753              1.505              1.024
 Vibration    11          0.775              1.448              0.925
 Vibration    12          0.851              1.260              0.669
 Vibration    13          0.868              1.222              0.627
 Vibration    14          0.907              1.137              0.542
 Vibration    15          0.919              1.111              0.518
 Vibration    16          0.976              0.997              0.422

                           ! Non-Optimized Parameters !
 Normal termination of Gaussian 16 at Sun Dec 13 19:59:06 2020.

 ----------------------------------------------------------------------
 # B3LYP/6-311++G(d,p) empiricaldispersion=gd3bj scf=xqc pop=npa geom=c
 heck
 ----------------------------------------------------------------------

 ---------------------------------------
 CID_131537439_JID_2471_Energie_neutraal
 ---------------------------------------
 Structure from the checkpoint file:  "JID_2471.chk"
 Charge =  0 Multiplicity = 1

 SCF Done:  E(RB3LYP) =  -565.975340589     A.U. after   15 cycles
 Normal termination of Gaussian 16 at Sun Dec 13 20:00:18 2020.

 ----------------------------------------------------------------------
 # B3LYP/6-311++G(d,p) empiricaldispersion=gd3bj scf=xqc pop=npa geom=c
 heck
 ----------------------------------------------------------------------

 -------------------------------------
 CID_131537439_JID_2471_Energie_kation
 -------------------------------------
 Structure from the checkpoint file:  "JID_2471.chk"
 Charge =  1 Multiplicity = 2

 SCF Done:  E(UB3LYP) =  -565.647246132     A.U. after   25 cycles
 Normal termination of Gaussian 16 at Sun Dec 13 20:02:57 2020.
 Gaussian 16:  ES64L-G16RevA.03 25-Dec-2016

 ----------------------------------------------------------------------
 # B3LYP/6-311++G(d,p) empiricaldispersion=gd3bj scf=xqc pop=npa geom=c
 heck
 ----------------------------------------------------------------------

 ------------------------------------
 CID_131537439_JID_2471_Energie_anion
 ------------------------------------
 Structure from the checkpoint file:  "JID_2471.chk"
 Charge = -1 Multiplicity = 2

                         Standard orientation:
 ---------------------------------------------------------------------
 Center     Atomic      Atomic             Coordinates (Angstroms)
 Number     Number       Type             X           Y           Z
 ---------------------------------------------------------------------
      1          6           0        3.248940   -1.467315    0.440992
      2          6           0        2.004830   -0.674079    0.151369
      3          7           0        2.145146    0.655953    0.073030
      4          6           0        1.029081    1.363822   -0.159624
      5          6           0       -0.229012    0.750344   -0.321619
      6          6           0       -0.230783   -0.633857   -0.214588
      7          7           0        0.863319   -1.358545    0.019932
      8          8           0       -1.349094   -1.410316   -0.340056
      9          6           0       -2.560479   -0.788299   -0.720963
     10          6           0       -3.163324    0.023583    0.353662
     11          7           0       -3.635172    0.674095    1.190012
     12          7           0        1.178331    2.719767   -0.269385
     13          1           0        4.090716   -1.081066   -0.140418
     14          1           0        3.513127   -1.370180    1.501311
     15          1           0        3.086246   -2.523305    0.219163
     16          1           0       -1.116678    1.346112   -0.488590
     17          1           0       -2.426208   -0.160178   -1.611337
     18          1           0       -3.242424   -1.603776   -0.974060
     19          1           0        2.060109    3.082645    0.066785
     20          1           0        0.370990    3.308188   -0.122916
 ---------------------------------------------------------------------

 SCF Done:  E(UB3LYP) =  -565.967142824     A.U. after   33 cycles
 SCF Done:  E(UB3LYP) =  -565.967142824     a.u. after    1 cycles

 The electronic state is 2-A.
 Alpha  occ. eigenvalues --  -19.08175 -14.22900 -14.22893 -14.20732 -14.20650
 Alpha  occ. eigenvalues --  -10.18296 -10.17811 -10.16362 -10.15361 -10.12424
 Alpha  occ. eigenvalues --  -10.08203 -10.07857  -1.00493  -0.89660  -0.83620
 Alpha  occ. eigenvalues --   -0.82146  -0.77194  -0.70070  -0.67090  -0.63520
 Alpha  occ. eigenvalues --   -0.54960  -0.53763  -0.47343  -0.46736  -0.43878
 Alpha  occ. eigenvalues --   -0.40560  -0.39284  -0.38071  -0.36446  -0.35899
 Alpha  occ. eigenvalues --   -0.32049  -0.31770  -0.30636  -0.29523  -0.28841
 Alpha  occ. eigenvalues --   -0.27595  -0.25396  -0.24168  -0.22934  -0.20961
 Alpha  occ. eigenvalues --   -0.17336  -0.16681  -0.14366   0.04256
 Alpha virt. eigenvalues --    0.06257   0.07063   0.07352   0.07945   0.08610
 Alpha virt. eigenvalues --    0.09038   0.10043   0.10833   0.11425   0.11685
 Alpha virt. eigenvalues --    0.12288   0.12780   0.14188   0.15279   0.15624

  Beta  occ. eigenvalues --  -19.08171 -14.22879 -14.22823 -14.20730 -14.20637
  Beta  occ. eigenvalues --  -10.18297 -10.17733 -10.16361 -10.15361 -10.12417
  Beta  occ. eigenvalues --  -10.08169 -10.07852  -1.00484  -0.89644  -0.83562
  Beta  occ. eigenvalues --   -0.82107  -0.77149  -0.70023  -0.66991  -0.63496
  Beta  occ. eigenvalues --   -0.54903  -0.53702  -0.47297  -0.46702  -0.43778
  Beta  occ. eigenvalues --   -0.40478  -0.39211  -0.37996  -0.36397  -0.35863
  Beta  occ. eigenvalues --   -0.32032  -0.31752  -0.30627  -0.29499  -0.28800
  Beta  occ. eigenvalues --   -0.27573  -0.25362  -0.24120  -0.22907  -0.20944
  Beta  occ. eigenvalues --   -0.17317  -0.16660  -0.14314
  Beta virt. eigenvalues --    0.06856   0.07143   0.07634   0.07987   0.08216
  Beta virt. eigenvalues --    0.08846   0.09998   0.10499   0.11077   0.11747
  Beta virt. eigenvalues --    0.12000   0.12398   0.13235   0.14840   0.15421

 Mulliken charges and spin densities:
               1          2
     1  C    0.101232  -0.535645
     2  C   -0.270780   0.097087
     3  N   -0.035624  -0.082226
     4  C   -0.349487   0.101005
     5  C    1.852252  -1.150457
     6  C   -0.678766   0.047987
     7  N   -0.246234   0.082790
     8  O   -0.042632   0.050293
     9  C    1.136034  -1.412588
    10  C    0.453915  -0.193634
    11  N   -0.339013   0.011777
    12  N   -0.305838   0.028785
    13  H    0.080290   0.070770
    14  H    0.088684   0.073868
    15  H    0.117090   0.029221
    16  H   -0.348476   0.556809
    17  H   -0.695215   0.925077
    18  H   -0.736389   0.967439
    19  H   -0.256371   0.541094
    20  H   -0.524672   0.790548
 Sum of Mulliken charges =  -1.00000   1.00000

 Dipole moment (field-independent basis, Debye):
    X=              5.1542    Y=             -4.7839    Z=              1.6192  Tot=              7.2161
 Quadrupole moment (field-independent basis, Debye-Ang):
   XX=           -125.2395   YY=           -122.4256   ZZ=            -98.4411
   XY=             -4.7961   XZ=             -3.0113   YZ=             -1.1368

 Summary of Natural Population Analysis:

                                       Natural Population
                Natural  -----------------------------------------------
    Atom  No    Charge         Core      Valence    Rydberg      Total
 -----------------------------------------------------------------------
      C    1   -0.30165      0.99963     2.29670    0.00532     3.30165
      C    2    0.23003      0.99963     1.75391    0.01642     2.76997
      N    3   -0.28722      0.99964     2.77680    0.01079     3.78722
      C    4    0.22139      0.99956     1.76370    0.01534     2.77861
      C    5   -0.20088      0.99946     2.19240    0.00902     3.20088
      C    6    0.28255      0.99942     1.70071    0.01732     2.71745
      N    7   -0.27972      0.99962     2.76961    0.01048     3.77972
      O    8   -0.25909      0.99986     3.24909    0.01014     4.25909
      C    9   -0.06637      0.99948     2.05222    0.01467     3.06637
      C   10    0.14266      0.99965     1.84250    0.01519     2.85734
      N   11   -0.16800      0.99979     2.65639    0.01181     3.66800
      N   12   -0.38023      0.99970     2.87074    0.00978     3.88023
      H   13    0.10642      0.00000     0.39252    0.00107     0.39358
      H   14    0.10649      0.00000     0.39239    0.00112     0.39351
      H   15    0.10654      0.00000     0.39248    0.00098     0.39346
      H   16    0.11725      0.00000     0.37965    0.00310     0.38275
      H   17    0.11571      0.00000     0.37719    0.00710     0.38429
      H   18    0.11891      0.00000     0.37831    0.00278     0.38109
      H   19    0.19625      0.00000     0.29962    0.00413     0.30375
      H   20    0.19897      0.00000     0.28888    0.01215     0.30103
 =======================================================================
   * Total *   -0.00000     11.99543    30.82584    0.17873    43.00000

 Normal termination of Gaussian 16 at Sun Dec 13 20:06:26 2020.
