 Gaussian 16, Revision A.03,

 -----------------------------------------------------------
 # opt freq B3LYP/6-31G(d) empiricaldispersion=gd3bj scf=xqc
 -----------------------------------------------------------

 -------------------------------
 CID_134166266_JID_2770_neutraal
 -------------------------------
 Symbolic Z-matrix:
 Charge =  0 Multiplicity = 1

 SCF Done:  E(RB3LYP) =  -517.437687143     A.U. after   14 cycles
 SCF Done:  E(RB3LYP) =  -517.444441684     A.U. after   12 cycles
 SCF Done:  E(RB3LYP) =  -517.445149446     A.U. after   11 cycles
 SCF Done:  E(RB3LYP) =  -517.445323227     A.U. after   10 cycles
 SCF Done:  E(RB3LYP) =  -517.445369881     A.U. after   10 cycles
 SCF Done:  E(RB3LYP) =  -517.445377967     A.U. after    9 cycles
 SCF Done:  E(RB3LYP) =  -517.445379831     A.U. after    8 cycles
 SCF Done:  E(RB3LYP) =  -517.445380266     A.U. after    8 cycles
 SCF Done:  E(RB3LYP) =  -517.445380466     A.U. after    7 cycles
 SCF Done:  E(RB3LYP) =  -517.445380652     A.U. after    8 cycles
 SCF Done:  E(RB3LYP) =  -517.445380846     A.U. after    8 cycles
 SCF Done:  E(RB3LYP) =  -517.445381034     A.U. after    8 cycles
 SCF Done:  E(RB3LYP) =  -517.445381218     A.U. after    8 cycles
 SCF Done:  E(RB3LYP) =  -517.445381454     A.U. after    9 cycles
 SCF Done:  E(RB3LYP) =  -517.445381621     A.U. after    8 cycles
 SCF Done:  E(RB3LYP) =  -517.445381667     A.U. after    8 cycles
 Optimization completed.
    -- Stationary point found.

 1\1\GINC-NODE359\FOpt\RB3LYP\6-31G(d)\C9H17N3\VSC10255\09-Dec-2020\0\\
 # opt freq B3LYP/6-31G(d) empiricaldispersion=gd3bj scf=xqc\\CID_13416
 6266_JID_2770_neutraal\\0,1\C,0.9847604278,-0.1402612218,0.0021527032\
 C,0.7005046102,-0.513740455,1.4682455498\C,1.2484323733,0.5472993321,2
 .4287493455\N,-0.711346265,-0.8049991543,1.7463665159\C,-1.125327488,-
 2.1493970548,1.3124021684\C,-2.592620508,-2.2022266299,0.8712689953\C,
 -3.5271760124,-1.4596960297,1.8303631824\C,-2.9659370474,-0.0549720964
 ,2.2001073866\C,-1.6693432361,0.2500303384,1.4361888259\C,-4.150634206

 Normal termination of Gaussian 16 at Wed Dec  9 18:02:40 2020.

 --------------------------------------------------------------------
 #N Geom=AllCheck Guess=TCheck SCRF=Check GenChk RB3LYP/6-31G(d) Freq
 --------------------------------------------------------------------

 Structure from the checkpoint file:  "JID_2770.chk"
 -------------------------------
 CID_134166266_JID_2770_neutraal
 -------------------------------
 Charge =  0 Multiplicity = 1

 SCF Done:  E(RB3LYP) =  -517.445381667     A.U. after    1 cycles

  Exact polarizability: 126.545  -4.750 110.719  -2.164  -2.172  87.114
 Approx polarizability: 162.947 -12.380 167.569  -8.408  -2.192 134.356

                      1                      2                      3
                      A                      A                      A
 Frequencies --     17.1092                80.9650               112.5998
 Red. masses --      3.2581                 2.5908                 2.9440
 Frc consts  --      0.0006                 0.0100                 0.0220
 IR Inten    --      1.5518                 0.2639                 0.8529

                      4                      5                      6
                      A                      A                      A
 Frequencies --    167.1815               217.4947               227.6452
 Red. masses --      3.1703                 2.2802                 1.2058
 Frc consts  --      0.0522                 0.0636                 0.0368
 IR Inten    --      1.0482                 1.0504                 0.6787

                      7                      8                      9
                      A                      A                      A
 Frequencies --    250.4022               260.2925               292.4307
 Red. masses --      2.0904                 1.1295                 3.4920
 Frc consts  --      0.0772                 0.0451                 0.1759
 IR Inten    --      3.4995                 0.3018                 1.7000

                     10                     11                     12
                      A                      A                      A
 Frequencies --    345.5857               373.4803               420.2543
 Red. masses --      3.1711                 2.4426                 2.5761
 Frc consts  --      0.2231                 0.2007                 0.2681
 IR Inten    --      1.3397                 2.3346                 1.6241

                     13                     14                     15
                      A                      A                      A
 Frequencies --    467.5408               492.2505               522.1328
 Red. masses --      3.0280                 3.7730                 2.7400
 Frc consts  --      0.3900                 0.5387                 0.4401
 IR Inten    --      4.7193                 0.6992                13.7606

                     16                     17                     18
                      A                      A                      A
 Frequencies --    547.3663               589.7122               642.7552
 Red. masses --      2.3402                 1.9077                 2.8247
 Frc consts  --      0.4131                 0.3909                 0.6876
 IR Inten    --     21.7126                45.4829                50.4252

                     19                     20                     21
                      A                      A                      A
 Frequencies --    755.4527               791.6290               802.1685
 Red. masses --      2.5421                 1.8490                 2.5562
 Frc consts  --      0.8548                 0.6827                 0.9691
 IR Inten    --     24.9003                31.8408                 2.7407

                     22                     23                     24
                      A                      A                      A
 Frequencies --    820.1617               869.2768               878.7457
 Red. masses --      2.4349                 2.5646                 2.8084
 Frc consts  --      0.9650                 1.1418                 1.2777
 IR Inten    --     35.2434                 3.4747                 6.9283

                     25                     26                     27
                      A                      A                      A
 Frequencies --    910.1526               934.0980               951.4658
 Red. masses --      2.0138                 1.2698                 1.4209
 Frc consts  --      0.9829                 0.6528                 0.7579
 IR Inten    --      6.2025                 0.5886                 1.3007

                     28                     29                     30
                      A                      A                      A
 Frequencies --    974.5430              1004.1251              1005.8006
 Red. masses --      2.0511                 1.8831                 2.7576
 Frc consts  --      1.1477                 1.1186                 1.6436
 IR Inten    --      5.8342                 0.9370                10.5496

                     31                     32                     33
                      A                      A                      A
 Frequencies --   1032.5979              1044.6371              1068.6231
 Red. masses --      2.5989                 1.8425                 2.4328
 Frc consts  --      1.6327                 1.1847                 1.6368
 IR Inten    --     15.9176                 0.5114                 2.9021

                     34                     35                     36
                      A                      A                      A
 Frequencies --   1094.0804              1133.4839              1137.4582
 Red. masses --      1.8859                 1.9859                 2.8774
 Frc consts  --      1.3301                 1.5033                 2.1934
 IR Inten    --      7.4896                20.1136                 2.7654

                     37                     38                     39
                      A                      A                      A
 Frequencies --   1149.0256              1160.1185              1206.2385
 Red. masses --      2.2801                 2.4009                 1.6412
 Frc consts  --      1.7736                 1.9039                 1.4070
 IR Inten    --      8.1038                10.4967                 6.6559

                     40                     41                     42
                      A                      A                      A
 Frequencies --   1228.8563              1260.9932              1265.9345
 Red. masses --      2.1173                 1.1925                 1.6655
 Frc consts  --      1.8838                 1.1172                 1.5726
 IR Inten    --     49.4409                 0.2396                18.9093

                     43                     44                     45
                      A                      A                      A
 Frequencies --   1288.2380              1294.5900              1310.3674
 Red. masses --      1.7044                 1.3086                 1.5239
 Frc consts  --      1.6666                 1.2921                 1.5417
 IR Inten    --     18.4339                 5.2304                 9.2393

                     46                     47                     48
                      A                      A                      A
 Frequencies --   1350.5942              1353.4168              1368.5470
 Red. masses --      1.3506                 1.3257                 1.3338
 Frc consts  --      1.4516                 1.4307                 1.4718
 IR Inten    --      3.5397                 2.4718                 4.5625

                     49                     50                     51
                      A                      A                      A
 Frequencies --   1373.0431              1391.2634              1408.3851
 Red. masses --      1.3610                 1.2929                 1.4676
 Frc consts  --      1.5117                 1.4745                 1.7152
 IR Inten    --      2.5664                17.7651                11.6898

                     52                     53                     54
                      A                      A                      A
 Frequencies --   1417.7369              1423.4975              1441.1688
 Red. masses --      1.4087                 1.2624                 1.2814
 Frc consts  --      1.6683                 1.5072                 1.5681
 IR Inten    --     17.8013                11.3842                15.1227

                     55                     56                     57
                      A                      A                      A
 Frequencies --   1444.7269              1452.6383              1514.1374
 Red. masses --      1.3102                 1.3717                 1.0460
 Frc consts  --      1.6112                 1.7054                 1.4129
 IR Inten    --      9.8341                 6.7701                 1.3987

                     58                     59                     60
                      A                      A                      A
 Frequencies --   1519.3829              1525.0483              1531.1821
 Red. masses --      1.0788                 1.0673                 1.0466
 Frc consts  --      1.4673                 1.4626                 1.4457
 IR Inten    --      2.1166                 0.9683                 7.6134

                     61                     62                     63
                      A                      A                      A
 Frequencies --   1538.4317              1550.8885              1560.8012
 Red. masses --      1.0615                 1.0740                 1.0860
 Frc consts  --      1.4802                 1.5221                 1.5588
 IR Inten    --      1.7996                 0.7188                 4.4891

                     64                     65                     66
                      A                      A                      A
 Frequencies --   1683.7654              2955.5545              2985.8545
 Red. masses --      7.1187                 1.0734                 1.0632
 Frc consts  --     11.8910                 5.5243                 5.5848
 IR Inten    --     11.9513                52.7147                52.0044

                     67                     68                     69
                      A                      A                      A
 Frequencies --   3008.8098              3025.4567              3034.8893
 Red. masses --      1.0995                 1.0866                 1.0849
 Frc consts  --      5.8648                 5.8600                 5.8875
 IR Inten    --     46.6909                25.7746                24.5856

                     70                     71                     72
                      A                      A                      A
 Frequencies --   3046.8711              3053.0903              3056.8068
 Red. masses --      1.0351                 1.0377                 1.0830
 Frc consts  --      5.6616                 5.6991                 5.9621
 IR Inten    --     21.1593                15.7067                34.4957

                     73                     74                     75
                      A                      A                      A
 Frequencies --   3067.0320              3102.6339              3107.1434
 Red. masses --      1.0619                 1.0906                 1.1032
 Frc consts  --      5.8853                 6.1854                 6.2752
 IR Inten    --     30.7348                34.0638                34.2450

                     76                     77                     78
                      A                      A                      A
 Frequencies --   3112.1708              3115.9593              3119.4821
 Red. masses --      1.1002                 1.1020                 1.1000
 Frc consts  --      6.2783                 6.3040                 6.3066
 IR Inten    --      2.1966                36.8868                78.3548

                     79                     80                     81
                      A                      A                      A
 Frequencies --   3133.6788              3215.4118              3555.0967
 Red. masses --      1.1028                 1.0931                 1.0770
 Frc consts  --      6.3808                 6.6588                 8.0201
 IR Inten    --     27.9825                12.7356                 3.6350

 - Thermochemistry -
 -------------------
 Temperature   298.150 Kelvin.  Pressure   1.00000 Atm.
 Atom     1 has atomic number  6 and mass  12.00000

 Molecular mass:   167.14225 amu.
 Principal axes and moments of inertia in atomic units:
                           1         2         3
     Eigenvalues --   915.528733135.757433558.48983
           X            0.99983  -0.01526   0.00991
           Y            0.01515   0.99982   0.01129
           Z           -0.01008  -0.01114   0.99989
 This molecule is an asymmetric top.
 Rotational symmetry number  1.
 Warning -- assumption of classical behavior for rotation
           may cause significant error
 Rotational temperatures (Kelvin)      0.09461     0.02762     0.02434
 Rotational constants (GHZ):           1.97126     0.57554     0.50716
 Zero-point vibrational energy     687521.7 (Joules/Mol)
                                  164.32164 (Kcal/Mol)
 Warning -- explicit consideration of  17 degrees of freedom as
           vibrations may cause significant error
 Vibrational temperatures:     24.62   116.49   162.01   240.54   312.93
          (Kelvin)            327.53   360.27   374.50   420.74   497.22
                              537.35   604.65   672.69   708.24   751.23
                              787.54   848.46   924.78  1086.93  1138.98
                             1154.14  1180.03  1250.70  1264.32  1309.51
                             1343.96  1368.95  1402.15  1444.71  1447.12
                             1485.68  1503.00  1537.51  1574.14  1630.83
                             1636.55  1653.19  1669.15  1735.51  1768.05
                             1814.29  1821.40  1853.49  1862.63  1885.33
                             1943.20  1947.26  1969.03  1975.50  2001.72
                             2026.35  2039.81  2048.10  2073.52  2078.64
                             2090.02  2178.51  2186.05  2194.20  2203.03
                             2213.46  2231.38  2245.64  2422.56  4252.38
                             4295.98  4329.01  4352.96  4366.53  4383.77
                             4392.72  4398.06  4412.77  4464.00  4470.49
                             4477.72  4483.17  4488.24  4508.66  4626.26
                             5114.99

 Zero-point correction=                           0.261863 (Hartree/Particle)
 Thermal correction to Energy=                    0.273419
 Thermal correction to Enthalpy=                  0.274363
 Thermal correction to Gibbs Free Energy=         0.223727
 Sum of electronic and zero-point Energies=           -517.183518
 Sum of electronic and thermal Energies=              -517.171963
 Sum of electronic and thermal Enthalpies=            -517.171019
 Sum of electronic and thermal Free Energies=         -517.221655

                     E (Thermal)             CV                S
                      KCal/Mol        Cal/Mol-Kelvin    Cal/Mol-Kelvin
 Total                  171.573             45.344            106.573
 Electronic               0.000              0.000              0.000
 Translational            0.889              2.981             41.249
 Rotational               0.889              2.981             30.703
 Vibrational            169.795             39.383             34.621
 Vibration     1          0.593              1.986              6.944
 Vibration     2          0.600              1.962              3.867
 Vibration     3          0.607              1.939              3.224
 Vibration     4          0.624              1.883              2.467
 Vibration     5          0.646              1.814              1.980
 Vibration     6          0.651              1.799              1.897
 Vibration     7          0.663              1.762              1.728
 Vibration     8          0.668              1.745              1.660
 Vibration     9          0.688              1.688              1.460
 Vibration    10          0.724              1.584              1.186
 Vibration    11          0.745              1.527              1.065
 Vibration    12          0.783              1.426              0.891
 Vibration    13          0.825              1.322              0.744
 Vibration    14          0.848              1.267              0.678
 Vibration    15          0.877              1.201              0.605
 Vibration    16          0.903              1.145              0.550
 Vibration    17          0.947              1.054              0.468

                           ! Non-Optimized Parameters !

 1\1\GINC-NODE359\Freq\RB3LYP\6-31G(d)\C9H17N3\VSC10255\09-Dec-2020\0\\
 #N Geom=AllCheck Guess=TCheck SCRF=Check GenChk RB3LYP/6-31G(d) Freq\\
 CID_134166266_JID_2770_neutraal\\0,1\C,0.9847604278,-0.1402612218,0.00
 21527032\C,0.7005046102,-0.513740455,1.4682455498\C,1.2484323733,0.547
 2993321,2.4287493455\N,-0.711346265,-0.8049991543,1.7463665159\C,-1.12
 5327488,-2.1493970548,1.3124021684\C,-2.592620508,-2.2022266299,0.8712
 689953\C,-3.5271760124,-1.4596960297,1.8303631824\C,-2.9659370474,-0.0
 549720964,2.2001073866\C,-1.6693432361,0.2500303384,1.4361888259\C,-4.

 Normal termination of Gaussian 16 at Wed Dec  9 18:09:50 2020.

 ----------------------------------------------------------------------
 # B3LYP/6-311++G(d,p) empiricaldispersion=gd3bj scf=xqc pop=npa geom=c
 heck
 ----------------------------------------------------------------------

 ---------------------------------------
 CID_134166266_JID_2770_Energie_neutraal
 ---------------------------------------
 Structure from the checkpoint file:  "JID_2770.chk"
 Charge =  0 Multiplicity = 1

 SCF Done:  E(RB3LYP) =  -517.588707457     A.U. after   14 cycles
 Normal termination of Gaussian 16 at Wed Dec  9 18:12:45 2020.

 ----------------------------------------------------------------------
 # B3LYP/6-311++G(d,p) empiricaldispersion=gd3bj scf=xqc pop=npa geom=c
 heck
 ----------------------------------------------------------------------

 -------------------------------------
 CID_134166266_JID_2770_Energie_kation
 -------------------------------------
 Structure from the checkpoint file:  "JID_2770.chk"
 Charge =  1 Multiplicity = 2

 SCF Done:  E(UB3LYP) =  -517.312594372     A.U. after   22 cycles
 Normal termination of Gaussian 16 at Wed Dec  9 18:20:55 2020.
 Gaussian 16:  ES64L-G16RevA.03 25-Dec-2016

 ------------------------------------
 CID_134166266_JID_2770_Energie_anion
 ------------------------------------
 Structure from the checkpoint file:  "JID_2770.chk"
 Charge = -1 Multiplicity = 2

                         Standard orientation:
 ---------------------------------------------------------------------
 Center     Atomic      Atomic             Coordinates (Angstroms)
 Number     Number       Type             X           Y           Z
 ---------------------------------------------------------------------
      1          6           0        2.916720    0.218379    1.351807
      2          6           0        2.556335    0.092642   -0.139511
      3          6           0        3.142342   -1.186295   -0.747388
      4          7           0        1.118895    0.203514   -0.416961
      5          6           0        0.628482    1.591480   -0.404442
      6          6           0       -0.822657    1.701135    0.077753
      7          6           0       -1.736631    0.643486   -0.547256
      8          6           0       -1.092994   -0.773263   -0.488065
      9          6           0        0.247447   -0.749702    0.260545
     10          6           0       -2.202139   -1.560028    0.167367
     11          7           0       -3.228247   -0.870305    0.504476
     12          7           0       -2.976346    0.480855    0.258686
     13          1           0        2.531369   -0.635310    1.921138
     14          1           0        2.498363    1.131562    1.789878
     15          1           0        4.003397    0.247511    1.490056
     16          1           0        3.014556    0.937789   -0.670364
     17          1           0        2.793531   -2.084315   -0.224752
     18          1           0        2.857682   -1.270256   -1.800589
     19          1           0        4.235650   -1.175343   -0.677059
     20          1           0        1.246444    2.227400    0.249771
     21          1           0        0.723113    2.007922   -1.418911
     22          1           0       -0.864926    1.567873    1.163559
     23          1           0       -1.200361    2.709506   -0.126211
     24          1           0       -1.975673    0.911224   -1.585099
     25          1           0       -0.881220   -1.153140   -1.494725
     26          1           0        0.704810   -1.741598    0.208055
     27          1           0        0.082859   -0.534767    1.331607
     28          1           0       -2.181827   -2.628619    0.357639
     29          1           0       -3.809302    0.917116   -0.122277
 ---------------------------------------------------------------------

 SCF Done:  E(UB3LYP) =  -517.575314588     A.U. after   32 cycles

 The electronic state is 2-A.
 Alpha  occ. eigenvalues --  -14.23788 -14.23222 -14.19408 -10.10214 -10.09713
 Alpha  occ. eigenvalues --  -10.09483 -10.09169 -10.08802 -10.07990 -10.06448
 Alpha  occ. eigenvalues --  -10.05557 -10.05327  -0.90552  -0.82269  -0.71856
 Alpha  occ. eigenvalues --   -0.70036  -0.65846  -0.64405  -0.58446  -0.55622
 Alpha  occ. eigenvalues --   -0.52939  -0.48427  -0.47074  -0.43455  -0.42542
 Alpha  occ. eigenvalues --   -0.40016  -0.36238  -0.35475  -0.35285  -0.33317
 Alpha  occ. eigenvalues --   -0.33011  -0.31766  -0.30265  -0.29120  -0.28431
 Alpha  occ. eigenvalues --   -0.26991  -0.26901  -0.25784  -0.24648  -0.24116
 Alpha  occ. eigenvalues --   -0.23703  -0.23104  -0.21544  -0.18261  -0.11960
 Alpha  occ. eigenvalues --   -0.10247   0.04402
 Alpha virt. eigenvalues --    0.06471   0.07312   0.08013   0.08577   0.09102
 Alpha virt. eigenvalues --    0.09398   0.09781   0.10242   0.10909   0.11501
 Alpha virt. eigenvalues --    0.12042   0.12631   0.13084   0.13623   0.14761

  Beta  occ. eigenvalues --  -14.23770 -14.23206 -14.19408 -10.10196 -10.09704
  Beta  occ. eigenvalues --  -10.09471 -10.09144 -10.08783 -10.07983 -10.06429
  Beta  occ. eigenvalues --  -10.05527 -10.05293  -0.90515  -0.82250  -0.71819
  Beta  occ. eigenvalues --   -0.70002  -0.65808  -0.64365  -0.58384  -0.55571
  Beta  occ. eigenvalues --   -0.52892  -0.48377  -0.47027  -0.43399  -0.42480
  Beta  occ. eigenvalues --   -0.39980  -0.36198  -0.35442  -0.35248  -0.33274
  Beta  occ. eigenvalues --   -0.32977  -0.31731  -0.30227  -0.29081  -0.28390
  Beta  occ. eigenvalues --   -0.26949  -0.26861  -0.25737  -0.24604  -0.24075
  Beta  occ. eigenvalues --   -0.23660  -0.23069  -0.21507  -0.18230  -0.11922
  Beta  occ. eigenvalues --   -0.10229
  Beta virt. eigenvalues --    0.06664   0.07537   0.08041   0.08456   0.09078
  Beta virt. eigenvalues --    0.09415   0.09982   0.10215   0.10770   0.11325
  Beta virt. eigenvalues --    0.11926   0.12594   0.12863   0.13479   0.13958

 Mulliken charges and spin densities:
               1          2
     1  C    0.890231  -1.405198
     2  C   -2.196672   2.146229
     3  C    1.369013  -1.844074
     4  N    0.199416   0.103818
     5  C    0.385763  -0.793342
     6  C    0.074547  -0.030489
     7  C    0.318686  -1.471535
     8  C    1.360984  -0.491307
     9  C   -0.726219  -0.342708
    10  C   -0.039109  -0.399907
    11  N   -0.140353   0.083019
    12  N   -0.143540   0.196387
    13  H   -0.097485   0.245495
    14  H    0.107465   0.013051
    15  H   -0.523455   0.682163
    16  H   -0.354420   0.531550
    17  H   -0.313141   0.443535
    18  H   -0.088428   0.236405
    19  H   -0.304803   0.450197
    20  H   -0.071384   0.209044
    21  H   -0.126947   0.290170
    22  H    0.195849  -0.021602
    23  H   -0.515086   0.710053
    24  H   -0.428440   0.649343
    25  H    0.028207   0.187929
    26  H    0.352974  -0.186155
    27  H   -0.047277   0.196278
    28  H   -0.222083   0.399430
    29  H    0.055707   0.212219
 Sum of Mulliken charges =  -1.00000   1.00000

 Dipole moment (field-independent basis, Debye):
    X=             -1.8460    Y=             -0.9802    Z=              1.2318  Tot=              2.4261
 Quadrupole moment (field-independent basis, Debye-Ang):
   XX=           -151.1747   YY=           -115.4748   ZZ=           -109.9348
   XY=              3.8952   XZ=             -0.9681   YZ=              3.8564

 Summary of Natural Population Analysis:

                                       Natural Population
                Natural  -----------------------------------------------
    Atom  No    Charge         Core      Valence    Rydberg      Total
 -----------------------------------------------------------------------
      C    1   -0.29686      0.99964     2.29166    0.00556     3.29686
      C    2   -0.00128      0.99960     1.98970    0.01199     3.00128
      C    3   -0.28728      0.99964     2.28178    0.00586     3.28728
      N    4   -0.29145      0.99970     2.77768    0.01407     3.79145
      C    5   -0.07697      0.99960     2.06660    0.01076     3.07697
      C    6   -0.20077      0.99961     2.19048    0.01068     3.20077
      C    7   -0.01198      0.99958     2.00041    0.01200     3.01198
      C    8   -0.14268      0.99958     2.13158    0.01151     3.14268
      C    9   -0.08389      0.99958     2.07296    0.01135     3.08389
      C   10    0.02109      0.99962     1.96367    0.01562     2.97891
      N   11   -0.12720      0.99969     2.61422    0.01328     3.62720
      N   12   -0.24282      0.99972     2.72819    0.01490     3.74282
      H   13    0.09688      0.00000     0.40216    0.00096     0.40312
      H   14    0.09928      0.00000     0.39975    0.00098     0.40072
      H   15    0.10162      0.00000     0.39722    0.00116     0.39838
      H   16    0.09312      0.00000     0.40492    0.00196     0.40688
      H   17    0.09523      0.00000     0.40346    0.00130     0.40477
      H   18    0.10351      0.00000     0.39493    0.00157     0.39649
      H   19    0.10015      0.00000     0.39869    0.00116     0.39985
      H   20    0.08794      0.00000     0.41061    0.00145     0.41206
      H   21    0.09175      0.00000     0.40645    0.00180     0.40825
      H   22    0.09982      0.00000     0.39806    0.00212     0.40018
      H   23    0.10611      0.00000     0.39221    0.00168     0.39389
      H   24    0.09743      0.00000     0.39981    0.00276     0.40257
      H   25    0.11065      0.00000     0.38734    0.00202     0.38935
      H   26    0.10181      0.00000     0.39658    0.00161     0.39819
      H   27    0.08230      0.00000     0.41606    0.00164     0.41770
      H   28    0.09335      0.00000     0.40546    0.00119     0.40665
      H   29    0.18111      0.00000     0.31664    0.00225     0.31889
 =======================================================================
   * Total *    0.00000     11.99557    33.83925    0.16518    46.00000

 Normal termination of Gaussian 16 at Wed Dec  9 18:30:15 2020.
