 Gaussian 16, Revision A.03,

 -----------------------------------------------------------
 # opt freq B3LYP/6-31G(d) empiricaldispersion=gd3bj scf=xqc
 -----------------------------------------------------------

 ------------------------------
 CID_77380176_JID_2736_neutraal
 ------------------------------
 Symbolic Z-matrix:
 Charge =  0 Multiplicity = 1

 SCF Done:  E(RB3LYP) =  -985.409631390     A.U. after   16 cycles
 SCF Done:  E(RB3LYP) =  -985.420151505     A.U. after   14 cycles
 SCF Done:  E(RB3LYP) =  -985.421763113     A.U. after   13 cycles
 SCF Done:  E(RB3LYP) =  -985.421663828     A.U. after   13 cycles
 SCF Done:  E(RB3LYP) =  -985.422177432     A.U. after   13 cycles
 SCF Done:  E(RB3LYP) =  -985.422272287     A.U. after   12 cycles
 SCF Done:  E(RB3LYP) =  -985.422309359     A.U. after   10 cycles
 SCF Done:  E(RB3LYP) =  -985.422318992     A.U. after   10 cycles
 SCF Done:  E(RB3LYP) =  -985.422319858     A.U. after    8 cycles
 SCF Done:  E(RB3LYP) =  -985.422320272     A.U. after    8 cycles
 Optimization completed.
    -- Stationary point found.
 Normal termination of Gaussian 16 at Wed Dec  9 17:51:18 2020.

 --------------------------------------------------------------------
 #N Geom=AllCheck Guess=TCheck SCRF=Check GenChk RB3LYP/6-31G(d) Freq
 --------------------------------------------------------------------

 Structure from the checkpoint file:  "JID_2736.chk"
 ------------------------------
 CID_77380176_JID_2736_neutraal
 ------------------------------
 Charge =  0 Multiplicity = 1

 SCF Done:  E(RB3LYP) =  -985.422320272     A.U. after    1 cycles

  Exact polarizability: 116.956  -9.400 102.667   0.892   5.073  58.750
 Approx polarizability: 188.227 -41.636 171.022  -0.200  12.249 103.828

                      1                      2                      3
                      A                      A                      A
 Frequencies --     52.3638                69.3809                96.5757
 Red. masses --     10.6787                 6.6902                 8.9977
 Frc consts  --      0.0173                 0.0190                 0.0494
 IR Inten    --      4.0331                 7.2326                 1.8426

                      4                      5                      6
                      A                      A                      A
 Frequencies --    123.2020               156.8140               246.8411
 Red. masses --      8.2916                 7.2303                 5.1415
 Frc consts  --      0.0742                 0.1048                 0.1846
 IR Inten    --      5.7946                 4.7631                 3.6097

                      7                      8                      9
                      A                      A                      A
 Frequencies --    249.6595               333.0278               367.3351
 Red. masses --      5.2557                12.2605                 7.0007
 Frc consts  --      0.1930                 0.8012                 0.5566
 IR Inten    --      1.9796                 6.7330                 7.2102

                     10                     11                     12
                      A                      A                      A
 Frequencies --    397.8619               436.2599               506.2982
 Red. masses --      8.6182                 6.5072                 2.8956
 Frc consts  --      0.8038                 0.7297                 0.4373
 IR Inten    --      7.0081                 5.6690                 7.5521

                     13                     14                     15
                      A                      A                      A
 Frequencies --    533.1380               552.5242               620.1548
 Red. masses --      5.1123                 2.1681                 2.1249
 Frc consts  --      0.8561                 0.3900                 0.4815
 IR Inten    --      8.0700                 6.2774                38.2936

                     16                     17                     18
                      A                      A                      A
 Frequencies --    635.9690               657.1310               738.2904
 Red. masses --      2.6675                 3.7087                 3.9939
 Frc consts  --      0.6357                 0.9436                 1.2826
 IR Inten    --     84.8096                22.9972                51.2600

                     19                     20                     21
                      A                      A                      A
 Frequencies --    746.5145               755.6229               800.0962
 Red. masses --      4.7776                 3.9152                 4.7184
 Frc consts  --      1.5687                 1.3171                 1.7796
 IR Inten    --     45.1136                15.1255                16.3443

                     22                     23                     24
                      A                      A                      A
 Frequencies --    838.6915               951.8261               970.1353
 Red. masses --      1.9197                 4.0357                 2.4050
 Frc consts  --      0.7956                 2.1542                 1.3336
 IR Inten    --      5.4568                38.3071                10.3431

                     25                     26                     27
                      A                      A                      A
 Frequencies --   1026.8675              1057.7916              1079.8186
 Red. masses --      3.2475                 3.5871                 7.1839
 Frc consts  --      2.0176                 2.3648                 4.9353
 IR Inten    --     12.1646                16.8237               168.9663

                     28                     29                     30
                      A                      A                      A
 Frequencies --   1106.1556              1121.4547              1171.4509
 Red. masses --      5.0437                 1.4381                 1.4611
 Frc consts  --      3.6361                 1.0656                 1.1814
 IR Inten    --     18.7638                22.3091                46.4567

                     31                     32                     33
                      A                      A                      A
 Frequencies --   1190.2957              1228.2421              1244.9139
 Red. masses --      2.8183                 1.3979                 1.5462
 Frc consts  --      2.3526                 1.2425                 1.4119
 IR Inten    --    422.3607                35.6640                 4.3565

                     34                     35                     36
                      A                      A                      A
 Frequencies --   1282.5249              1328.6733              1414.6958
 Red. masses --      1.6049                 2.3629                 3.9986
 Frc consts  --      1.5553                 2.4577                 4.7150
 IR Inten    --     36.7456                66.9461               101.7911

                     37                     38                     39
                      A                      A                      A
 Frequencies --   1476.1219              1646.7281              1844.0274
 Red. masses --      1.1061                 9.4061                10.6768
 Frc consts  --      1.4200                15.0281                21.3908
 IR Inten    --      7.8169                48.1075               213.0884

                     40                     41                     42
                      A                      A                      A
 Frequencies --   1922.9167              3105.1082              3110.4792
 Red. masses --     12.8967                 1.0643                 1.0839
 Frc consts  --     28.0963                 6.0460                 6.1787
 IR Inten    --    483.8405                 4.0064                 3.3129

                     43                     44                     45
                      A                      A                      A
 Frequencies --   3161.4388              3277.2542              3698.3263
 Red. masses --      1.1081                 1.0950                 1.0643
 Frc consts  --      6.5253                 6.9291                 8.5765
 IR Inten    --      1.0506                 6.9944                93.6470

 - Thermochemistry -
 -------------------
 Temperature   298.150 Kelvin.  Pressure   1.00000 Atm.
 Atom     1 has atomic number  6 and mass  12.00000

 Molecular mass:   186.99393 amu.
 Principal axes and moments of inertia in atomic units:
                           1         2         3
     Eigenvalues --  1517.124522423.039853634.84894
           X            0.99788   0.06479   0.00544
           Y           -0.06484   0.99786   0.00858
           Z           -0.00487  -0.00891   0.99995
 This molecule is an asymmetric top.
 Rotational symmetry number  1.
 Warning -- assumption of classical behavior for rotation
           may cause significant error
 Rotational temperatures (Kelvin)      0.05709     0.03575     0.02383
 Rotational constants (GHZ):           1.18958     0.74483     0.49651
 Zero-point vibrational energy     295064.9 (Joules/Mol)
                                   70.52220 (Kcal/Mol)
 Warning -- explicit consideration of  15 degrees of freedom as
           vibrations may cause significant error
 Vibrational temperatures:     75.34    99.82   138.95   177.26   225.62
          (Kelvin)            355.15   359.20   479.15   528.51   572.43
                              627.68   728.45   767.07   794.96   892.26
                              915.02   945.46  1062.24  1074.07  1087.17
                             1151.16  1206.69  1369.47  1395.81  1477.43
                             1521.93  1553.62  1591.51  1613.52  1685.46
                             1712.57  1767.17  1791.15  1845.27  1911.66
                             2035.43  2123.81  2369.27  2653.14  2766.65
                             4467.56  4475.29  4548.61  4715.24  5321.07

 Zero-point correction=                           0.112384 (Hartree/Particle)
 Thermal correction to Energy=                    0.122982
 Thermal correction to Enthalpy=                  0.123926
 Thermal correction to Gibbs Free Energy=         0.074921
 Sum of electronic and zero-point Energies=           -985.309936
 Sum of electronic and thermal Energies=              -985.299338
 Sum of electronic and thermal Enthalpies=            -985.298394
 Sum of electronic and thermal Free Energies=         -985.347399

                     E (Thermal)             CV                S
                      KCal/Mol        Cal/Mol-Kelvin    Cal/Mol-Kelvin
 Total                   77.173             38.804            103.141
 Electronic               0.000              0.000              0.000
 Translational            0.889              2.981             41.584
 Rotational               0.889              2.981             30.969
 Vibrational             75.395             32.842             30.588
 Vibration     1          0.596              1.977              4.726
 Vibration     2          0.598              1.969              4.171
 Vibration     3          0.603              1.952              3.522
 Vibration     4          0.610              1.930              3.050
 Vibration     5          0.620              1.895              2.588
 Vibration     6          0.661              1.768              1.753
 Vibration     7          0.662              1.763              1.733
 Vibration     8          0.715              1.610              1.245
 Vibration     9          0.740              1.539              1.091
 Vibration    10          0.764              1.475              0.971
 Vibration    11          0.797              1.391              0.838
 Vibration    12          0.862              1.236              0.643
 Vibration    13          0.888              1.177              0.580
 Vibration    14          0.908              1.134              0.539
 Vibration    15          0.980              0.989              0.416

                           ! Non-Optimized Parameters !
 Normal termination of Gaussian 16 at Wed Dec  9 17:55:06 2020.

 ----------------------------------------------------------------------
 # B3LYP/6-311++G(d,p) empiricaldispersion=gd3bj scf=xqc pop=npa geom=c
 heck
 ----------------------------------------------------------------------

 --------------------------------------
 CID_77380176_JID_2736_Energie_neutraal
 --------------------------------------
 Structure from the checkpoint file:  "JID_2736.chk"
 Charge =  0 Multiplicity = 1

 SCF Done:  E(RB3LYP) =  -985.629309097     A.U. after   16 cycles
 Normal termination of Gaussian 16 at Wed Dec  9 17:57:03 2020.

 ----------------------------------------------------------------------
 # B3LYP/6-311++G(d,p) empiricaldispersion=gd3bj scf=xqc pop=npa geom=c
 heck
 ----------------------------------------------------------------------

 ------------------------------------
 CID_77380176_JID_2736_Energie_kation
 ------------------------------------
 Structure from the checkpoint file:  "JID_2736.chk"
 Charge =  1 Multiplicity = 2

 SCF Done:  E(UB3LYP) =  -985.301418055     A.U. after   25 cycles
 Normal termination of Gaussian 16 at Wed Dec  9 18:01:17 2020.
 Gaussian 16:  ES64L-G16RevA.03 25-Dec-2016

 ----------------------------------------------------------------------
 # B3LYP/6-311++G(d,p) empiricaldispersion=gd3bj scf=xqc pop=npa geom=c
 heck
 ----------------------------------------------------------------------

 -----------------------------------
 CID_77380176_JID_2736_Energie_anion
 -----------------------------------
 Structure from the checkpoint file:  "JID_2736.chk"
 Charge = -1 Multiplicity = 2

                         Standard orientation:
 ---------------------------------------------------------------------
 Center     Atomic      Atomic             Coordinates (Angstroms)
 Number     Number       Type             X           Y           Z
 ---------------------------------------------------------------------
      1          6           0        1.329543    2.112519   -0.029499
      2          6           0        1.318911    0.695827    0.585187
      3          7           0       -0.152909    0.699385    0.556490
      4          6           0       -0.198082    1.945405   -0.153720
      5          8           0       -1.104349    2.522751   -0.678060
      6          6           0       -0.695691   -0.520937    0.100123
      7          6           0        0.202753   -1.406725   -0.357637
      8         16           0        1.915523   -0.780490   -0.421112
      9          8           0        2.837505   -1.561728    0.481626
     10          6           0       -2.170519   -0.702853    0.175426
     11          8           0       -2.922653    0.079070    0.706269
     12          8           0       -2.561022   -1.854375   -0.416499
     13          1           0        1.659826    2.911121    0.639139
     14          1           0        1.830948    2.210807   -0.995691
     15          1           0        1.765101    0.543066    1.572656
     16          1           0       -0.022001   -2.396568   -0.731357
     17          1           0       -3.529225   -1.901430   -0.308366
 ---------------------------------------------------------------------

 SCF Done:  E(UB3LYP) =  -985.669491272     A.U. after   21 cycles

 The electronic state is 2-A.
 Alpha  occ. eigenvalues --  -88.80959 -19.02544 -18.99278 -18.94715 -18.94516
 Alpha  occ. eigenvalues --  -14.21918 -10.15925 -10.13608 -10.11201 -10.08321
 Alpha  occ. eigenvalues --  -10.06036 -10.02969  -7.88508  -5.84786  -5.84656
 Alpha  occ. eigenvalues --   -5.84125  -0.96123  -0.93941  -0.88031  -0.86874
 Alpha  occ. eigenvalues --   -0.84856  -0.68632  -0.63003  -0.57596  -0.51749
 Alpha  occ. eigenvalues --   -0.48730  -0.46301  -0.39583  -0.38474  -0.36052
 Alpha  occ. eigenvalues --   -0.35264  -0.33650  -0.32785  -0.30772  -0.29095
 Alpha  occ. eigenvalues --   -0.28600  -0.27992  -0.27045  -0.26450  -0.24671
 Alpha  occ. eigenvalues --   -0.24441  -0.19619  -0.18122  -0.16163  -0.14879
 Alpha  occ. eigenvalues --   -0.13477  -0.11187  -0.08888   0.02598
 Alpha virt. eigenvalues --    0.08686   0.09507   0.10183   0.11836   0.12297
 Alpha virt. eigenvalues --    0.12594   0.13220   0.14495   0.15377   0.16174
 Alpha virt. eigenvalues --    0.16733   0.17202   0.18398   0.19141   0.19380

  Beta  occ. eigenvalues --  -88.80953 -19.02489 -18.99235 -18.94426 -18.94307
  Beta  occ. eigenvalues --  -14.21971 -10.15843 -10.13393 -10.11167 -10.08331
  Beta  occ. eigenvalues --  -10.05697 -10.02529  -7.88498  -5.84785  -5.84633
  Beta  occ. eigenvalues --   -5.84124  -0.95819  -0.93839  -0.87774  -0.86318
  Beta  occ. eigenvalues --   -0.84685  -0.68102  -0.62655  -0.57169  -0.51200
  Beta  occ. eigenvalues --   -0.48494  -0.45869  -0.39344  -0.38229  -0.35912
  Beta  occ. eigenvalues --   -0.34959  -0.33275  -0.32472  -0.29613  -0.28711
  Beta  occ. eigenvalues --   -0.28470  -0.27697  -0.26776  -0.26180  -0.24386
  Beta  occ. eigenvalues --   -0.24071  -0.18770  -0.16660  -0.15951  -0.14405
  Beta  occ. eigenvalues --   -0.12987  -0.10428  -0.08009
  Beta virt. eigenvalues --    0.08650   0.09145   0.09500   0.10754   0.11894
  Beta virt. eigenvalues --    0.12636   0.12760   0.13313   0.14548   0.15367
  Beta virt. eigenvalues --    0.16579   0.16819   0.17317   0.18447   0.19194

 Mulliken charges and spin densities:
               1          2
     1  C   -0.363852  -0.023775
     2  C   -0.065256   0.017899
     3  N    0.292371  -0.021513
     4  C    0.104709   0.044849
     5  O   -0.334214   0.021017
     6  C   -0.624555   0.121237
     7  C    0.121599   0.494110
     8  S    0.106850   0.052070
     9  O   -0.460893  -0.020303
    10  C   -0.247192   0.142980
    11  O   -0.396396   0.139714
    12  O   -0.223747   0.010063
    13  H    0.117485   0.019584
    14  H    0.156805   0.012445
    15  H    0.309337   0.010900
    16  H    0.252591  -0.019732
    17  H    0.254359  -0.001545
 Sum of Mulliken charges =  -1.00000   1.00000

 Dipole moment (field-independent basis, Debye):
    X=              0.9497    Y=              1.4972    Z=             -0.9674  Tot=              2.0198
 Quadrupole moment (field-independent basis, Debye-Ang):
   XX=           -109.9750   YY=            -94.4025   ZZ=            -83.5302
   XY=             20.9374   XZ=              0.1113   YZ=              4.9231

 Summary of Natural Population Analysis:

                                       Natural Population
                Natural  -----------------------------------------------
    Atom  No    Charge         Core      Valence    Rydberg      Total
 -----------------------------------------------------------------------
      C    1   -0.24743      0.99958     2.23947    0.00838     3.24743
      C    2   -0.07857      0.99962     2.06251    0.01644     3.07857
      N    3   -0.26082      0.99963     2.74881    0.01238     3.76082
      C    4    0.37404      0.99970     1.60241    0.02385     2.62596
      O    5   -0.28186      0.99986     3.27483    0.00717     4.28186
      C    6    0.07354      0.99936     1.90686    0.02024     2.92646
      C    7   -0.10761      0.99940     2.09928    0.00893     3.10761
      S    8    0.56887      4.99940     2.36876    0.06297     7.43113
      O    9   -0.48622      0.99993     3.47911    0.00719     4.48622
      C   10    0.41098      0.99967     1.56535    0.02400     2.58902
      O   11   -0.27133      0.99987     3.26409    0.00737     4.27133
      O   12   -0.35103      0.99988     3.34532    0.00583     4.35103
      H   13    0.10820      0.00000     0.39087    0.00093     0.39180
      H   14    0.10989      0.00000     0.38775    0.00236     0.39011
      H   15    0.10155      0.00000     0.39666    0.00179     0.39845
      H   16    0.10698      0.00000     0.39205    0.00097     0.39302
      H   17    0.23083      0.00000     0.26626    0.00290     0.26917
 =======================================================================
   * Total *    0.00000     15.99590    31.79041    0.21369    48.00000

 Normal termination of Gaussian 16 at Wed Dec  9 18:04:40 2020.
