 Gaussian 16, Revision A.03,

 -----------------------------------------------------------
 # opt freq B3LYP/6-31G(d) empiricaldispersion=gd3bj scf=xqc
 -----------------------------------------------------------

 ------------------------------
 CID_154546601_JID_932_neutraal
 ------------------------------
 Symbolic Z-matrix:
 Charge =  0 Multiplicity = 1

 SCF Done:  E(RB3LYP) =  -393.172528841     A.U. after   12 cycles
 SCF Done:  E(RB3LYP) =  -393.174239359     A.U. after   10 cycles
 SCF Done:  E(RB3LYP) =  -393.174452091     A.U. after    9 cycles
 SCF Done:  E(RB3LYP) =  -393.174342334     A.U. after   10 cycles
 SCF Done:  E(RB3LYP) =  -393.174480610     A.U. after    9 cycles
 SCF Done:  E(RB3LYP) =  -393.174495020     A.U. after    8 cycles
 SCF Done:  E(RB3LYP) =  -393.174495772     A.U. after    7 cycles
 Optimization completed.
    -- Stationary point found.
 Normal termination of Gaussian 16 at Tue Dec  8 13:27:30 2020.

 --------------------------------------------------------------------
 #N Geom=AllCheck Guess=TCheck SCRF=Check GenChk RB3LYP/6-31G(d) Freq
 --------------------------------------------------------------------

 Structure from the checkpoint file:  "JID_932.chk"
 ------------------------------
 CID_154546601_JID_932_neutraal
 ------------------------------
 Charge =  0 Multiplicity = 1

 SCF Done:  E(RB3LYP) =  -393.174495772     A.U. after    1 cycles

  Exact polarizability: 112.012  -0.355  97.779  -0.641  -0.304  95.693
 Approx polarizability: 141.234  -1.809 140.781   0.151   0.330 139.242

                      1                      2                      3
                      A                      A                      A
 Frequencies --     62.4412                90.1675               156.8089
 Red. masses --      2.6068                 2.2680                 2.2553
 Frc consts  --      0.0060                 0.0109                 0.0327
 IR Inten    --      0.0004                 0.0003                 0.0064

                      4                      5                      6
                      A                      A                      A
 Frequencies --    215.0338               237.1503               245.2098
 Red. masses --      1.2157                 1.2044                 1.1470
 Frc consts  --      0.0331                 0.0399                 0.0406
 IR Inten    --      0.0243                 0.0122                 0.0125

                      7                      8                      9
                      A                      A                      A
 Frequencies --    251.9367               257.8441               305.8744
 Red. masses --      1.7971                 1.2353                 1.9961
 Frc consts  --      0.0672                 0.0484                 0.1100
 IR Inten    --      0.0134                 0.0149                 0.0227

                     10                     11                     12
                      A                      A                      A
 Frequencies --    306.8036               356.5797               391.2653
 Red. masses --      1.9271                 2.4781                 2.0712
 Frc consts  --      0.1069                 0.1856                 0.1868
 IR Inten    --      0.0065                 0.0680                 0.0536

                     13                     14                     15
                      A                      A                      A
 Frequencies --    410.2095               438.3928               456.5254
 Red. masses --      2.2587                 1.8982                 2.0030
 Frc consts  --      0.2239                 0.2149                 0.2460
 IR Inten    --      0.0872                 0.2096                 0.0090

                     16                     17                     18
                      A                      A                      A
 Frequencies --    510.8176               534.7264               582.0192
 Red. masses --      2.7898                 2.6192                 2.6670
 Frc consts  --      0.4289                 0.4412                 0.5323
 IR Inten    --      0.1936                 0.9494                 0.5834

                     19                     20                     21
                      A                      A                      A
 Frequencies --    725.6845               826.3593               842.4745
 Red. masses --      2.2157                 2.4281                 2.0233
 Frc consts  --      0.6875                 0.9769                 0.8461
 IR Inten    --      0.1521                 0.2830                 0.4490

                     22                     23                     24
                      A                      A                      A
 Frequencies --    880.3260               899.1807               931.4215
 Red. masses --      2.1741                 1.7829                 1.7841
 Frc consts  --      0.9927                 0.8493                 0.9119
 IR Inten    --      1.2884                 0.8078                 0.7258

                     25                     26                     27
                      A                      A                      A
 Frequencies --    941.6899               951.6088               966.1970
 Red. masses --      1.1800                 1.8324                 1.4032
 Frc consts  --      0.6165                 0.9777                 0.7718
 IR Inten    --      0.6761                 0.7752                 0.9506

                     28                     29                     30
                      A                      A                      A
 Frequencies --    974.8407               979.4173              1009.8221
 Red. masses --      1.5373                 1.5730                 1.8671
 Frc consts  --      0.8607                 0.8890                 1.1218
 IR Inten    --      0.1898                 0.0519                 1.3883

                     31                     32                     33
                      A                      A                      A
 Frequencies --   1050.7867              1066.8313              1075.4415
 Red. masses --      1.6079                 1.4074                 1.4602
 Frc consts  --      1.0460                 0.9438                 0.9951
 IR Inten    --      0.1471                 1.9856                 4.9229

                     34                     35                     36
                      A                      A                      A
 Frequencies --   1117.7652              1139.2677              1163.7594
 Red. masses --      2.1874                 1.8041                 1.9708
 Frc consts  --      1.6102                 1.3797                 1.5726
 IR Inten    --      0.2271                 1.7628                 2.2918

                     37                     38                     39
                      A                      A                      A
 Frequencies --   1197.6049              1210.6091              1224.4992
 Red. masses --      2.0060                 2.1306                 1.9752
 Frc consts  --      1.6951                 1.8398                 1.7449
 IR Inten    --      5.4725                 0.9959                 0.4455

                     40                     41                     42
                      A                      A                      A
 Frequencies --   1247.0725              1276.9065              1290.9071
 Red. masses --      1.8743                 1.5964                 1.4373
 Frc consts  --      1.7174                 1.5336                 1.4112
 IR Inten    --      1.9647                 0.2801                 0.6488

                     43                     44                     45
                      A                      A                      A
 Frequencies --   1321.5939              1344.8304              1355.9044
 Red. masses --      1.5045                 1.3581                 1.3473
 Frc consts  --      1.5482                 1.4472                 1.4594
 IR Inten    --      0.6903                 2.7433                 4.4110

                     46                     47                     48
                      A                      A                      A
 Frequencies --   1368.2651              1370.1332              1390.0232
 Red. masses --      1.3397                 1.3297                 1.4637
 Frc consts  --      1.4777                 1.4707                 1.6663
 IR Inten    --      4.3422                 1.1058                 0.4551

                     49                     50                     51
                      A                      A                      A
 Frequencies --   1410.4115              1430.2963              1438.8563
 Red. masses --      1.5563                 1.2614                 1.2670
 Frc consts  --      1.8241                 1.5204                 1.5454
 IR Inten    --      3.1606                 3.2864                 0.9752

                     52                     53                     54
                      A                      A                      A
 Frequencies --   1440.1563              1452.6775              1512.1371
 Red. masses --      1.2272                 1.2228                 1.0679
 Frc consts  --      1.4996                 1.5204                 1.4387
 IR Inten    --     10.3990                 6.4721                 1.1761

                     55                     56                     57
                      A                      A                      A
 Frequencies --   1515.6340              1522.0903              1527.0716
 Red. masses --      1.0656                 1.0655                 1.0511
 Frc consts  --      1.4422                 1.4544                 1.4441
 IR Inten    --      0.2273                 1.6691                 0.6284

                     58                     59                     60
                      A                      A                      A
 Frequencies --   1528.2081              1528.9843              1531.3461
 Red. masses --      1.0538                 1.0479                 1.0545
 Frc consts  --      1.4500                 1.4433                 1.4570
 IR Inten    --      2.2692                 4.1692                 5.2549

                     61                     62                     63
                      A                      A                      A
 Frequencies --   1538.5013              1542.1223              1545.0391
 Red. masses --      1.0545                 1.0882                 1.0587
 Frc consts  --      1.4707                 1.5248                 1.4890
 IR Inten    --      5.9387                 3.1405                 7.9835

                     64                     65                     66
                      A                      A                      A
 Frequencies --   1553.0006              3003.2921              3006.6735
 Red. masses --      1.0565                 1.0833                 1.0826
 Frc consts  --      1.5013                 5.7572                 5.7663
 IR Inten    --      4.5710                24.7474                12.3147

                     67                     68                     69
                      A                      A                      A
 Frequencies --   3034.5063              3038.0194              3039.1816
 Red. masses --      1.0493                 1.0520                 1.0389
 Frc consts  --      5.6927                 5.7205                 5.6540
 IR Inten    --     15.5899                42.5285                15.3702

                     70                     71                     72
                      A                      A                      A
 Frequencies --   3047.8943              3049.1329              3051.6852
 Red. masses --      1.0377                 1.0514                 1.0625
 Frc consts  --      5.6798                 5.7593                 5.8296
 IR Inten    --     25.5920                 2.6912                60.6343

                     73                     74                     75
                      A                      A                      A
 Frequencies --   3057.5807              3088.1762              3089.7841
 Red. masses --      1.0479                 1.0982                 1.1011
 Frc consts  --      5.7721                 6.1707                 6.1933
 IR Inten    --     24.2414                42.9049                12.1212

                     76                     77                     78
                      A                      A                      A
 Frequencies --   3097.9925              3100.6556              3103.2808
 Red. masses --      1.1014                 1.1014                 1.1017
 Frc consts  --      6.2282                 6.2386                 6.2508
 IR Inten    --      4.4909                 6.7931                88.3393

                     79                     80                     81
                      A                      A                      A
 Frequencies --   3105.6972              3105.9201              3112.3797
 Red. masses --      1.1016                 1.1023                 1.1007
 Frc consts  --      6.2601                 6.2652                 6.2821
 IR Inten    --     57.6680                34.7899                71.9770

                     82                     83                     84
                      A                      A                      A
 Frequencies --   3118.0475              3129.5102              3133.8215
 Red. masses --      1.1011                 1.0998                 1.0984
 Frc consts  --      6.3074                 6.3461                 6.3554
 IR Inten    --     41.8464                39.6111                33.8440

 - Thermochemistry -
 -------------------
 Temperature   298.150 Kelvin.  Pressure   1.00000 Atm.
 Atom     1 has atomic number  6 and mass  12.00000

 Molecular mass:   140.15650 amu.
 Principal axes and moments of inertia in atomic units:
                           1         2         3
     Eigenvalues --   967.258971974.567782069.59007
           X            0.99999   0.00408  -0.00077
           Y           -0.00409   0.99995  -0.00962
           Z            0.00073   0.00962   0.99995
 This molecule is an asymmetric top.
 Rotational symmetry number  1.
 Warning -- assumption of classical behavior for rotation
           may cause significant error
 Rotational temperatures (Kelvin)      0.08955     0.04386     0.04185
 Rotational constants (GHZ):           1.86583     0.91399     0.87203
 Zero-point vibrational energy     744560.5 (Joules/Mol)
                                  177.95423 (Kcal/Mol)
 Warning -- explicit consideration of  18 degrees of freedom as
           vibrations may cause significant error
 Vibrational temperatures:     89.84   129.73   225.61   309.39   341.21
          (Kelvin)            352.80   362.48   370.98   440.09   441.42
                              513.04   562.94   590.20   630.75   656.84
                              734.95   769.35   837.40  1044.10  1188.95
                             1212.13  1266.59  1293.72  1340.11  1354.88
                             1369.15  1390.14  1402.58  1409.16  1452.91
                             1511.85  1534.93  1547.32  1608.21  1639.15
                             1674.39  1723.09  1741.80  1761.78  1794.26
                             1837.18  1857.33  1901.48  1934.91  1950.84
                             1968.63  1971.32  1999.93  2029.27  2057.88
                             2070.19  2072.06  2090.08  2175.63  2180.66
                             2189.95  2197.12  2198.75  2199.87  2203.27
                             2213.56  2218.77  2222.97  2234.42  4321.07
                             4325.93  4365.98  4371.03  4372.70  4385.24
                             4387.02  4390.69  4399.18  4443.20  4445.51
                             4457.32  4461.15  4464.93  4468.41  4468.73
                             4478.02  4486.17  4502.67  4508.87

 Zero-point correction=                           0.283588 (Hartree/Particle)
 Thermal correction to Energy=                    0.295043
 Thermal correction to Enthalpy=                  0.295987
 Thermal correction to Gibbs Free Energy=         0.247616
 Sum of electronic and zero-point Energies=           -392.890908
 Sum of electronic and thermal Energies=              -392.879453
 Sum of electronic and thermal Enthalpies=            -392.878509
 Sum of electronic and thermal Free Energies=         -392.926879

                     E (Thermal)             CV                S
                      KCal/Mol        Cal/Mol-Kelvin    Cal/Mol-Kelvin
 Total                  185.142             45.324            101.804
 Electronic               0.000              0.000              0.000
 Translational            0.889              2.981             40.724
 Rotational               0.889              2.981             29.759
 Vibrational            183.365             39.363             31.321
 Vibration     1          0.597              1.972              4.379
 Vibration     2          0.602              1.956              3.656
 Vibration     3          0.620              1.895              2.588
 Vibration     4          0.645              1.818              2.001
 Vibration     5          0.656              1.784              1.824
 Vibration     6          0.660              1.771              1.765
 Vibration     7          0.664              1.760              1.717
 Vibration     8          0.667              1.750              1.676
 Vibration     9          0.696              1.663              1.385
 Vibration    10          0.697              1.661              1.380
 Vibration    11          0.732              1.562              1.137
 Vibration    12          0.759              1.489              0.995
 Vibration    13          0.774              1.448              0.926
 Vibration    14          0.799              1.386              0.832
 Vibration    15          0.815              1.346              0.776
 Vibration    16          0.866              1.226              0.632
 Vibration    17          0.890              1.173              0.577
 Vibration    18          0.939              1.070              0.482

                           ! Non-Optimized Parameters !
 Normal termination of Gaussian 16 at Tue Dec  8 13:35:50 2020.

 ----------------------------------------------------------------------
 # B3LYP/6-311++G(d,p) empiricaldispersion=gd3bj scf=xqc pop=npa geom=c
 heck
 ----------------------------------------------------------------------

 --------------------------------------
 CID_154546601_JID_932_Energie_neutraal
 --------------------------------------
 Structure from the checkpoint file:  "JID_932.chk"
 Charge =  0 Multiplicity = 1

 SCF Done:  E(RB3LYP) =  -393.281940096     A.U. after   13 cycles
 Normal termination of Gaussian 16 at Tue Dec  8 13:39:37 2020.

 ----------------------------------------------------------------------
 # B3LYP/6-311++G(d,p) empiricaldispersion=gd3bj scf=xqc pop=npa geom=c
 heck
 ----------------------------------------------------------------------

 ------------------------------------
 CID_154546601_JID_932_Energie_kation
 ------------------------------------
 Structure from the checkpoint file:  "JID_932.chk"
 Charge =  1 Multiplicity = 2

 SCF Done:  E(UB3LYP) =  -392.919030115     A.U. after   30 cycles
 Normal termination of Gaussian 16 at Tue Dec  8 13:51:38 2020.
 Gaussian 16:  ES64L-G16RevA.03 25-Dec-2016

 ----------------------------------------------------------------------
 # B3LYP/6-311++G(d,p) empiricaldispersion=gd3bj scf=xqc pop=npa geom=c
 heck
 ----------------------------------------------------------------------

 -----------------------------------
 CID_154546601_JID_932_Energie_anion
 -----------------------------------
 Structure from the checkpoint file:  "JID_932.chk"
 Charge = -1 Multiplicity = 2

                         Standard orientation:
 ---------------------------------------------------------------------
 Center     Atomic      Atomic             Coordinates (Angstroms)
 Number     Number       Type             X           Y           Z
 ---------------------------------------------------------------------
      1          6           0       -2.983336   -0.637449   -0.983005
      2          6           0       -1.916356    0.199513   -0.282941
      3          6           0       -1.619614   -0.213332    1.166716
      4          6           0       -0.314798    0.528932    1.488546
      5          6           0        0.497909    0.588039    0.148420
      6          6           0       -0.524288    0.126462   -0.936012
      7          6           0        0.915977    2.046033   -0.111443
      8          6           0        1.760041   -0.324640    0.212462
      9          6           0        1.456399   -1.777107    0.613947
     10          6           0        2.569417   -0.324858   -1.093944
     11          1           0       -3.131026   -0.313345   -2.020043
     12          1           0       -3.949480   -0.565446   -0.469544
     13          1           0       -2.692720   -1.695720   -1.002301
     14          1           0       -2.242025    1.250982   -0.274314
     15          1           0       -2.434965    0.027326    1.858582
     16          1           0       -1.466730   -1.300779    1.206956
     17          1           0        0.253205    0.068103    2.302980
     18          1           0       -0.550912    1.548805    1.815463
     19          1           0       -0.334075   -0.912279   -1.233036
     20          1           0       -0.458103    0.729240   -1.848619
     21          1           0        1.580842    2.412337    0.681137
     22          1           0        1.432615    2.166191   -1.068627
     23          1           0        0.034223    2.697217   -0.131581
     24          1           0        2.401014    0.100564    1.000220
     25          1           0        0.870257   -2.295118   -0.153863
     26          1           0        2.391423   -2.335234    0.737277
     27          1           0        0.905157   -1.845467    1.556430
     28          1           0        2.942002    0.669628   -1.355224
     29          1           0        3.437495   -0.988131   -1.005457
     30          1           0        1.963681   -0.688430   -1.932904
 ---------------------------------------------------------------------

 SCF Done:  E(UB3LYP) =  -393.263096377     A.U. after   28 cycles

 The electronic state is 2-A.
 Alpha  occ. eigenvalues --  -10.07140 -10.06603 -10.06170 -10.05310 -10.05238
 Alpha  occ. eigenvalues --  -10.05162 -10.05025 -10.04954 -10.04891 -10.04845
 Alpha  occ. eigenvalues --   -0.74507  -0.68823  -0.63923  -0.61443  -0.57661
 Alpha  occ. eigenvalues --   -0.57154  -0.52982  -0.48661  -0.45488  -0.41512
 Alpha  occ. eigenvalues --   -0.37396  -0.36082  -0.34884  -0.33014  -0.31697
 Alpha  occ. eigenvalues --   -0.30600  -0.30386  -0.29227  -0.28038  -0.27408
 Alpha  occ. eigenvalues --   -0.26927  -0.25001  -0.24398  -0.23706  -0.22625
 Alpha  occ. eigenvalues --   -0.21468  -0.20835  -0.20066  -0.19657  -0.19236
 Alpha  occ. eigenvalues --    0.04826
 Alpha virt. eigenvalues --    0.06928   0.07547   0.07892   0.09265   0.09396
 Alpha virt. eigenvalues --    0.09575   0.10196   0.10593   0.12107   0.12200
 Alpha virt. eigenvalues --    0.12333   0.12826   0.13080   0.13540   0.14206

  Beta  occ. eigenvalues --  -10.07140 -10.06592 -10.06159 -10.05293 -10.05223
  Beta  occ. eigenvalues --  -10.05132 -10.05000 -10.04933 -10.04863 -10.04821
  Beta  occ. eigenvalues --   -0.74485  -0.68795  -0.63888  -0.61407  -0.57609
  Beta  occ. eigenvalues --   -0.57099  -0.52921  -0.48603  -0.45429  -0.41467
  Beta  occ. eigenvalues --   -0.37355  -0.36051  -0.34836  -0.32972  -0.31663
  Beta  occ. eigenvalues --   -0.30565  -0.30350  -0.29197  -0.28011  -0.27377
  Beta  occ. eigenvalues --   -0.26894  -0.24971  -0.24364  -0.23666  -0.22585
  Beta  occ. eigenvalues --   -0.21427  -0.20803  -0.20031  -0.19630  -0.19212
  Beta virt. eigenvalues --    0.06999   0.07875   0.08175   0.08598   0.09917
  Beta virt. eigenvalues --    0.09963   0.10163   0.10709   0.11008   0.12637
  Beta virt. eigenvalues --    0.12668   0.12860   0.13233   0.13473   0.13882

 Mulliken charges and spin densities:
               1          2
     1  C    1.720196  -2.486438
     2  C   -1.459564   1.798977
     3  C    0.207521  -0.655920
     4  C   -0.335375  -0.175101
     5  C    0.471695   0.647604
     6  C    0.427575  -1.238515
     7  C    1.655516  -2.343151
     8  C   -2.672889   2.744542
     9  C    0.832907  -1.444667
    10  C    0.964615  -1.635871
    11  H   -0.235389   0.373386
    12  H   -0.329664   0.471889
    13  H   -0.076543   0.203659
    14  H   -0.230421   0.403666
    15  H   -0.351367   0.520514
    16  H    0.080911   0.053323
    17  H   -0.090613   0.259438
    18  H   -0.103187   0.256796
    19  H    0.255548  -0.105114
    20  H   -0.107960   0.286211
    21  H   -0.329804   0.479278
    22  H    0.160493  -0.040166
    23  H   -0.144669   0.286892
    24  H   -0.228249   0.401258
    25  H   -0.153727   0.300444
    26  H   -0.221052   0.370545
    27  H    0.026553   0.101005
    28  H   -0.227040   0.357365
    29  H   -0.247504   0.390524
    30  H   -0.258513   0.417628
 Sum of Mulliken charges =  -1.00000   1.00000

 Dipole moment (field-independent basis, Debye):
    X=              0.1330    Y=             -0.4212    Z=              0.5973  Tot=              0.7429
 Quadrupole moment (field-independent basis, Debye-Ang):
   XX=           -133.1996   YY=           -106.9199   ZZ=           -106.1890
   XY=              1.9007   XZ=              0.0438   YZ=             -1.4511

 Summary of Natural Population Analysis:

                                       Natural Population
                Natural  -----------------------------------------------
    Atom  No    Charge         Core      Valence    Rydberg      Total
 -----------------------------------------------------------------------
      C    1   -0.28160      0.99965     2.27596    0.00599     3.28160
      C    2   -0.11232      0.99960     2.10292    0.00981     3.11232
      C    3   -0.18788      0.99961     2.17999    0.00827     3.18788
      C    4   -0.18623      0.99960     2.17733    0.00930     3.18623
      C    5   -0.03778      0.99956     2.02397    0.01425     3.03778
      C    6   -0.18871      0.99958     2.17967    0.00946     3.18871
      C    7   -0.28177      0.99962     2.27478    0.00737     3.28177
      C    8   -0.10668      0.99956     2.09609    0.01103     3.10668
      C    9   -0.28584      0.99964     2.28015    0.00605     3.28584
      C   10   -0.28596      0.99965     2.27984    0.00647     3.28596
      H   11    0.09900      0.00000     0.39996    0.00104     0.40100
      H   12    0.09935      0.00000     0.39945    0.00120     0.40065
      H   13    0.09502      0.00000     0.40389    0.00109     0.40498
      H   14    0.09200      0.00000     0.40603    0.00197     0.40800
      H   15    0.09954      0.00000     0.39941    0.00105     0.40046
      H   16    0.09269      0.00000     0.40572    0.00159     0.40731
      H   17    0.09982      0.00000     0.39913    0.00104     0.40018
      H   18    0.09693      0.00000     0.40167    0.00140     0.40307
      H   19    0.09717      0.00000     0.40114    0.00169     0.40283
      H   20    0.10185      0.00000     0.39693    0.00122     0.39815
      H   21    0.09854      0.00000     0.40027    0.00119     0.40146
      H   22    0.09907      0.00000     0.39990    0.00103     0.40093
      H   23    0.09884      0.00000     0.39994    0.00122     0.40116
      H   24    0.09353      0.00000     0.40465    0.00182     0.40647
      H   25    0.09622      0.00000     0.40264    0.00114     0.40378
      H   26    0.09953      0.00000     0.39957    0.00090     0.40047
      H   27    0.09941      0.00000     0.39952    0.00107     0.40059
      H   28    0.09982      0.00000     0.39909    0.00109     0.40018
      H   29    0.09895      0.00000     0.40003    0.00102     0.40105
      H   30    0.09749      0.00000     0.40140    0.00110     0.40251
 =======================================================================
   * Total *   -0.00000      9.99608    29.89103    0.11289    40.00000

 Normal termination of Gaussian 16 at Tue Dec  8 14:02:07 2020.
