 Gaussian 16, Revision A.03,

 -----------------------------------------------------------
 # opt freq B3LYP/6-31G(d) empiricaldispersion=gd3bj scf=xqc
 -----------------------------------------------------------

 ------------------------------
 CID_53818685_JID_1891_neutraal
 ------------------------------
 Symbolic Z-matrix:
 Charge =  0 Multiplicity = 1

 SCF Done:  E(RB3LYP) =  -467.132693544     A.U. after   14 cycles
 SCF Done:  E(RB3LYP) =  -467.134201236     A.U. after   11 cycles
 SCF Done:  E(RB3LYP) =  -467.134398588     A.U. after   11 cycles
 SCF Done:  E(RB3LYP) =  -467.134455788     A.U. after   11 cycles
 SCF Done:  E(RB3LYP) =  -467.134468555     A.U. after   10 cycles
 SCF Done:  E(RB3LYP) =  -467.134474867     A.U. after    9 cycles
 SCF Done:  E(RB3LYP) =  -467.134477813     A.U. after   10 cycles
 SCF Done:  E(RB3LYP) =  -467.134478155     A.U. after    8 cycles
 SCF Done:  E(RB3LYP) =  -467.134478266     A.U. after    7 cycles
 Optimization completed.
    -- Stationary point found.
 Normal termination of Gaussian 16 at Tue Dec  8 21:28:13 2020.

 --------------------------------------------------------------------
 #N Geom=AllCheck Guess=TCheck SCRF=Check GenChk RB3LYP/6-31G(d) Freq
 --------------------------------------------------------------------

 Structure from the checkpoint file:  "JID_1891.chk"
 ------------------------------
 CID_53818685_JID_1891_neutraal
 ------------------------------
 Charge =  0 Multiplicity = 1

 SCF Done:  E(RB3LYP) =  -467.134478266     A.U. after    1 cycles

  Exact polarizability: 180.650  -4.471 103.250   9.685   1.496  79.138
 Approx polarizability: 238.365 -23.762 149.089  20.958  -0.083 112.243

                      1                      2                      3
                      A                      A                      A
 Frequencies --     30.9258                40.2278                57.8470
 Red. masses --      3.4221                 3.2910                 2.6835
 Frc consts  --      0.0019                 0.0031                 0.0053
 IR Inten    --      0.2777                 0.2036                 0.4942

                      4                      5                      6
                      A                      A                      A
 Frequencies --     86.0787               124.4414               137.6247
 Red. masses --      3.0119                 2.8095                 2.4946
 Frc consts  --      0.0131                 0.0256                 0.0278
 IR Inten    --      0.6094                 1.1230                 0.4165

                      7                      8                      9
                      A                      A                      A
 Frequencies --    178.1414               204.2954               212.9264
 Red. masses --      1.6774                 1.3770                 1.7987
 Frc consts  --      0.0314                 0.0339                 0.0480
 IR Inten    --      0.5723                 0.1319                 0.2043

                     10                     11                     12
                      A                      A                      A
 Frequencies --    252.0075               285.8029               294.0449
 Red. masses --      1.6053                 1.7866                 2.0587
 Frc consts  --      0.0601                 0.0860                 0.1049
 IR Inten    --      0.0952                 0.2088                 0.1897

                     13                     14                     15
                      A                      A                      A
 Frequencies --    343.9155               384.4950               418.7562
 Red. masses --      2.4269                 2.7776                 2.9664
 Frc consts  --      0.1691                 0.2419                 0.3065
 IR Inten    --      0.3886                 0.1338                 1.6245

                     16                     17                     18
                      A                      A                      A
 Frequencies --    438.4884               476.5339               530.7451
 Red. masses --      2.9476                 2.6799                 2.6953
 Frc consts  --      0.3339                 0.3585                 0.4473
 IR Inten    --      3.6882                 3.0414                 2.4285

                     19                     20                     21
                      A                      A                      A
 Frequencies --    652.2643               745.0477               808.3721
 Red. masses --      3.0125                 1.2281                 1.9129
 Frc consts  --      0.7551                 0.4016                 0.7365
 IR Inten    --     25.0269                18.9822                 0.7358

                     22                     23                     24
                      A                      A                      A
 Frequencies --    823.6862               831.7429               859.7060
 Red. masses --      1.4304                 1.3981                 1.8145
 Frc consts  --      0.5718                 0.5699                 0.7901
 IR Inten    --      2.0281                 0.6644                 7.5052

                     25                     26                     27
                      A                      A                      A
 Frequencies --    867.1409               869.3879               953.4871
 Red. masses --      2.0725                 1.8542                 1.1487
 Frc consts  --      0.9182                 0.8257                 0.6153
 IR Inten    --      4.6685                 3.9957                 5.2108

                     28                     29                     30
                      A                      A                      A
 Frequencies --    956.1655               969.1369              1020.8465
 Red. masses --      1.9564                 1.5425                 1.1009
 Frc consts  --      1.0538                 0.8536                 0.6760
 IR Inten    --      2.8115                 0.8665                45.1124

                     31                     32                     33
                      A                      A                      A
 Frequencies --   1024.1666              1044.9344              1083.1054
 Red. masses --      2.7655                 1.6208                 2.1693
 Frc consts  --      1.7091                 1.0427                 1.4994
 IR Inten    --     17.4001                12.9878                 1.4973

                     34                     35                     36
                      A                      A                      A
 Frequencies --   1122.9496              1131.9807              1142.3722
 Red. masses --      1.9134                 1.9813                 1.8314
 Frc consts  --      1.4216                 1.4958                 1.4082
 IR Inten    --      5.2132                 6.8922                20.7011

                     37                     38                     39
                      A                      A                      A
 Frequencies --   1186.7007              1195.6631              1231.1161
 Red. masses --      2.1995                 1.9651                 1.7840
 Frc consts  --      1.8250                 1.6552                 1.5931
 IR Inten    --     40.9159                56.6244                40.4999

                     40                     41                     42
                      A                      A                      A
 Frequencies --   1240.3907              1273.1245              1299.9543
 Red. masses --      1.9493                 1.3915                 1.3703
 Frc consts  --      1.7670                 1.3289                 1.3643
 IR Inten    --    202.1444                25.0860                14.2383

                     43                     44                     45
                      A                      A                      A
 Frequencies --   1329.3721              1337.7613              1343.2585
 Red. masses --      1.1867                 1.1301                 1.2864
 Frc consts  --      1.2357                 1.1916                 1.3676
 IR Inten    --      1.4479                27.1194                 0.4273

                     46                     47                     48
                      A                      A                      A
 Frequencies --   1362.1924              1372.0257              1394.4709
 Red. masses --      1.3760                 1.3986                 1.3619
 Frc consts  --      1.5043                 1.5512                 1.5603
 IR Inten    --     28.6570                50.6499                14.2967

                     49                     50                     51
                      A                      A                      A
 Frequencies --   1398.1276              1411.9743              1423.5616
 Red. masses --      1.2885                 1.3369                 1.3246
 Frc consts  --      1.4839                 1.5704                 1.5816
 IR Inten    --      2.6487                 9.1090                 0.7940

                     52                     53                     54
                      A                      A                      A
 Frequencies --   1442.7210              1443.2392              1508.4321
 Red. masses --      1.2701                 1.2839                 1.0816
 Frc consts  --      1.5576                 1.5756                 1.4501
 IR Inten    --      9.0240                18.8941                 4.2413

                     55                     56                     57
                      A                      A                      A
 Frequencies --   1516.2440              1518.9835              1523.8467
 Red. masses --      1.0420                 1.0976                 1.0581
 Frc consts  --      1.4115                 1.4921                 1.4477
 IR Inten    --      3.4406                 8.0138                 1.2503

                     58                     59                     60
                      A                      A                      A
 Frequencies --   1531.6881              1533.9692              1541.0656
 Red. masses --      1.0547                 1.0570                 1.0681
 Frc consts  --      1.4579                 1.4654                 1.4945
 IR Inten    --      0.5231                 8.5161                 2.5194

                     61                     62                     63
                      A                      A                      A
 Frequencies --   1545.0846              1698.0520              1736.7833
 Red. masses --      1.0832                 5.2918                 5.3263
 Frc consts  --      1.5235                 8.9899                 9.4661
 IR Inten    --      4.0576               160.0812               112.6795

                     64                     65                     66
                      A                      A                      A
 Frequencies --   3021.8870              3026.3946              3039.3571
 Red. masses --      1.0635                 1.0631                 1.0621
 Frc consts  --      5.7219                 5.7371                 5.7807
 IR Inten    --     19.3571                52.7332                19.6929

                     67                     68                     69
                      A                      A                      A
 Frequencies --   3044.1878              3049.0045              3062.8697
 Red. masses --      1.0376                 1.0662                 1.0367
 Frc consts  --      5.6652                 5.8398                 5.7301
 IR Inten    --     30.9268                37.0481                16.4545

                     70                     71                     72
                      A                      A                      A
 Frequencies --   3063.2165              3069.2896              3077.7874
 Red. masses --      1.0972                 1.0990                 1.1021
 Frc consts  --      6.0659                 6.1002                 6.1511
 IR Inten    --     24.0273                33.1454                69.9696

                     73                     74                     75
                      A                      A                      A
 Frequencies --   3108.3374              3113.7169              3114.2964
 Red. masses --      1.1016                 1.0995                 1.1019
 Frc consts  --      6.2711                 6.2807                 6.2967
 IR Inten    --     51.1735                23.7382                56.0041

                     76                     77                     78
                      A                      A                      A
 Frequencies --   3130.4187              3130.8734              3142.2766
 Red. masses --      1.0889                 1.1014                 1.0867
 Frc consts  --      6.2870                 6.3611                 6.3219
 IR Inten    --     11.1943                23.4027                36.9617

                     79                     80                     81
                      A                      A                      A
 Frequencies --   3150.1170              3192.6462              3197.2087
 Red. masses --      1.1029                 1.0920                 1.0876
 Frc consts  --      6.4481                 6.5578                 6.5500
 IR Inten    --     39.7392                 9.4600                32.1366

 - Thermochemistry -
 -------------------
 Temperature   298.150 Kelvin.  Pressure   1.00000 Atm.
 Atom     1 has atomic number  6 and mass  12.00000

 Molecular mass:   154.13577 amu.
 Principal axes and moments of inertia in atomic units:
                           1         2         3
     Eigenvalues --   757.127655727.998576086.37354
           X            0.99998   0.00613  -0.00302
           Y           -0.00613   0.99998  -0.00002
           Z            0.00302   0.00004   1.00000
 This molecule is an asymmetric top.
 Rotational symmetry number  1.
 Warning -- assumption of classical behavior for rotation
           may cause significant error
 Rotational temperatures (Kelvin)      0.11440     0.01512     0.01423
 Rotational constants (GHZ):           2.38367     0.31507     0.29652
 Zero-point vibrational energy     690708.7 (Joules/Mol)
                                  165.08335 (Kcal/Mol)
 Warning -- explicit consideration of  18 degrees of freedom as
           vibrations may cause significant error
 Vibrational temperatures:     44.50    57.88    83.23   123.85   179.04
          (Kelvin)            198.01   256.31   293.94   306.35   362.58
                              411.21   423.07   494.82   553.20   602.50
                              630.89   685.63   763.62   938.46  1071.96
                             1163.07  1185.10  1196.69  1236.93  1247.62
                             1250.86  1371.86  1375.71  1394.37  1468.77
                             1473.55  1503.43  1558.35  1615.67  1628.67
                             1643.62  1707.40  1720.29  1771.30  1784.65
                             1831.74  1870.34  1912.67  1924.74  1932.65
                             1959.89  1974.04  2006.33  2011.59  2031.52
                             2048.19  2075.75  2076.50  2170.30  2181.54
                             2185.48  2192.48  2203.76  2207.04  2217.25
                             2223.03  2443.12  2498.84  4347.82  4354.31
                             4372.96  4379.91  4386.84  4406.79  4407.29
                             4416.02  4428.25  4472.20  4479.94  4480.78
                             4503.97  4504.63  4521.04  4532.32  4593.51
                             4600.07

 Zero-point correction=                           0.263077 (Hartree/Particle)
 Thermal correction to Energy=                    0.276483
 Thermal correction to Enthalpy=                  0.277427
 Thermal correction to Gibbs Free Energy=         0.221743
 Sum of electronic and zero-point Energies=           -466.871401
 Sum of electronic and thermal Energies=              -466.857996
 Sum of electronic and thermal Enthalpies=            -466.857051
 Sum of electronic and thermal Free Energies=         -466.912735

                     E (Thermal)             CV                S
                      KCal/Mol        Cal/Mol-Kelvin    Cal/Mol-Kelvin
 Total                  173.495             48.230            117.195
 Electronic               0.000              0.000              0.000
 Translational            0.889              2.981             41.008
 Rotational               0.889              2.981             31.646
 Vibrational            171.718             42.268             44.542
 Vibration     1          0.594              1.984              5.769
 Vibration     2          0.594              1.981              5.248
 Vibration     3          0.596              1.974              4.529
 Vibration     4          0.601              1.959              3.747
 Vibration     5          0.610              1.929              3.030
 Vibration     6          0.614              1.916              2.837
 Vibration     7          0.629              1.869              2.348
 Vibration     8          0.640              1.834              2.094
 Vibration     9          0.644              1.821              2.018
 Vibration    10          0.664              1.759              1.716
 Vibration    11          0.684              1.700              1.499
 Vibration    12          0.689              1.685              1.451
 Vibration    13          0.723              1.588              1.194
 Vibration    14          0.753              1.503              1.021
 Vibration    15          0.782              1.429              0.896
 Vibration    16          0.799              1.386              0.831
 Vibration    17          0.833              1.302              0.719
 Vibration    18          0.886              1.182              0.586

                           ! Non-Optimized Parameters !
 Normal termination of Gaussian 16 at Tue Dec  8 21:34:13 2020.

 ----------------------------------------------------------------------
 # B3LYP/6-311++G(d,p) empiricaldispersion=gd3bj scf=xqc pop=npa geom=c
 heck
 ----------------------------------------------------------------------

 --------------------------------------
 CID_53818685_JID_1891_Energie_neutraal
 --------------------------------------
 Structure from the checkpoint file:  "JID_1891.chk"
 Charge =  0 Multiplicity = 1

 SCF Done:  E(RB3LYP) =  -467.268777271     A.U. after   14 cycles
 Normal termination of Gaussian 16 at Tue Dec  8 21:37:34 2020.

 ----------------------------------------------------------------------
 # B3LYP/6-311++G(d,p) empiricaldispersion=gd3bj scf=xqc pop=npa geom=c
 heck
 ----------------------------------------------------------------------

 ------------------------------------
 CID_53818685_JID_1891_Energie_kation
 ------------------------------------
 Structure from the checkpoint file:  "JID_1891.chk"
 Charge =  1 Multiplicity = 2

 SCF Done:  E(UB3LYP) =  -466.996002706     A.U. after   20 cycles
 Normal termination of Gaussian 16 at Tue Dec  8 21:44:59 2020.
 Gaussian 16:  ES64L-G16RevA.03 25-Dec-2016

 ----------------------------------------------------------------------
 # B3LYP/6-311++G(d,p) empiricaldispersion=gd3bj scf=xqc pop=npa geom=c
 heck
 ----------------------------------------------------------------------

 -----------------------------------
 CID_53818685_JID_1891_Energie_anion
 -----------------------------------
 Structure from the checkpoint file:  "JID_1891.chk"
 Charge = -1 Multiplicity = 2

                         Standard orientation:
 ---------------------------------------------------------------------
 Center     Atomic      Atomic             Coordinates (Angstroms)
 Number     Number       Type             X           Y           Z
 ---------------------------------------------------------------------
      1          6           0       -4.333267    1.531670   -0.170352
      2          6           0       -3.741335    0.600337    0.891911
      3          6           0       -3.440244   -0.816967    0.383618
      4          6           0       -2.438995   -0.891204   -0.790345
      5          6           0       -1.109194   -0.261472   -0.491409
      6          6           0        0.037614   -0.940938   -0.322897
      7          6           0        1.323265   -0.343889   -0.011325
      8          6           0        2.436152   -1.087965    0.137317
      9          8           0        3.694658   -0.695099    0.450157
     10          6           0        3.945095    0.701811    0.635724
     11          6           0        4.094465    1.441952   -0.688034
     12          1           0       -3.626950    1.716950   -0.987505
     13          1           0       -4.600141    2.503392    0.259966
     14          1           0       -5.240990    1.100586   -0.610916
     15          1           0       -2.823406    1.044245    1.298592
     16          1           0       -4.440514    0.525334    1.735038
     17          1           0       -3.043972   -1.414911    1.214411
     18          1           0       -4.380271   -1.293484    0.070558
     19          1           0       -2.291455   -1.945443   -1.056925
     20          1           0       -2.886804   -0.410408   -1.671908
     21          1           0       -1.091496    0.824365   -0.388414
     22          1           0        0.020200   -2.027698   -0.427112
     23          1           0        1.352831    0.736594    0.098364
     24          1           0        2.408906   -2.168304    0.017958
     25          1           0        3.153229    1.138407    1.257848
     26          1           0        4.878298    0.739930    1.204251
     27          1           0        3.177691    1.390584   -1.281495
     28          1           0        4.328721    2.496517   -0.503796
     29          1           0        4.907528    1.004123   -1.275424
 ---------------------------------------------------------------------

 SCF Done:  E(UB3LYP) =  -467.252746886     A.U. after   33 cycles
 SCF Done:  E(UB3LYP) =  -467.252746886     a.u. after    1 cycles

 The electronic state is 2-A.
 Alpha  occ. eigenvalues --  -19.06046 -10.12975 -10.12941 -10.07360 -10.07160
 Alpha  occ. eigenvalues --  -10.06825 -10.06771 -10.06755 -10.06630 -10.06471
 Alpha  occ. eigenvalues --  -10.06017  -0.97353  -0.72056  -0.69736  -0.67442
 Alpha  occ. eigenvalues --   -0.64784  -0.60504  -0.56255  -0.53943  -0.48609
 Alpha  occ. eigenvalues --   -0.46527  -0.45100  -0.41567  -0.39811  -0.36632
 Alpha  occ. eigenvalues --   -0.36299  -0.35158  -0.34054  -0.32148  -0.31828
 Alpha  occ. eigenvalues --   -0.29864  -0.29635  -0.28993  -0.27124  -0.26845
 Alpha  occ. eigenvalues --   -0.25537  -0.25494  -0.23599  -0.23515  -0.22860
 Alpha  occ. eigenvalues --   -0.22258  -0.19871  -0.10757   0.04438
 Alpha virt. eigenvalues --    0.05826   0.07156   0.07933   0.07978   0.08380
 Alpha virt. eigenvalues --    0.08555   0.08783   0.10053   0.10289   0.10766
 Alpha virt. eigenvalues --    0.10884   0.11728   0.12187   0.12838   0.13105

  Beta  occ. eigenvalues --  -19.06045 -10.12933 -10.12914 -10.07344 -10.07155
  Beta  occ. eigenvalues --  -10.06817 -10.06736 -10.06730 -10.06612 -10.06441
  Beta  occ. eigenvalues --  -10.05984  -0.97331  -0.72008  -0.69690  -0.67390
  Beta  occ. eigenvalues --   -0.64738  -0.60449  -0.56180  -0.53886  -0.48526
  Beta  occ. eigenvalues --   -0.46464  -0.45047  -0.41532  -0.39771  -0.36596
  Beta  occ. eigenvalues --   -0.36260  -0.35080  -0.34016  -0.32110  -0.31785
  Beta  occ. eigenvalues --   -0.29816  -0.29591  -0.28953  -0.27090  -0.26800
  Beta  occ. eigenvalues --   -0.25485  -0.25400  -0.23572  -0.23466  -0.22833
  Beta  occ. eigenvalues --   -0.22217  -0.19788  -0.10625
  Beta virt. eigenvalues --    0.06518   0.07121   0.07456   0.08167   0.08309
  Beta virt. eigenvalues --    0.08945   0.08966   0.09183   0.10514   0.10712
  Beta virt. eigenvalues --    0.10873   0.11301   0.11995   0.12462   0.13079

 Mulliken charges and spin densities:
               1          2
     1  C    0.966929  -1.574262
     2  C   -0.852902   0.686129
     3  C    0.739921  -1.036891
     4  C   -0.364498   0.225323
     5  C    0.004596   0.310296
     6  C    0.659024  -1.436436
     7  C    0.346250  -0.041095
     8  C   -0.821072   0.335008
     9  O   -0.085943   0.017494
    10  C   -0.055296  -0.195099
    11  C    0.981078  -1.350613
    12  H   -0.155364   0.305745
    13  H   -0.230593   0.364080
    14  H   -0.223908   0.364817
    15  H    0.043193   0.082673
    16  H   -0.342081   0.493352
    17  H    0.049105   0.071529
    18  H   -0.287114   0.422645
    19  H   -0.115274   0.280789
    20  H    0.109215   0.029325
    21  H   -0.112708   0.287058
    22  H    0.108395  -0.042429
    23  H    0.148268  -0.019899
    24  H    0.020625   0.141644
    25  H   -0.102914   0.237994
    26  H   -0.697142   0.898364
    27  H   -0.215961   0.345086
    28  H   -0.471917   0.610230
    29  H   -0.041914   0.187143
 Sum of Mulliken charges =  -1.00000   1.00000

 Dipole moment (field-independent basis, Debye):
    X=             -0.2592    Y=             -4.6060    Z=             -1.0076  Tot=              4.7220
 Quadrupole moment (field-independent basis, Debye-Ang):
   XX=           -194.6792   YY=           -109.5862   ZZ=            -98.9282
   XY=            -10.5097   XZ=             -2.1925   YZ=             -0.7865

 Summary of Natural Population Analysis:

                                       Natural Population
                Natural  -----------------------------------------------
    Atom  No    Charge         Core      Valence    Rydberg      Total
 -----------------------------------------------------------------------
      C    1   -0.28809      0.99967     2.28324    0.00518     3.28809
      C    2   -0.19380      0.99964     2.18544    0.00871     3.19380
      C    3   -0.18343      0.99962     2.17528    0.00852     3.18343
      C    4   -0.20580      0.99962     2.19712    0.00907     3.20580
      C    5   -0.08979      0.99953     2.08125    0.00900     3.08979
      C    6   -0.10012      0.99951     2.09174    0.00887     3.10012
      C    7   -0.17029      0.99953     2.16232    0.00844     3.17029
      C    8    0.10343      0.99944     1.88372    0.01340     2.89657
      O    9   -0.27450      0.99987     3.26456    0.01007     4.27450
      C   10   -0.01413      0.99959     2.00149    0.01305     3.01413
      C   11   -0.30060      0.99966     2.29567    0.00526     3.30060
      H   12    0.09530      0.00000     0.40357    0.00113     0.40470
      H   13    0.09932      0.00000     0.39963    0.00105     0.40068
      H   14    0.09635      0.00000     0.40234    0.00132     0.40365
      H   15    0.09531      0.00000     0.40343    0.00127     0.40469
      H   16    0.09605      0.00000     0.40277    0.00118     0.40395
      H   17    0.09518      0.00000     0.40371    0.00111     0.40482
      H   18    0.09444      0.00000     0.40412    0.00143     0.40556
      H   19    0.09733      0.00000     0.40158    0.00110     0.40267
      H   20    0.09935      0.00000     0.39943    0.00122     0.40065
      H   21    0.09032      0.00000     0.40804    0.00164     0.40968
      H   22    0.08817      0.00000     0.41004    0.00179     0.41183
      H   23    0.10058      0.00000     0.39762    0.00180     0.39942
      H   24    0.08333      0.00000     0.41553    0.00114     0.41667
      H   25    0.08526      0.00000     0.41299    0.00175     0.41474
      H   26    0.09296      0.00000     0.40513    0.00191     0.40704
      H   27    0.10174      0.00000     0.39698    0.00128     0.39826
      H   28    0.10614      0.00000     0.39129    0.00258     0.39386
      H   29    0.10000      0.00000     0.39899    0.00101     0.40000
 =======================================================================
   * Total *   -0.00000     10.99569    31.87904    0.12527    43.00000

 Normal termination of Gaussian 16 at Tue Dec  8 21:53:54 2020.
