 Gaussian 16, Revision A.03,

 -----------------------------------------------------------
 # opt freq B3LYP/6-31G(d) empiricaldispersion=gd3bj scf=xqc
 -----------------------------------------------------------

 -------------------------------
 CID_104530793_JID_4202_neutraal
 -------------------------------
 Symbolic Z-matrix:
 Charge =  0 Multiplicity = 1

 SCF Done:  E(RB3LYP) =  -977.221123724     A.U. after   15 cycles
 SCF Done:  E(RB3LYP) =  -977.226413265     A.U. after   12 cycles
 SCF Done:  E(RB3LYP) =  -977.227431928     A.U. after   13 cycles
 SCF Done:  E(RB3LYP) =  -977.227993271     A.U. after   11 cycles
 SCF Done:  E(RB3LYP) =  -977.228269972     A.U. after   12 cycles
 SCF Done:  E(RB3LYP) =  -977.228522067     A.U. after   11 cycles
 SCF Done:  E(RB3LYP) =  -977.228646159     A.U. after   11 cycles
 SCF Done:  E(RB3LYP) =  -977.228682350     A.U. after   10 cycles
 SCF Done:  E(RB3LYP) =  -977.228775080     A.U. after   10 cycles
 SCF Done:  E(RB3LYP) =  -977.228844702     A.U. after   11 cycles
 SCF Done:  E(RB3LYP) =  -977.229981051     A.U. after   10 cycles
 SCF Done:  E(RB3LYP) =  -977.229984868     A.U. after    9 cycles
 SCF Done:  E(RB3LYP) =  -977.229985870     A.U. after    9 cycles
 SCF Done:  E(RB3LYP) =  -977.229986245     A.U. after    9 cycles
 SCF Done:  E(RB3LYP) =  -977.229986426     A.U. after    7 cycles
 SCF Done:  E(RB3LYP) =  -977.229986432     A.U. after    6 cycles
 Optimization completed.
    -- Stationary point found.
 Normal termination of Gaussian 16 at Thu Dec 10 09:32:45 2020.

 --------------------------------------------------------------------
 #N Geom=AllCheck Guess=TCheck SCRF=Check GenChk RB3LYP/6-31G(d) Freq
 --------------------------------------------------------------------

 Structure from the checkpoint file:  "JID_4202.chk"
 -------------------------------
 CID_104530793_JID_4202_neutraal
 -------------------------------
 Charge =  0 Multiplicity = 1

 SCF Done:  E(RB3LYP) =  -977.229986432     A.U. after    1 cycles

  Exact polarizability: 161.855  -0.371 142.669  -2.812  -0.747 115.260
 Approx polarizability: 213.107  -1.524 195.921  -3.242  -2.958 179.788

                      1                      2                      3
                      A                      A                      A
 Frequencies --     17.7079                30.7335                37.5635
 Red. masses --      3.6566                 4.7817                 3.1697
 Frc consts  --      0.0007                 0.0027                 0.0026
 IR Inten    --      0.3925                 2.0842                 2.0544

                      4                      5                      6
                      A                      A                      A
 Frequencies --     66.9641               105.5319               114.8705
 Red. masses --      3.6059                 2.9210                 2.7668
 Frc consts  --      0.0095                 0.0192                 0.0215
 IR Inten    --      2.1369                 2.9835                 2.3801

                      7                      8                      9
                      A                      A                      A
 Frequencies --    140.9249               209.3910               229.0607
 Red. masses --      3.5489                 2.6705                 1.3379
 Frc consts  --      0.0415                 0.0690                 0.0414
 IR Inten    --      0.2767                 3.2250                 0.7165

                     10                     11                     12
                      A                      A                      A
 Frequencies --    231.3894               236.2595               254.4832
 Red. masses --      1.3037                 1.0990                 2.4357
 Frc consts  --      0.0411                 0.0361                 0.0929
 IR Inten    --      0.0281                 0.3365                 3.1580

                     13                     14                     15
                      A                      A                      A
 Frequencies --    262.6944               280.4369               293.4725
 Red. masses --      1.8731                 1.6458                 1.8404
 Frc consts  --      0.0762                 0.0763                 0.0934
 IR Inten    --      1.5821                 0.6575                 1.1362

                     16                     17                     18
                      A                      A                      A
 Frequencies --    313.8181               334.4004               349.8656
 Red. masses --      2.2611                 2.4294                 2.5799
 Frc consts  --      0.1312                 0.1601                 0.1861
 IR Inten    --      0.5354                 5.5849                 2.6499

                     19                     20                     21
                      A                      A                      A
 Frequencies --    357.9731               403.0719               416.0121
 Red. masses --      2.9417                 2.5341                 2.7503
 Frc consts  --      0.2221                 0.2426                 0.2804
 IR Inten    --      1.8558                 2.5878                 2.1210

                     22                     23                     24
                      A                      A                      A
 Frequencies --    468.7485               498.1107               521.5298
 Red. masses --      1.9853                 2.4212                 2.3848
 Frc consts  --      0.2570                 0.3539                 0.3822
 IR Inten    --      4.4044                 2.2207                 2.9001

                     25                     26                     27
                      A                      A                      A
 Frequencies --    581.1741               656.6660               721.4911
 Red. masses --      3.5390                 4.6502                 3.1700
 Frc consts  --      0.7043                 1.1814                 0.9722
 IR Inten    --      0.9060                10.1756                 6.5749

                     28                     29                     30
                      A                      A                      A
 Frequencies --    729.3242               759.1740               788.9089
 Red. masses --      3.7804                 2.5525                 2.6761
 Frc consts  --      1.1848                 0.8668                 0.9813
 IR Inten    --      1.8127                73.6815                 6.1902

                     31                     32                     33
                      A                      A                      A
 Frequencies --    859.9617               877.0024               889.0407
 Red. masses --      1.4882                 1.9919                 1.7368
 Frc consts  --      0.6484                 0.9027                 0.8088
 IR Inten    --     11.6306                 2.5627                12.8425

                     34                     35                     36
                      A                      A                      A
 Frequencies --    914.4563               932.3569               950.9209
 Red. masses --      1.9786                 1.7693                 1.9726
 Frc consts  --      0.9748                 0.9062                 1.0509
 IR Inten    --      3.4363                14.8792                 7.4422

                     37                     38                     39
                      A                      A                      A
 Frequencies --    964.3626               973.5413               986.4199
 Red. masses --      1.4793                 1.5162                 1.4506
 Frc consts  --      0.8106                 0.8467                 0.8316
 IR Inten    --      7.9054                 7.2432                 4.4824

                     40                     41                     42
                      A                      A                      A
 Frequencies --   1027.5807              1042.6560              1065.9384
 Red. masses --      1.9171                 1.8922                 1.8508
 Frc consts  --      1.1927                 1.2120                 1.2390
 IR Inten    --      8.7459                 5.5523                32.2801

                     43                     44                     45
                      A                      A                      A
 Frequencies --   1071.4455              1094.2053              1096.1032
 Red. masses --      3.5055                 1.6282                 2.5152
 Frc consts  --      2.3711                 1.1486                 1.7805
 IR Inten    --    109.2458                 1.1738                56.4303

                     46                     47                     48
                      A                      A                      A
 Frequencies --   1117.2905              1142.9758              1152.4201
 Red. masses --      1.6207                 2.4507                 1.5622
 Frc consts  --      1.1920                 1.8863                 1.2224
 IR Inten    --      5.1644                 8.0000                 7.0056

                     49                     50                     51
                      A                      A                      A
 Frequencies --   1163.9962              1189.1535              1201.1268
 Red. masses --      1.4255                 1.9741                 1.6986
 Frc consts  --      1.1380                 1.6447                 1.4439
 IR Inten    --      4.5308                29.3860                77.9072

                     52                     53                     54
                      A                      A                      A
 Frequencies --   1216.6850              1257.3567              1268.3862
 Red. masses --      1.9102                 2.2623                 1.6351
 Frc consts  --      1.6660                 2.1072                 1.5499
 IR Inten    --      6.9740                14.9614                 3.2673

                     55                     56                     57
                      A                      A                      A
 Frequencies --   1273.6406              1281.9532              1299.9954
 Red. masses --      1.4123                 1.8583                 1.5088
 Frc consts  --      1.3498                 1.7993                 1.5023
 IR Inten    --      2.1383                19.0264                14.1574

                     58                     59                     60
                      A                      A                      A
 Frequencies --   1322.9126              1342.1587              1347.0129
 Red. masses --      1.3143                 1.1980                 1.3291
 Frc consts  --      1.3552                 1.2715                 1.4209
 IR Inten    --      0.9617                 5.0566                13.4008

                     61                     62                     63
                      A                      A                      A
 Frequencies --   1370.9353              1377.3659              1394.6357
 Red. masses --      1.3679                 1.3629                 1.5137
 Frc consts  --      1.5147                 1.5234                 1.7347
 IR Inten    --      5.1319                 8.2057                26.6267

                     64                     65                     66
                      A                      A                      A
 Frequencies --   1408.7180              1423.8197              1432.2420
 Red. masses --      1.3755                 1.3005                 1.2372
 Frc consts  --      1.6082                 1.5533                 1.4952
 IR Inten    --      8.2726                 4.2273                 6.9241

                     67                     68                     69
                      A                      A                      A
 Frequencies --   1438.0885              1480.7502              1483.0405
 Red. masses --      1.3236                 1.1754                 1.1183
 Frc consts  --      1.6128                 1.5185                 1.4491
 IR Inten    --     16.2199                 9.6025                11.0775

                     70                     71                     72
                      A                      A                      A
 Frequencies --   1493.5569              1497.4557              1510.1018
 Red. masses --      1.0775                 1.0568                 1.1580
 Frc consts  --      1.4162                 1.3962                 1.5559
 IR Inten    --     18.0563                 3.9612                29.5525

                     73                     74                     75
                      A                      A                      A
 Frequencies --   1515.5168              1517.6170              1524.7267
 Red. masses --      1.0603                 1.0709                 1.0674
 Frc consts  --      1.4348                 1.4532                 1.4620
 IR Inten    --      7.9012                 8.5006                 2.5359

                     76                     77                     78
                      A                      A                      A
 Frequencies --   1525.2570              1530.5135              1532.4933
 Red. masses --      1.0879                 1.0497                 1.0577
 Frc consts  --      1.4911                 1.4488                 1.4635
 IR Inten    --      4.4463                 4.8414                14.7436

                     79                     80                     81
                      A                      A                      A
 Frequencies --   1534.9486              1538.5227              2898.5790
 Red. masses --      1.0484                 1.1004                 1.0807
 Frc consts  --      1.4553                 1.5347                 5.3499
 IR Inten    --      4.1081                14.9603                30.3619

                     82                     83                     84
                      A                      A                      A
 Frequencies --   2911.5160              2938.8842              3035.2651
 Red. masses --      1.0737                 1.0623                 1.0822
 Frc consts  --      5.3624                 5.4056                 5.8743
 IR Inten    --     85.4270               134.6541                 7.3147

                     85                     86                     87
                      A                      A                      A
 Frequencies --   3044.6948              3050.9491              3062.0121
 Red. masses --      1.0388                 1.0353                 1.0624
 Frc consts  --      5.6735                 5.6781                 5.8688
 IR Inten    --     15.6107                18.2807                17.7740

                     88                     89                     90
                      A                      A                      A
 Frequencies --   3067.2366              3075.9358              3087.9789
 Red. masses --      1.0300                 1.0647                 1.0706
 Frc consts  --      5.7094                 5.9354                 6.0147
 IR Inten    --      9.1884                22.4634                36.1552

                     91                     92                     93
                      A                      A                      A
 Frequencies --   3093.6505              3109.7616              3115.6191
 Red. masses --      1.0837                 1.1018                 1.0890
 Frc consts  --      6.1111                 6.2777                 6.2280
 IR Inten    --     22.1243                30.1792                22.8534

                     94                     95                     96
                      A                      A                      A
 Frequencies --   3119.3636              3121.3923              3124.5571
 Red. masses --      1.1024                 1.1034                 1.1033
 Frc consts  --      6.3203                 6.3338                 6.3462
 IR Inten    --     36.5737                 6.5306                68.4130

                     97                     98                     99
                      A                      A                      A
 Frequencies --   3131.6529              3131.9786              3133.2618
 Red. masses --      1.1022                 1.1022                 1.1012
 Frc consts  --      6.3691                 6.3701                 6.3697
 IR Inten    --     28.0228                24.8945                 7.3382

                    100                    101                    102
                      A                      A                      A
 Frequencies --   3161.0842              3192.4745              3486.8107
 Red. masses --      1.1051                 1.1063                 1.0732
 Frc consts  --      6.5064                 6.6432                 7.6875
 IR Inten    --      6.2983                 0.9151                 0.7703

 - Thermochemistry -
 -------------------
 Temperature   298.150 Kelvin.  Pressure   1.00000 Atm.
 Atom     1 has atomic number  6 and mass  12.00000

 Molecular mass:   218.14529 amu.
 Principal axes and moments of inertia in atomic units:
                           1         2         3
     Eigenvalues --  1712.961906154.069897153.86112
           X            0.99995   0.00980   0.00152
           Y           -0.00980   0.99995  -0.00005
           Z           -0.00152   0.00004   1.00000
 This molecule is an asymmetric top.
 Rotational symmetry number  1.
 Warning -- assumption of classical behavior for rotation
           may cause significant error
 Rotational temperatures (Kelvin)      0.05056     0.01407     0.01211
 Rotational constants (GHZ):           1.05358     0.29326     0.25228
 Zero-point vibrational energy     845519.2 (Joules/Mol)
                                  202.08394 (Kcal/Mol)
 Warning -- explicit consideration of  25 degrees of freedom as
           vibrations may cause significant error
 Vibrational temperatures:     25.48    44.22    54.05    96.35   151.84
          (Kelvin)            165.27   202.76   301.27   329.57   332.92
                              339.92   366.14   377.96   403.49   422.24
                              451.51   481.13   503.38   515.04   579.93
                              598.55   674.42   716.67   750.37   836.18
                              944.80  1038.06  1049.33  1092.28  1135.06
                             1237.29  1261.81  1279.13  1315.70  1341.45
                             1368.16  1387.50  1400.71  1419.24  1478.46
                             1500.15  1533.65  1541.57  1574.32  1577.05
                             1607.53  1644.49  1658.08  1674.73  1710.93
                             1728.15  1750.54  1809.06  1824.92  1832.48
                             1844.44  1870.40  1903.38  1931.07  1938.05
                             1972.47  1981.72  2006.57  2026.83  2048.56
                             2060.68  2069.09  2130.47  2133.76  2148.90
                             2154.50  2172.70  2180.49  2183.51  2193.74
                             2194.50  2202.07  2204.92  2208.45  2213.59
                             4170.41  4189.02  4228.40  4367.07  4380.64
                             4389.64  4405.55  4413.07  4425.59  4442.91
                             4451.07  4474.25  4482.68  4488.07  4490.99
                             4495.54  4505.75  4506.22  4508.06  4548.10
                             4593.26  5016.74

 Zero-point correction=                           0.322041 (Hartree/Particle)
 Thermal correction to Energy=                    0.338720
 Thermal correction to Enthalpy=                  0.339664
 Thermal correction to Gibbs Free Energy=         0.276328
 Sum of electronic and zero-point Energies=           -976.907945
 Sum of electronic and thermal Energies=              -976.891267
 Sum of electronic and thermal Enthalpies=            -976.890323
 Sum of electronic and thermal Free Energies=         -976.953658

                     E (Thermal)             CV                S
                      KCal/Mol        Cal/Mol-Kelvin    Cal/Mol-Kelvin
 Total                  212.550             62.272            133.301
 Electronic               0.000              0.000              0.000
 Translational            0.889              2.981             42.043
 Rotational               0.889              2.981             32.689
 Vibrational            210.772             56.311             58.569
 Vibration     1          0.593              1.986              6.876
 Vibration     2          0.594              1.984              5.782
 Vibration     3          0.594              1.982              5.384
 Vibration     4          0.598              1.970              4.241
 Vibration     5          0.605              1.945              3.349
 Vibration     6          0.608              1.937              3.185
 Vibration     7          0.615              1.912              2.791
 Vibration     8          0.642              1.826              2.049
 Vibration     9          0.652              1.797              1.886
 Vibration    10          0.653              1.793              1.868
 Vibration    11          0.655              1.785              1.831
 Vibration    12          0.665              1.755              1.699
 Vibration    13          0.670              1.741              1.644
 Vibration    14          0.680              1.710              1.531
 Vibration    15          0.688              1.686              1.454
 Vibration    16          0.702              1.647              1.342
 Vibration    17          0.716              1.607              1.239
 Vibration    18          0.727              1.576              1.167
 Vibration    19          0.733              1.559              1.131
 Vibration    20          0.768              1.463              0.951
 Vibration    21          0.779              1.435              0.906
 Vibration    22          0.826              1.319              0.741
 Vibration    23          0.854              1.254              0.663
 Vibration    24          0.877              1.202              0.606
 Vibration    25          0.938              1.072              0.483

 Optimization completed.
    -- Stationary point found.
 Normal termination of Gaussian 16 at Thu Dec 10 09:43:17 2020.

 ----------------------------------------------------------------------
 # B3LYP/6-311++G(d,p) empiricaldispersion=gd3bj scf=xqc pop=npa geom=c
 heck
 ----------------------------------------------------------------------

 ---------------------------------------
 CID_104530793_JID_4202_Energie_neutraal
 ---------------------------------------
 Structure from the checkpoint file:  "JID_4202.chk"
 Charge =  0 Multiplicity = 1

 SCF Done:  E(RB3LYP) =  -977.428055597     A.U. after   15 cycles
 Normal termination of Gaussian 16 at Thu Dec 10 09:48:23 2020.

 ----------------------------------------------------------------------
 # B3LYP/6-311++G(d,p) empiricaldispersion=gd3bj scf=xqc pop=npa geom=c
 heck
 ----------------------------------------------------------------------

 -------------------------------------
 CID_104530793_JID_4202_Energie_kation
 -------------------------------------
 Structure from the checkpoint file:  "JID_4202.chk"
 Charge =  1 Multiplicity = 2

 SCF Done:  E(UB3LYP) =  -977.146931398     A.U. after   25 cycles
 Normal termination of Gaussian 16 at Thu Dec 10 09:59:38 2020.
 Gaussian 16:  ES64L-G16RevA.03 25-Dec-2016

 ----------------------------------------------------------------------
 # B3LYP/6-311++G(d,p) empiricaldispersion=gd3bj scf=xqc pop=npa geom=c
 heck
 ----------------------------------------------------------------------

 ------------------------------------
 CID_104530793_JID_4202_Energie_anion
 ------------------------------------
 Structure from the checkpoint file:  "JID_4202.chk"
 Charge = -1 Multiplicity = 2

                         Standard orientation:
 ---------------------------------------------------------------------
 Center     Atomic      Atomic             Coordinates (Angstroms)
 Number     Number       Type             X           Y           Z
 ---------------------------------------------------------------------
      1          6           0       -3.910823    0.652691    1.297765
      2          6           0       -3.254263    0.268467   -0.023459
      3          6           0       -2.174451    1.273133   -0.495890
      4          6           0       -0.995109    0.397745   -1.027640
      5          6           0       -1.649360   -0.986047   -1.120070
      6          7           0       -2.519993   -1.003493    0.052612
      7          6           0       -3.361939   -2.182021    0.130753
      8          7           0        0.175653    0.317987   -0.153416
      9          6           0        1.181891    1.373972   -0.260503
     10          6           0        0.758415    2.772498    0.223389
     11          6           0        2.441653    0.914723    0.474882
     12         16           0        3.163623   -0.625795   -0.267754
     13          8           0        4.641113   -0.620087    0.071258
     14          6           0        2.366929   -1.836944    0.852796
     15          1           0       -4.685092   -0.062463    1.594861
     16          1           0       -4.384713    1.637142    1.216096
     17          1           0       -3.158069    0.693510    2.093055
     18          1           0       -4.039916    0.195294   -0.803514
     19          1           0       -2.571217    1.943502   -1.264864
     20          1           0       -1.840933    1.896875    0.337521
     21          1           0       -0.643415    0.735572   -2.007045
     22          1           0       -0.912051   -1.792334   -1.084026
     23          1           0       -2.229528   -1.080861   -2.061477
     24          1           0       -4.050489   -2.271254   -0.732877
     25          1           0       -2.734774   -3.078988    0.160279
     26          1           0       -3.961845   -2.162245    1.045326
     27          1           0       -0.134807    0.207863    0.811075
     28          1           0        1.431334    1.445614   -1.328149
     29          1           0        0.457072    2.745907    1.278049
     30          1           0        1.586260    3.484383    0.127846
     31          1           0       -0.082393    3.156905   -0.361539
     32          1           0        3.251306    1.642797    0.369285
     33          1           0        2.260738    0.761351    1.545791
     34          1           0        2.662522   -1.617149    1.883095
     35          1           0        1.286100   -1.774548    0.719064
     36          1           0        2.739762   -2.824215    0.569620
 ---------------------------------------------------------------------

 SCF Done:  E(UB3LYP) =  -977.416995936     A.U. after   29 cycles

 The electronic state is 2-A.
 Alpha  occ. eigenvalues --  -88.85530 -18.98834 -14.21147 -14.20972 -10.12638
 Alpha  occ. eigenvalues --  -10.11076 -10.11071 -10.10453 -10.10317 -10.09587
 Alpha  occ. eigenvalues --  -10.09275 -10.07352 -10.06979 -10.06255  -7.93224
 Alpha  occ. eigenvalues --   -5.89493  -5.89368  -5.88808  -0.91844  -0.85280
 Alpha  occ. eigenvalues --   -0.81986  -0.71607  -0.68221  -0.67263  -0.64534
 Alpha  occ. eigenvalues --   -0.61505  -0.58474  -0.56695  -0.52722  -0.50729
 Alpha  occ. eigenvalues --   -0.49333  -0.46737  -0.41323  -0.40753  -0.37972
 Alpha  occ. eigenvalues --   -0.37688  -0.37279  -0.36342  -0.35269  -0.34224
 Alpha  occ. eigenvalues --   -0.33519  -0.33165  -0.32601  -0.31591  -0.30602
 Alpha  occ. eigenvalues --   -0.30247  -0.29698  -0.28585  -0.28182  -0.27225
 Alpha  occ. eigenvalues --   -0.26767  -0.25864  -0.25619  -0.25491  -0.23989
 Alpha  occ. eigenvalues --   -0.23211  -0.17880  -0.14764  -0.14010  -0.12733
 Alpha  occ. eigenvalues --    0.04046
 Alpha virt. eigenvalues --    0.06018   0.06413   0.06834   0.07764   0.08558
 Alpha virt. eigenvalues --    0.08857   0.09028   0.09412   0.10251   0.10520
 Alpha virt. eigenvalues --    0.11044   0.11114   0.11306   0.11803   0.12257

  Beta  occ. eigenvalues --  -88.85527 -18.98830 -14.21126 -14.20965 -10.12631
  Beta  occ. eigenvalues --  -10.11065 -10.11062 -10.10438 -10.10306 -10.09575
  Beta  occ. eigenvalues --  -10.09246 -10.07316 -10.06957 -10.06222  -7.93221
  Beta  occ. eigenvalues --   -5.89490  -5.89366  -5.88800  -0.91835  -0.85255
  Beta  occ. eigenvalues --   -0.81966  -0.71586  -0.68191  -0.67234  -0.64501
  Beta  occ. eigenvalues --   -0.61461  -0.58416  -0.56634  -0.52679  -0.50694
  Beta  occ. eigenvalues --   -0.49299  -0.46664  -0.41272  -0.40725  -0.37939
  Beta  occ. eigenvalues --   -0.37652  -0.37250  -0.36312  -0.35243  -0.34199
  Beta  occ. eigenvalues --   -0.33483  -0.33127  -0.32567  -0.31564  -0.30577
  Beta  occ. eigenvalues --   -0.30215  -0.29664  -0.28560  -0.28145  -0.27198
  Beta  occ. eigenvalues --   -0.26728  -0.25829  -0.25584  -0.25456  -0.23951
  Beta  occ. eigenvalues --   -0.23175  -0.17874  -0.14732  -0.13973  -0.12657
  Beta virt. eigenvalues --    0.06177   0.06744   0.07016   0.07350   0.08262
  Beta virt. eigenvalues --    0.08904   0.09225   0.09402   0.09845   0.10532
  Beta virt. eigenvalues --    0.10873   0.11163   0.11358   0.11570   0.11927

 Mulliken charges and spin densities:
               1          2
     1  C    0.733981  -1.392434
     2  C   -1.040381   0.899126
     3  C    0.737377  -1.235707
     4  C   -1.502594   1.499801
     5  C    0.768919  -1.340045
     6  N    0.146460   0.118745
     7  C    0.716302  -1.022015
     8  N    0.304018  -0.219318
     9  C   -1.209931   1.148693
    10  C    1.333948  -1.981264
    11  C   -0.719014  -0.064679
    12  S    0.811450   0.133795
    13  O   -0.487835   0.005690
    14  C   -0.291589  -0.419101
    15  H   -0.149823   0.283674
    16  H   -0.232945   0.376020
    17  H   -0.358710   0.501042
    18  H   -0.101503   0.257302
    19  H   -0.337021   0.497253
    20  H    0.397744  -0.220241
    21  H   -0.118471   0.341950
    22  H    0.161811  -0.020794
    23  H   -0.035769   0.145533
    24  H   -0.158474   0.269957
    25  H   -0.152080   0.289214
    26  H   -0.212440   0.337930
    27  H    0.732410  -0.426310
    28  H    0.066418   0.053681
    29  H   -0.322785   0.500943
    30  H   -0.281934   0.421744
    31  H   -0.283067   0.449729
    32  H    0.195302   0.046465
    33  H    0.028846   0.158872
    34  H    0.128314   0.071561
    35  H   -0.286875   0.369044
    36  H    0.019945   0.164142
 Sum of Mulliken charges =  -1.00000   1.00000

 Dipole moment (field-independent basis, Debye):
    X=              2.4850    Y=             -2.0499    Z=             -1.2427  Tot=              3.4527
 Quadrupole moment (field-independent basis, Debye-Ang):
   XX=           -198.3854   YY=           -151.0692   ZZ=           -131.7068
   XY=              2.8366   XZ=              2.1260   YZ=             -0.1891

 Summary of Natural Population Analysis:

                                       Natural Population
                Natural  -----------------------------------------------
    Atom  No    Charge         Core      Valence    Rydberg      Total
 -----------------------------------------------------------------------
      C    1   -0.28643      0.99964     2.28094    0.00586     3.28643
      C    2   -0.00545      0.99961     1.99293    0.01292     3.00545
      C    3   -0.20051      0.99960     2.19204    0.00887     3.20051
      C    4   -0.01206      0.99959     1.99865    0.01382     3.01206
      C    5   -0.08255      0.99960     2.07152    0.01143     3.08255
      N    6   -0.28266      0.99970     2.77057    0.01239     3.78266
      C    7   -0.17616      0.99965     2.16797    0.00855     3.17616
      N    8   -0.35539      0.99973     2.84279    0.01287     3.85539
      C    9   -0.01667      0.99959     2.00403    0.01305     3.01667
      C   10   -0.29476      0.99964     2.28884    0.00627     3.29476
      C   11   -0.27215      0.99956     2.25947    0.01313     3.27215
      S   12    0.58819      4.99947     2.35896    0.05338     7.41181
      O   13   -0.49051      0.99993     3.48442    0.00616     4.49051
      C   14   -0.37944      0.99962     2.37213    0.00769     3.37944
      H   15    0.09961      0.00000     0.39917    0.00122     0.40039
      H   16    0.10193      0.00000     0.39707    0.00100     0.39807
      H   17    0.10051      0.00000     0.39784    0.00165     0.39949
      H   18    0.07864      0.00000     0.41900    0.00236     0.42136
      H   19    0.10528      0.00000     0.39321    0.00151     0.39472
      H   20    0.10286      0.00000     0.39531    0.00183     0.39714
      H   21    0.09679      0.00000     0.40162    0.00160     0.40321
      H   22    0.10027      0.00000     0.39794    0.00179     0.39973
      H   23    0.08082      0.00000     0.41779    0.00140     0.41918
      H   24    0.08024      0.00000     0.41835    0.00142     0.41976
      H   25    0.09621      0.00000     0.40261    0.00118     0.40379
      H   26    0.09761      0.00000     0.40106    0.00132     0.40239
      H   27    0.17571      0.00000     0.31993    0.00436     0.32429
      H   28    0.09159      0.00000     0.40585    0.00257     0.40841
      H   29    0.10019      0.00000     0.39829    0.00152     0.39981
      H   30    0.10088      0.00000     0.39800    0.00112     0.39912
      H   31    0.10560      0.00000     0.39308    0.00132     0.39440
      H   32    0.11470      0.00000     0.38420    0.00110     0.38530
      H   33    0.10428      0.00000     0.39426    0.00146     0.39572
      H   34    0.10632      0.00000     0.39250    0.00118     0.39368
      H   35    0.11922      0.00000     0.37844    0.00234     0.38078
      H   36    0.10730      0.00000     0.39146    0.00124     0.39270
 =======================================================================
   * Total *   -0.00000     17.99492    41.78222    0.22286    60.00000

 Normal termination of Gaussian 16 at Thu Dec 10 10:13:02 2020.
