 Gaussian 16, Revision A.03,

 -----------------------------------------------------------
 # opt freq B3LYP/6-31G(d) empiricaldispersion=gd3bj scf=xqc
 -----------------------------------------------------------

 -------------------------------
 CID_151094786_JID_3405_neutraal
 -------------------------------
 Symbolic Z-matrix:
 Charge =  0 Multiplicity = 1

 SCF Done:  E(RB3LYP) =  -615.199596379     A.U. after   15 cycles
 SCF Done:  E(RB3LYP) =  -615.201251366     A.U. after   14 cycles
 SCF Done:  E(RB3LYP) =  -615.201505110     A.U. after   13 cycles
 SCF Done:  E(RB3LYP) =  -615.202781842     A.U. after   12 cycles
 SCF Done:  E(RB3LYP) =  -615.202131240     A.U. after   13 cycles
 SCF Done:  E(RB3LYP) =  -615.202912253     A.U. after   13 cycles
 SCF Done:  E(RB3LYP) =  -615.202936720     A.U. after   11 cycles
 SCF Done:  E(RB3LYP) =  -615.202944660     A.U. after   11 cycles
 SCF Done:  E(RB3LYP) =  -615.202947143     A.U. after    8 cycles
 SCF Done:  E(RB3LYP) =  -615.202947833     A.U. after    8 cycles
 SCF Done:  E(RB3LYP) =  -615.202947961     A.U. after    7 cycles
 SCF Done:  E(RB3LYP) =  -615.202948090     A.U. after    7 cycles
 SCF Done:  E(RB3LYP) =  -615.202948165     A.U. after    7 cycles
 Optimization completed.
    -- Stationary point found.
 Normal termination of Gaussian 16 at Wed Dec  9 23:08:46 2020.

 --------------------------------------------------------------------
 #N Geom=AllCheck Guess=TCheck SCRF=Check GenChk RB3LYP/6-31G(d) Freq
 --------------------------------------------------------------------

 Structure from the checkpoint file:  "JID_3405.chk"
 -------------------------------
 CID_151094786_JID_3405_neutraal
 -------------------------------
 Charge =  0 Multiplicity = 1

 SCF Done:  E(RB3LYP) =  -615.202948165     A.U. after    1 cycles

  Exact polarizability: 145.146  -5.581 106.042  -1.815   0.475  80.600
 Approx polarizability: 184.988  -6.778 171.249  -2.084  -4.735 123.252

                      1                      2                      3
                      A                      A                      A
 Frequencies --     30.9284                37.2518                76.7314
 Red. masses --      4.8590                 4.3453                 3.5209
 Frc consts  --      0.0027                 0.0036                 0.0122
 IR Inten    --      3.5764                 0.8015                 0.9158

                      4                      5                      6
                      A                      A                      A
 Frequencies --    110.6156               138.0269               167.8926
 Red. masses --      2.2635                 1.3519                 4.7119
 Frc consts  --      0.0163                 0.0152                 0.0783
 IR Inten    --      0.8927                 0.3466                 0.5907

                      7                      8                      9
                      A                      A                      A
 Frequencies --    189.6263               217.5290               232.8387
 Red. masses --      2.6628                 2.0698                 3.0055
 Frc consts  --      0.0564                 0.0577                 0.0960
 IR Inten    --      2.6319                 0.4258                 1.5245

                     10                     11                     12
                      A                      A                      A
 Frequencies --    251.3360               290.4400               333.7959
 Red. masses --      1.5059                 4.3930                 4.2278
 Frc consts  --      0.0560                 0.2183                 0.2775
 IR Inten    --      0.4255                 4.1804                25.8038

                     13                     14                     15
                      A                      A                      A
 Frequencies --    361.5319               370.3916               377.8842
 Red. masses --      2.1565                 2.6926                 3.3340
 Frc consts  --      0.1661                 0.2176                 0.2805
 IR Inten    --      0.8912                 3.5144                 7.0689

                     16                     17                     18
                      A                      A                      A
 Frequencies --    436.7213               448.4540               533.9376
 Red. masses --      2.7672                 5.0278                 3.9749
 Frc consts  --      0.3110                 0.5958                 0.6677
 IR Inten    --      0.6897                 5.6534                 0.0828

                     19                     20                     21
                      A                      A                      A
 Frequencies --    629.9524               670.7010               763.1470
 Red. masses --      3.7778                 5.9109                 2.1926
 Frc consts  --      0.8833                 1.5666                 0.7524
 IR Inten    --      9.3481                39.5472                 1.5547

                     22                     23                     24
                      A                      A                      A
 Frequencies --    782.4566               791.4530               825.6021
 Red. masses --      3.0947                 3.9167                 3.8716
 Frc consts  --      1.1163                 1.4455                 1.5548
 IR Inten    --      4.5714                23.8350                15.8703

                     25                     26                     27
                      A                      A                      A
 Frequencies --    854.2478               905.4085               924.5938
 Red. masses --      1.8639                 2.9103                 2.3852
 Frc consts  --      0.8014                 1.4056                 1.2014
 IR Inten    --      9.0022                18.7028                 6.9172

                     28                     29                     30
                      A                      A                      A
 Frequencies --    945.7459               979.0718               991.6476
 Red. masses --      2.0067                 1.8383                 1.7190
 Frc consts  --      1.0575                 1.0382                 0.9960
 IR Inten    --     12.7741                 1.0660                 1.4420

                     31                     32                     33
                      A                      A                      A
 Frequencies --   1006.6284              1036.3052              1065.5838
 Red. masses --      2.8978                 2.2146                 2.4075
 Frc consts  --      1.7301                 1.4013                 1.6106
 IR Inten    --      4.0489                27.5012                65.0580

                     34                     35                     36
                      A                      A                      A
 Frequencies --   1092.8232              1131.0147              1141.6174
 Red. masses --      1.5637                 1.9245                 1.4333
 Frc consts  --      1.1003                 1.4505                 1.1006
 IR Inten    --      5.3332                14.2363                12.5098

                     37                     38                     39
                      A                      A                      A
 Frequencies --   1184.3730              1192.5591              1204.9628
 Red. masses --      1.2914                 2.9880                 1.1523
 Frc consts  --      1.0673                 2.5037                 0.9857
 IR Inten    --      6.1434               280.5859                 1.2301

                     40                     41                     42
                      A                      A                      A
 Frequencies --   1225.0739              1250.2405              1275.5292
 Red. masses --      1.7149                 1.4537                 1.2857
 Frc consts  --      1.5164                 1.3388                 1.2324
 IR Inten    --    101.7417                40.6706                 4.8555

                     43                     44                     45
                      A                      A                      A
 Frequencies --   1336.1563              1345.1577              1361.8526
 Red. masses --      1.4282                 4.3372                 1.4715
 Frc consts  --      1.5022                 4.6239                 1.6079
 IR Inten    --     10.4526                81.5992                 1.3041

                     46                     47                     48
                      A                      A                      A
 Frequencies --   1384.3164              1399.1774              1401.9541
 Red. masses --      1.7224                 1.6225                 1.3495
 Frc consts  --      1.9447                 1.8714                 1.5627
 IR Inten    --      1.6318                 2.0441                 2.4272

                     49                     50                     51
                      A                      A                      A
 Frequencies --   1421.4371              1443.8865              1491.7258
 Red. masses --      1.8139                 1.2697                 1.1285
 Frc consts  --      2.1593                 1.5596                 1.4796
 IR Inten    --      2.9470                 7.9721                12.0015

                     52                     53                     54
                      A                      A                      A
 Frequencies --   1492.0699              1506.1819              1513.2334
 Red. masses --      1.1887                 1.0786                 1.0481
 Frc consts  --      1.5592                 1.4416                 1.4140
 IR Inten    --      0.5376                 5.4466                 7.0986

                     55                     56                     57
                      A                      A                      A
 Frequencies --   1520.7908              1522.2701              1531.4324
 Red. masses --      1.0770                 1.0466                 1.0659
 Frc consts  --      1.4676                 1.4289                 1.4729
 IR Inten    --      3.8174                 9.1494                 5.5742

                     58                     59                     60
                      A                      A                      A
 Frequencies --   1539.1440              1684.1897              1775.5195
 Red. masses --      1.0547                 7.0967                11.4940
 Frc consts  --      1.4721                11.8602                21.3486
 IR Inten    --      2.3055               169.6285                97.6683

                     61                     62                     63
                      A                      A                      A
 Frequencies --   1807.8974              3007.8868              3033.9229
 Red. masses --     11.6748                 1.0685                 1.0694
 Frc consts  --     22.4826                 5.6955                 5.7994
 IR Inten    --    199.2475                19.4095                 9.0460

                     64                     65                     66
                      A                      A                      A
 Frequencies --   3045.6696              3047.5927              3049.6176
 Red. masses --      1.0657                 1.0656                 1.0769
 Frc consts  --      5.8244                 5.8311                 5.9008
 IR Inten    --     53.1428                14.8771                54.2542

                     67                     68                     69
                      A                      A                      A
 Frequencies --   3052.8971              3077.4016              3078.4687
 Red. masses --      1.0633                 1.0980                 1.0302
 Frc consts  --      5.8391                 6.1266                 5.7523
 IR Inten    --     14.6573                17.5121                29.3177

                     70                     71                     72
                      A                      A                      A
 Frequencies --   3091.3741              3112.7127              3120.8957
 Red. masses --      1.0991                 1.1025                 1.1016
 Frc consts  --      6.1888                 6.2938                 6.3217
 IR Inten    --     35.2992                29.9009                38.7997

                     73                     74                     75
                      A                      A                      A
 Frequencies --   3153.7165              3185.7763              3191.8564
 Red. masses --      1.1076                 1.0891                 1.1070
 Frc consts  --      6.4903                 6.5126                 6.6449
 IR Inten    --     18.7108                 3.1626                15.1681

 - Thermochemistry -
 -------------------
 Temperature   298.150 Kelvin.  Pressure   1.00000 Atm.
 Atom     1 has atomic number  6 and mass  12.00000

 Molecular mass:   182.09429 amu.
 Principal axes and moments of inertia in atomic units:
                           1         2         3
     Eigenvalues --  1043.188644222.522394740.20850
           X            0.99997  -0.00538  -0.00626
           Y            0.00543   0.99995   0.00792
           Z            0.00622  -0.00795   0.99995
 This molecule is an asymmetric top.
 Rotational symmetry number  1.
 Warning -- assumption of classical behavior for rotation
           may cause significant error
 Rotational temperatures (Kelvin)      0.08303     0.02051     0.01827
 Rotational constants (GHZ):           1.73002     0.42741     0.38073
 Zero-point vibrational energy     599358.1 (Joules/Mol)
                                  143.25003 (Kcal/Mol)
 Warning -- explicit consideration of  18 degrees of freedom as
           vibrations may cause significant error
 Vibrational temperatures:     44.50    53.60   110.40   159.15   198.59
          (Kelvin)            241.56   272.83   312.98   335.00   361.62
                              417.88   480.26   520.16   532.91   543.69
                              628.34   645.23   768.22   906.36   964.99
                             1098.00  1125.78  1138.72  1187.86  1229.07
                             1302.68  1330.28  1360.72  1408.67  1426.76
                             1448.31  1491.01  1533.14  1572.33  1627.28
                             1642.53  1704.05  1715.83  1733.67  1762.61
                             1798.82  1835.20  1922.43  1935.38  1959.40
                             1991.72  2013.10  2017.10  2045.13  2077.43
                             2146.26  2146.76  2167.06  2177.21  2188.08
                             2190.21  2203.39  2214.48  2423.17  2554.58
                             2601.16  4327.68  4365.14  4382.04  4384.81
                             4387.72  4392.44  4427.69  4429.23  4447.80
                             4478.50  4490.27  4537.49  4583.62  4592.37

 Zero-point correction=                           0.228283 (Hartree/Particle)
 Thermal correction to Energy=                    0.241552
 Thermal correction to Enthalpy=                  0.242496
 Thermal correction to Gibbs Free Energy=         0.187467
 Sum of electronic and zero-point Energies=           -614.974665
 Sum of electronic and thermal Energies=              -614.961396
 Sum of electronic and thermal Enthalpies=            -614.960452
 Sum of electronic and thermal Free Energies=         -615.015481

                     E (Thermal)             CV                S
                      KCal/Mol        Cal/Mol-Kelvin    Cal/Mol-Kelvin
 Total                  151.576             48.468            115.818
 Electronic               0.000              0.000              0.000
 Translational            0.889              2.981             41.505
 Rotational               0.889              2.981             31.413
 Vibrational            149.799             42.507             42.900
 Vibration     1          0.594              1.984              5.769
 Vibration     2          0.594              1.982              5.400
 Vibration     3          0.599              1.965              3.973
 Vibration     4          0.606              1.941              3.258
 Vibration     5          0.614              1.915              2.831
 Vibration     6          0.625              1.882              2.459
 Vibration     7          0.633              1.854              2.231
 Vibration     8          0.646              1.814              1.980
 Vibration     9          0.654              1.791              1.857
 Vibration    10          0.663              1.761              1.721
 Vibration    11          0.686              1.692              1.471
 Vibration    12          0.715              1.608              1.242
 Vibration    13          0.736              1.551              1.116
 Vibration    14          0.742              1.533              1.078
 Vibration    15          0.748              1.517              1.048
 Vibration    16          0.797              1.390              0.837
 Vibration    17          0.807              1.364              0.800
 Vibration    18          0.889              1.175              0.578

 Optimization completed.
    -- Stationary point found.
 Normal termination of Gaussian 16 at Wed Dec  9 23:15:08 2020.

 ----------------------------------------------------------------------
 # B3LYP/6-311++G(d,p) empiricaldispersion=gd3bj scf=xqc pop=npa geom=c
 heck
 ----------------------------------------------------------------------

 ---------------------------------------
 CID_151094786_JID_3405_Energie_neutraal
 ---------------------------------------
 Structure from the checkpoint file:  "JID_3405.chk"
 Charge =  0 Multiplicity = 1

 SCF Done:  E(RB3LYP) =  -615.379286313     A.U. after   15 cycles
 Normal termination of Gaussian 16 at Wed Dec  9 23:17:58 2020.

 ----------------------------------------------------------------------
 # B3LYP/6-311++G(d,p) empiricaldispersion=gd3bj scf=xqc pop=npa geom=c
 heck
 ----------------------------------------------------------------------

 -------------------------------------
 CID_151094786_JID_3405_Energie_kation
 -------------------------------------
 Structure from the checkpoint file:  "JID_3405.chk"
 Charge =  1 Multiplicity = 2

 SCF Done:  E(UB3LYP) =  -615.049297117     A.U. after   29 cycles
 Normal termination of Gaussian 16 at Wed Dec  9 23:25:54 2020.
 Gaussian 16:  ES64L-G16RevA.03 25-Dec-2016

 ----------------------------------------------------------------------
 # B3LYP/6-311++G(d,p) empiricaldispersion=gd3bj scf=xqc pop=npa geom=c
 heck
 ----------------------------------------------------------------------

 ------------------------------------
 CID_151094786_JID_3405_Energie_anion
 ------------------------------------
 Structure from the checkpoint file:  "JID_3405.chk"
 Charge = -1 Multiplicity = 2

                         Standard orientation:
 ---------------------------------------------------------------------
 Center     Atomic      Atomic             Coordinates (Angstroms)
 Number     Number       Type             X           Y           Z
 ---------------------------------------------------------------------
      1          6           0       -3.260207   -0.937868    1.180559
      2          6           0       -3.158807   -0.381308   -0.245937
      3          6           0       -2.097972   -1.118920   -1.080868
      4          6           0       -0.690917   -0.962360   -0.488748
      5          6           0       -0.399241    0.477179   -0.124374
      6          6           0       -1.371912    1.402728   -0.022332
      7          6           0       -2.829310    1.122955   -0.235694
      8          6           0        0.993704    0.932732    0.116582
      9          8           0        1.326702    2.094755    0.280931
     10          6           0        2.074815   -0.152424    0.255722
     11          8           0        1.933461   -1.146658    0.936457
     12          8           0        3.193052    0.175202   -0.401346
     13          6           0        4.287620   -0.745155   -0.240735
     14          1           0       -3.434544   -2.019971    1.169702
     15          1           0       -4.088445   -0.468681    1.723640
     16          1           0       -2.344026   -0.750433    1.751032
     17          1           0       -4.133791   -0.514964   -0.732058
     18          1           0       -2.349031   -2.183446   -1.157615
     19          1           0       -2.107071   -0.714664   -2.102054
     20          1           0       -0.567039   -1.596108    0.396723
     21          1           0        0.053957   -1.326205   -1.207913
     22          1           0       -1.077024    2.420819    0.223140
     23          1           0       -3.130739    1.585588   -1.189015
     24          1           0       -3.416144    1.642258    0.534736
     25          1           0        4.596318   -0.785477    0.806818
     26          1           0        3.995067   -1.746982   -0.565753
     27          1           0        5.090158   -0.353486   -0.864768
 ---------------------------------------------------------------------

 SCF Done:  E(UB3LYP) =  -615.396757047     A.U. after   29 cycles

 The electronic state is 2-A.
 Alpha  occ. eigenvalues --  -19.02182 -18.95051 -18.89935 -10.12527 -10.10405
 Alpha  occ. eigenvalues --  -10.05307 -10.04436 -10.04363 -10.04117 -10.03596
 Alpha  occ. eigenvalues --  -10.02630 -10.00417  -9.99477  -0.96051  -0.86745
 Alpha  occ. eigenvalues --   -0.84170  -0.70733  -0.62917  -0.60593  -0.60449
 Alpha  occ. eigenvalues --   -0.56224  -0.48958  -0.48301  -0.44657  -0.41286
 Alpha  occ. eigenvalues --   -0.36821  -0.35775  -0.35072  -0.33752  -0.32360
 Alpha  occ. eigenvalues --   -0.31920  -0.29831  -0.28658  -0.27785  -0.27012
 Alpha  occ. eigenvalues --   -0.25941  -0.25033  -0.24420  -0.23983  -0.23067
 Alpha  occ. eigenvalues --   -0.21729  -0.20633  -0.19656  -0.18491  -0.17024
 Alpha  occ. eigenvalues --   -0.16696  -0.14359  -0.09253  -0.06169   0.04788
 Alpha virt. eigenvalues --    0.07736   0.08457   0.09909   0.10173   0.11207
 Alpha virt. eigenvalues --    0.12031   0.12293   0.12491   0.12827   0.13843
 Alpha virt. eigenvalues --    0.14419   0.14686   0.15378   0.15653   0.16520

  Beta  occ. eigenvalues --  -19.02116 -18.94838 -18.89244 -10.12419 -10.10402
  Beta  occ. eigenvalues --  -10.05298 -10.04434 -10.04119 -10.03972 -10.03628
  Beta  occ. eigenvalues --  -10.02618 -10.00482  -9.99085  -0.95843  -0.86406
  Beta  occ. eigenvalues --   -0.82928  -0.70634  -0.62738  -0.60408  -0.60207
  Beta  occ. eigenvalues --   -0.56091  -0.48327  -0.47943  -0.44464  -0.40966
  Beta  occ. eigenvalues --   -0.36619  -0.35587  -0.34856  -0.33594  -0.32045
  Beta  occ. eigenvalues --   -0.31811  -0.29598  -0.28485  -0.27525  -0.26613
  Beta  occ. eigenvalues --   -0.25460  -0.24937  -0.24143  -0.23737  -0.22720
  Beta  occ. eigenvalues --   -0.21413  -0.20292  -0.18361  -0.17360  -0.16776
  Beta  occ. eigenvalues --   -0.15890  -0.13900  -0.07432  -0.05540
  Beta virt. eigenvalues --    0.07657   0.08391   0.09848   0.10060   0.11134
  Beta virt. eigenvalues --    0.11969   0.12157   0.12244   0.12588   0.12798
  Beta virt. eigenvalues --    0.13802   0.14369   0.14791   0.15519   0.16398

 Mulliken charges and spin densities:
               1          2
     1  C   -0.698625  -0.050441
     2  C    0.481425   0.154824
     3  C   -0.873651  -0.130956
     4  C   -0.540217  -0.078891
     5  C    1.242665  -0.166063
     6  C   -0.098688   0.573263
     7  C   -0.672281  -0.202721
     8  C   -0.400027   0.273378
     9  O   -0.400830   0.254540
    10  C   -0.284637   0.085174
    11  O   -0.301332   0.064607
    12  O   -0.014606  -0.000378
    13  C   -0.221641  -0.004623
    14  H    0.107534   0.002990
    15  H    0.107551   0.002504
    16  H    0.155356   0.017509
    17  H    0.057705   0.103566
    18  H    0.137181  -0.004839
    19  H    0.072487   0.049150
    20  H    0.206169  -0.001744
    21  H    0.163697  -0.004918
    22  H    0.183148  -0.021227
    23  H    0.072587   0.059498
    24  H    0.111584   0.010106
    25  H    0.150815   0.006414
    26  H    0.143928   0.000348
    27  H    0.112703   0.008929
 Sum of Mulliken charges =  -1.00000   1.00000

 Dipole moment (field-independent basis, Debye):
    X=             -1.9321    Y=             -4.1473    Z=             -1.3443  Tot=              4.7687
 Quadrupole moment (field-independent basis, Debye-Ang):
   XX=           -100.8382   YY=           -101.1872   ZZ=            -88.7188
   XY=             -5.8063   XZ=             -4.3316   YZ=              2.3352

 Summary of Natural Population Analysis:

                                       Natural Population
                Natural  -----------------------------------------------
    Atom  No    Charge         Core      Valence    Rydberg      Total
 -----------------------------------------------------------------------
      C    1   -0.28703      0.99966     2.28224    0.00513     3.28703
      C    2   -0.10977      0.99961     2.09906    0.01110     3.10977
      C    3   -0.18437      0.99963     2.17646    0.00828     3.18437
      C    4   -0.20038      0.99961     2.19349    0.00728     3.20038
      C    5   -0.08273      0.99945     2.07254    0.01074     3.08273
      C    6    0.00196      0.99949     1.98962    0.00893     2.99804
      C    7   -0.20551      0.99961     2.19739    0.00850     3.20551
      C    8    0.27355      0.99957     1.70538    0.02150     2.72645
      O    9   -0.22337      0.99988     3.21704    0.00645     4.22337
      C   10    0.39238      0.99968     1.58215    0.02578     2.60762
      O   11   -0.30822      0.99987     3.30084    0.00751     4.30822
      O   12   -0.26792      0.99986     3.25907    0.00900     4.26792
      C   13   -0.10921      0.99961     2.10059    0.00900     3.10921
      H   14    0.09146      0.00000     0.40764    0.00090     0.40854
      H   15    0.09247      0.00000     0.40658    0.00094     0.40753
      H   16    0.10652      0.00000     0.39255    0.00093     0.39348
      H   17    0.08552      0.00000     0.41214    0.00234     0.41448
      H   18    0.08938      0.00000     0.40933    0.00129     0.41062
      H   19    0.09375      0.00000     0.40482    0.00142     0.40625
      H   20    0.10406      0.00000     0.39453    0.00141     0.39594
      H   21    0.09833      0.00000     0.40035    0.00132     0.40167
      H   22    0.09835      0.00000     0.39961    0.00204     0.40165
      H   23    0.10041      0.00000     0.39789    0.00169     0.39959
      H   24    0.09518      0.00000     0.40351    0.00131     0.40482
      H   25    0.08632      0.00000     0.41239    0.00129     0.41368
      H   26    0.08580      0.00000     0.41278    0.00142     0.41420
      H   27    0.08305      0.00000     0.41607    0.00088     0.41695
 =======================================================================
   * Total *   -0.00000     12.99552    35.84608    0.15840    49.00000

 Normal termination of Gaussian 16 at Wed Dec  9 23:33:51 2020.
