 Gaussian 16, Revision A.03,

 -----------------------------------------------------------
 # opt freq B3LYP/6-31G(d) empiricaldispersion=gd3bj scf=xqc
 -----------------------------------------------------------

 -------------------------------
 CID_61534542_JID_10135_neutraal
 -------------------------------
 Symbolic Z-matrix:
 Charge =  0 Multiplicity = 1

 SCF Done:  E(RB3LYP) =  -953.587887702     A.U. after   15 cycles
 SCF Done:  E(RB3LYP) =  -953.593625422     A.U. after   13 cycles
 SCF Done:  E(RB3LYP) =  -953.594047190     A.U. after   12 cycles
 SCF Done:  E(RB3LYP) =  -953.594397696     A.U. after   13 cycles
 SCF Done:  E(RB3LYP) =  -953.594786353     A.U. after   12 cycles
 SCF Done:  E(RB3LYP) =  -953.595031013     A.U. after   12 cycles
 SCF Done:  E(RB3LYP) =  -953.595230976     A.U. after   12 cycles
 SCF Done:  E(RB3LYP) =  -953.595321182     A.U. after   12 cycles
 SCF Done:  E(RB3LYP) =  -953.595330090     A.U. after   12 cycles
 SCF Done:  E(RB3LYP) =  -953.595308421     A.U. after   10 cycles
 SCF Done:  E(RB3LYP) =  -953.596434574     A.U. after   10 cycles
 SCF Done:  E(RB3LYP) =  -953.596438031     A.U. after   10 cycles
 SCF Done:  E(RB3LYP) =  -953.596439153     A.U. after   10 cycles
 SCF Done:  E(RB3LYP) =  -953.596439389     A.U. after    9 cycles
 SCF Done:  E(RB3LYP) =  -953.596439460     A.U. after    8 cycles
 Optimization completed.
    -- Stationary point found.
 Normal termination of Gaussian 16 at Sat Dec 12 15:27:56 2020.

 --------------------------------------------------------------------
 #N Geom=AllCheck Guess=TCheck SCRF=Check GenChk RB3LYP/6-31G(d) Freq
 --------------------------------------------------------------------

 Structure from the checkpoint file:  "JID_10135.chk"
 -------------------------------
 CID_61534542_JID_10135_neutraal
 -------------------------------
 Charge =  0 Multiplicity = 1

 SCF Done:  E(RB3LYP) =  -953.596439460     A.U. after    1 cycles

  Exact polarizability: 223.082 -10.992 136.348  -0.049 -30.001 141.827
 Approx polarizability: 305.656 -13.940 225.782  -2.607 -83.626 251.760

                      1                      2                      3
                      A                      A                      A
 Frequencies --      9.8675                28.7044                43.4209
 Red. masses --      5.8084                 5.4719                 4.0934
 Frc consts  --      0.0003                 0.0027                 0.0045
 IR Inten    --      0.2643                 0.4971                 1.0304

                      4                      5                      6
                      A                      A                      A
 Frequencies --     54.7132                74.2168                78.9198
 Red. masses --      4.9726                 6.9999                 6.8280
 Frc consts  --      0.0088                 0.0227                 0.0251
 IR Inten    --      1.2382                 0.3769                 3.5135

                      7                      8                      9
                      A                      A                      A
 Frequencies --    106.3771               115.7074               132.3438
 Red. masses --      5.9224                 3.9070                 3.5982
 Frc consts  --      0.0395                 0.0308                 0.0371
 IR Inten    --      3.2636                 0.7711                 1.9547

                     10                     11                     12
                      A                      A                      A
 Frequencies --    167.3337               211.0272               226.2061
 Red. masses --      5.6568                 3.8347                 3.2677
 Frc consts  --      0.0933                 0.1006                 0.0985
 IR Inten    --      1.4179                 8.7174                 4.8216

                     13                     14                     15
                      A                      A                      A
 Frequencies --    250.7599               276.7083               309.0124
 Red. masses --      2.5792                 1.4583                 5.2873
 Frc consts  --      0.0956                 0.0658                 0.2975
 IR Inten    --      1.1817                 4.8397                 3.0064

                     16                     17                     18
                      A                      A                      A
 Frequencies --    312.5563               327.4331               362.8279
 Red. masses --      3.2183                 5.2921                 3.0309
 Frc consts  --      0.1852                 0.3343                 0.2351
 IR Inten    --      6.0356                 3.9310                 3.7070

                     19                     20                     21
                      A                      A                      A
 Frequencies --    412.6145               423.4045               432.7199
 Red. masses --      2.4004                 2.6502                 2.4846
 Frc consts  --      0.2408                 0.2799                 0.2741
 IR Inten    --     45.4303                18.7284                15.6331

                     22                     23                     24
                      A                      A                      A
 Frequencies --    438.7640               471.6175               501.0440
 Red. masses --      2.2178                 3.6978                 2.2120
 Frc consts  --      0.2516                 0.4846                 0.3272
 IR Inten    --     11.0540                15.4557                 9.7970

                     25                     26                     27
                      A                      A                      A
 Frequencies --    525.1412               536.0557               579.8676
 Red. masses --      2.6765                 3.4315                 4.2743
 Frc consts  --      0.4349                 0.5810                 0.8468
 IR Inten    --     10.1451                 4.8255                 3.0810

                     28                     29                     30
                      A                      A                      A
 Frequencies --    590.7604               609.8735               642.3573
 Red. masses --      3.0438                 2.7809                 3.6298
 Frc consts  --      0.6259                 0.6094                 0.8824
 IR Inten    --     14.5495                42.6905                 1.1896

                     31                     32                     33
                      A                      A                      A
 Frequencies --    646.4710               686.7825               741.4001
 Red. masses --      4.6028                 2.0163                 4.5335
 Frc consts  --      1.1334                 0.5603                 1.4682
 IR Inten    --     23.6152               115.7155                 8.9341

                     34                     35                     36
                      A                      A                      A
 Frequencies --    756.5061               759.4341               784.8817
 Red. masses --      4.2103                 1.3121                 2.4832
 Frc consts  --      1.4197                 0.4459                 0.9013
 IR Inten    --      6.7919                61.6627                 9.3314

                     37                     38                     39
                      A                      A                      A
 Frequencies --    801.2411               813.6350               828.3352
 Red. masses --      4.4466                 2.5753                 2.9842
 Frc consts  --      1.6819                 1.0045                 1.2064
 IR Inten    --      4.5375                 6.4120                12.3872

                     40                     41                     42
                      A                      A                      A
 Frequencies --    865.9317               869.8741               889.9006
 Red. masses --      1.5105                 4.5011                 4.0282
 Frc consts  --      0.6673                 2.0067                 1.8795
 IR Inten    --      0.3103                 8.6873                 4.7344

                     43                     44                     45
                      A                      A                      A
 Frequencies --    902.6946               937.8995               982.0501
 Red. masses --      4.0682                 1.3286                 1.3295
 Frc consts  --      1.9531                 0.6886                 0.7554
 IR Inten    --      5.0111                 1.1220                 7.7696

                     46                     47                     48
                      A                      A                      A
 Frequencies --    983.6088               995.0204              1016.3406
 Red. masses --      2.2799                 2.9185                 2.3787
 Frc consts  --      1.2996                 1.7025                 1.4477
 IR Inten    --     67.7916                24.3557                 8.1307

                     49                     50                     51
                      A                      A                      A
 Frequencies --   1045.2425              1069.1054              1119.8548
 Red. masses --      2.0961                 2.5594                 2.8836
 Frc consts  --      1.3493                 1.7236                 2.1307
 IR Inten    --     10.9603                47.4478                15.6995

                     52                     53                     54
                      A                      A                      A
 Frequencies --   1140.9011              1164.6860              1172.8478
 Red. masses --      1.5856                 1.4414                 2.4090
 Frc consts  --      1.2160                 1.1520                 1.9524
 IR Inten    --     15.4959                50.7747                56.2618

                     55                     56                     57
                      A                      A                      A
 Frequencies --   1185.2784              1192.8417              1200.3662
 Red. masses --      1.1753                 1.8638                 1.4732
 Frc consts  --      0.9728                 1.5625                 1.2507
 IR Inten    --     19.6883               114.3220                27.8734

                     58                     59                     60
                      A                      A                      A
 Frequencies --   1214.5180              1222.5496              1256.5654
 Red. masses --      1.6866                 2.1336                 2.1135
 Frc consts  --      1.4658                 1.8789                 1.9662
 IR Inten    --     56.9438               119.4894                15.4739

                     61                     62                     63
                      A                      A                      A
 Frequencies --   1276.0158              1286.0076              1308.4403
 Red. masses --      1.7522                 2.0172                 1.5758
 Frc consts  --      1.6809                 1.9656                 1.5895
 IR Inten    --     20.0851                 7.4999                37.4549

                     64                     65                     66
                      A                      A                      A
 Frequencies --   1343.7890              1352.0254              1364.0378
 Red. masses --      1.6694                 1.7161                 1.6111
 Frc consts  --      1.7762                 1.8483                 1.7661
 IR Inten    --     18.1608                40.3485                20.6406

                     67                     68                     69
                      A                      A                      A
 Frequencies --   1370.5742              1391.8887              1394.4387
 Red. masses --      1.8946                 4.4192                 2.1029
 Frc consts  --      2.0969                 5.0443                 2.4092
 IR Inten    --     18.1793                 2.4485                70.4870

                     70                     71                     72
                      A                      A                      A
 Frequencies --   1401.9388              1434.5809              1451.9628
 Red. masses --      1.8474                 1.2930                 2.2083
 Frc consts  --      2.1393                 1.5678                 2.7429
 IR Inten    --     11.6270                23.2505                48.6822

                     73                     74                     75
                      A                      A                      A
 Frequencies --   1462.5467              1498.8041              1500.2178
 Red. masses --      2.4260                 1.4468                 1.1146
 Frc consts  --      3.0575                 1.9149                 1.4780
 IR Inten    --    224.1276                30.0068                 2.6622

                     76                     77                     78
                      A                      A                      A
 Frequencies --   1501.4926              1512.6852              1525.7721
 Red. masses --      1.5303                 1.0846                 1.1113
 Frc consts  --      2.0327                 1.4622                 1.5243
 IR Inten    --      1.5519                 8.6522                 8.1116

                     79                     80                     81
                      A                      A                      A
 Frequencies --   1530.4622              1544.5014              1552.5772
 Red. masses --      1.1971                 2.9431                 1.0498
 Frc consts  --      1.6520                 4.1364                 1.4909
 IR Inten    --     22.2085                 1.4420                 9.0399

                     82                     83                     84
                      A                      A                      A
 Frequencies --   1585.2988              1636.2077              1681.0061
 Red. masses --      4.0995                 5.8311                 6.2815
 Frc consts  --      6.0702                 9.1976                10.4580
 IR Inten    --    138.4170                 2.5620                 2.3709

                     85                     86                     87
                      A                      A                      A
 Frequencies --   1721.3176              1848.9648              2956.9413
 Red. masses --     11.0026                10.1122                 1.0719
 Frc consts  --     19.2073                20.3681                 5.5219
 IR Inten    --    204.7614               234.4548                59.1252

                     88                     89                     90
                      A                      A                      A
 Frequencies --   2996.7111              3036.4092              3081.3765
 Red. masses --      1.0485                 1.0730                 1.0644
 Frc consts  --      5.5479                 5.8286                 5.9543
 IR Inten    --     55.3630                33.2392                17.2403

                     91                     92                     93
                      A                      A                      A
 Frequencies --   3090.9026              3093.4968              3122.8612
 Red. masses --      1.0869                 1.0895                 1.0990
 Frc consts  --      6.1178                 6.1428                 6.3146
 IR Inten    --     44.5066                41.8330                12.0168

                     94                     95                     96
                      A                      A                      A
 Frequencies --   3133.5806              3169.4784              3185.5957
 Red. masses --      1.1040                 1.0913                 1.0858
 Frc consts  --      6.3870                 6.4589                 6.4921
 IR Inten    --     39.3695                 6.5162                 0.1266

                     97                     98                     99
                      A                      A                      A
 Frequencies --   3195.7731              3209.2350              3242.4466
 Red. masses --      1.0906                 1.0957                 1.0929
 Frc consts  --      6.5625                 6.6490                 6.7698
 IR Inten    --     21.5330                31.2433                 2.6055

                    100                    101                    102
                      A                      A                      A
 Frequencies --   3297.0542              3666.4924              3692.4810
 Red. masses --      1.0960                 1.0802                 1.0641
 Frc consts  --      7.0195                 8.5560                 8.5485
 IR Inten    --      0.3276                71.4189                54.8178

 - Thermochemistry -
 -------------------
 Temperature   298.150 Kelvin.  Pressure   1.00000 Atm.
 Atom     1 has atomic number  6 and mass  12.00000

 Molecular mass:   276.11101 amu.
 Principal axes and moments of inertia in atomic units:
                           1         2         3
     Eigenvalues --  3215.067827954.966449229.39842
           X            0.99999  -0.00084   0.00460
           Y            0.00086   0.99999  -0.00470
           Z           -0.00459   0.00470   0.99998
 This molecule is an asymmetric top.
 Rotational symmetry number  1.
 Warning -- assumption of classical behavior for rotation
           may cause significant error
 Rotational temperatures (Kelvin)      0.02694     0.01089     0.00938
 Rotational constants (GHZ):           0.56134     0.22687     0.19554
 Zero-point vibrational energy     766492.3 (Joules/Mol)
                                  183.19606 (Kcal/Mol)
 Warning -- explicit consideration of  29 degrees of freedom as
           vibrations may cause significant error
 Vibrational temperatures:     14.20    41.30    62.47    78.72   106.78
          (Kelvin)            113.55   153.05   166.48   190.41   240.76
                              303.62   325.46   360.79   398.12   444.60
                              449.70   471.10   522.03   593.66   609.18
                              622.59   631.28   678.55   720.89   755.56
                              771.26   834.30   849.97   877.47   924.21
                              930.13   988.13  1066.71  1088.44  1092.66
                             1129.27  1152.81  1170.64  1191.79  1245.88
                             1251.55  1280.37  1298.78  1349.43  1412.95
                             1415.19  1431.61  1462.29  1503.87  1538.20
                             1611.22  1641.50  1675.72  1687.47  1705.35
                             1716.23  1727.06  1747.42  1758.98  1807.92
                             1835.90  1850.28  1882.55  1933.41  1945.26
                             1962.55  1971.95  2002.62  2006.29  2017.08
                             2064.04  2089.05  2104.28  2156.44  2158.48
                             2160.31  2176.42  2195.25  2201.99  2222.19
                             2233.81  2280.89  2354.14  2418.59  2476.59
                             2660.25  4254.38  4311.60  4368.72  4433.41
                             4447.12  4450.85  4493.10  4508.52  4560.17
                             4583.36  4598.00  4617.37  4665.16  4743.73
                             5275.26  5312.66

 Zero-point correction=                           0.291942 (Hartree/Particle)
 Thermal correction to Energy=                    0.310381
 Thermal correction to Enthalpy=                  0.311325
 Thermal correction to Gibbs Free Energy=         0.242641
 Sum of electronic and zero-point Energies=           -953.304498
 Sum of electronic and thermal Energies=              -953.286059
 Sum of electronic and thermal Enthalpies=            -953.285114
 Sum of electronic and thermal Free Energies=         -953.353798

                     E (Thermal)             CV                S
                      KCal/Mol        Cal/Mol-Kelvin    Cal/Mol-Kelvin
 Total                  194.767             69.445            144.558
 Electronic               0.000              0.000              0.000
 Translational            0.889              2.981             42.745
 Rotational               0.889              2.981             33.823
 Vibrational            192.989             63.483             67.990
 Vibration     1          0.593              1.987              8.038
 Vibration     2          0.593              1.984              5.917
 Vibration     3          0.595              1.980              5.097
 Vibration     4          0.596              1.976              4.639
 Vibration     5          0.599              1.966              4.038
 Vibration     6          0.600              1.963              3.918
 Vibration     7          0.605              1.944              3.334
 Vibration     8          0.608              1.936              3.171
 Vibration     9          0.612              1.921              2.912
 Vibration    10          0.624              1.883              2.465
 Vibration    11          0.643              1.824              2.035
 Vibration    12          0.650              1.801              1.909
 Vibration    13          0.663              1.761              1.725
 Vibration    14          0.678              1.717              1.554
 Vibration    15          0.698              1.657              1.368
 Vibration    16          0.701              1.650              1.349
 Vibration    17          0.711              1.621              1.273
 Vibration    18          0.737              1.549              1.110
 Vibration    19          0.776              1.443              0.917
 Vibration    20          0.786              1.419              0.880
 Vibration    21          0.794              1.399              0.850
 Vibration    22          0.799              1.386              0.830
 Vibration    23          0.829              1.313              0.733
 Vibration    24          0.856              1.248              0.656
 Vibration    25          0.880              1.194              0.598
 Vibration    26          0.891              1.170              0.574
 Vibration    27          0.937              1.075              0.486
 Vibration    28          0.948              1.051              0.466
 Vibration    29          0.969              1.011              0.433

                           ! Non-Optimized Parameters !
 Normal termination of Gaussian 16 at Sat Dec 12 15:47:37 2020.

 ----------------------------------------------------------------------
 # B3LYP/6-311++G(d,p) empiricaldispersion=gd3bj scf=xqc pop=npa geom=c
 heck
 ----------------------------------------------------------------------

 ---------------------------------------
 CID_61534542_JID_10135_Energie_neutraal
 ---------------------------------------
 Structure from the checkpoint file:  "JID_10135.chk"
 Charge =  0 Multiplicity = 1

 SCF Done:  E(RB3LYP) =  -953.873756999     A.U. after   16 cycles
 Normal termination of Gaussian 16 at Sat Dec 12 15:56:15 2020.

 ----------------------------------------------------------------------
 # B3LYP/6-311++G(d,p) empiricaldispersion=gd3bj scf=xqc pop=npa geom=c
 heck
 ----------------------------------------------------------------------

 -------------------------------------
 CID_61534542_JID_10135_Energie_kation
 -------------------------------------
 Structure from the checkpoint file:  "JID_10135.chk"
 Charge =  1 Multiplicity = 2

 SCF Done:  E(UB3LYP) =  -953.589560420     A.U. after   28 cycles
 Normal termination of Gaussian 16 at Sat Dec 12 16:18:39 2020.
 Gaussian 16:  ES64L-G16RevA.03 25-Dec-2016

 ----------------------------------------------------------------------
 # B3LYP/6-311++G(d,p) empiricaldispersion=gd3bj scf=xqc pop=npa geom=c
 heck
 ----------------------------------------------------------------------

 ------------------------------------
 CID_61534542_JID_10135_Energie_anion
 ------------------------------------
 Structure from the checkpoint file:  "JID_10135.chk"
 Charge = -1 Multiplicity = 2

                         Standard orientation:
 ---------------------------------------------------------------------
 Center     Atomic      Atomic             Coordinates (Angstroms)
 Number     Number       Type             X           Y           Z
 ---------------------------------------------------------------------
      1          6           0       -3.296168   -1.988989   -1.378813
      2          8           0       -4.294289   -1.668279   -0.424593
      3          6           0       -4.169370   -0.394839    0.165931
      4          6           0       -2.914324   -0.185481    1.025280
      5          7           0       -1.728158    0.225079    0.268186
      6          6           0       -1.690292    1.601811   -0.185408
      7          6           0       -0.593772    2.472757    0.418344
      8          8           0       -0.098994    3.419655   -0.149523
      9          8           0       -0.294286    2.113935    1.683048
     10          6           0       -0.615290   -0.600852    0.289328
     11          8           0       -0.644821   -1.681744    0.879388
     12          6           0        0.621736   -0.172890   -0.397989
     13          6           0        0.815473    0.579881   -1.539826
     14          7           0        2.155729    0.653951   -1.823643
     15          6           0        2.876603   -0.040969   -0.866091
     16          6           0        4.254763   -0.224742   -0.727916
     17          6           0        4.687591   -0.988136    0.349585
     18          6           0        3.770728   -1.553017    1.259344
     19          6           0        2.401824   -1.366871    1.116586
     20          6           0        1.937568   -0.593754    0.040998
     21          1           0       -2.339329   -2.234403   -0.904041
     22          1           0       -3.143060   -1.164812   -2.094478
     23          1           0       -3.657373   -2.865825   -1.923279
     24          1           0       -4.229891    0.394175   -0.606621
     25          1           0       -5.049407   -0.292233    0.810114
     26          1           0       -3.121354    0.583929    1.781512
     27          1           0       -2.665434   -1.111960    1.542516
     28          1           0       -1.626068    1.703766   -1.270935
     29          1           0       -2.639659    2.068634    0.098859
     30          1           0        0.410473    2.718874    1.981315
     31          1           0        0.106574    1.055813   -2.198429
     32          1           0        2.551965    1.167790   -2.595265
     33          1           0        4.958001    0.210257   -1.432494
     34          1           0        5.751580   -1.155262    0.489997
     35          1           0        4.145558   -2.150929    2.085025
     36          1           0        1.691126   -1.813010    1.801732
 ---------------------------------------------------------------------

 SCF Done:  E(UB3LYP) =  -953.869891312     A.U. after   33 cycles
 SCF Done:  E(UB3LYP) =  -953.869891312     a.u. after    1 cycles

 The electronic state is 2-A.
 Alpha  occ. eigenvalues --  -19.08732 -19.03535 -19.03065 -18.98331 -14.26012
 Alpha  occ. eigenvalues --  -14.24910 -10.22409 -10.17269 -10.13654 -10.13087
 Alpha  occ. eigenvalues --  -10.11434 -10.11091 -10.11079 -10.11017 -10.07832
 Alpha  occ. eigenvalues --  -10.07655 -10.07579 -10.07358 -10.07135 -10.06900
 Alpha  occ. eigenvalues --   -1.02804  -0.94859  -0.93900  -0.93712  -0.88662
 Alpha  occ. eigenvalues --   -0.84542  -0.74717  -0.69880  -0.67915  -0.65226
 Alpha  occ. eigenvalues --   -0.64292  -0.62998  -0.59937  -0.54864  -0.53914
 Alpha  occ. eigenvalues --   -0.52919  -0.50868  -0.49439  -0.46921  -0.44589
 Alpha  occ. eigenvalues --   -0.41803  -0.41006  -0.40451  -0.39637  -0.39431
 Alpha  occ. eigenvalues --   -0.38535  -0.38125  -0.37642  -0.36463  -0.35388
 Alpha  occ. eigenvalues --   -0.33998  -0.33738  -0.33428  -0.32679  -0.31704
 Alpha  occ. eigenvalues --   -0.31072  -0.30971  -0.30434  -0.29080  -0.28302
 Alpha  occ. eigenvalues --   -0.27861  -0.26408  -0.24688  -0.24571  -0.24066
 Alpha  occ. eigenvalues --   -0.23121  -0.20539  -0.18791  -0.17591  -0.15904
 Alpha  occ. eigenvalues --   -0.14958  -0.13493  -0.11860   0.03727
 Alpha virt. eigenvalues --    0.05667   0.06366   0.06791   0.07215   0.07596
 Alpha virt. eigenvalues --    0.07995   0.08503   0.08961   0.09107   0.09959
 Alpha virt. eigenvalues --    0.10080   0.10727   0.10856   0.11723   0.12136

  Beta  occ. eigenvalues --  -19.08704 -19.03532 -19.03054 -18.98291 -14.25942
  Beta  occ. eigenvalues --  -14.24909 -10.22403 -10.17215 -10.13628 -10.13069
  Beta  occ. eigenvalues --  -10.11421 -10.11073 -10.11029 -10.10956 -10.07786
  Beta  occ. eigenvalues --  -10.07647 -10.07575 -10.07363 -10.07133 -10.06862
  Beta  occ. eigenvalues --   -1.02762  -0.94848  -0.93863  -0.93644  -0.88541
  Beta  occ. eigenvalues --   -0.84511  -0.74661  -0.69794  -0.67875  -0.65174
  Beta  occ. eigenvalues --   -0.64225  -0.62902  -0.59879  -0.54776  -0.53841
  Beta  occ. eigenvalues --   -0.52795  -0.50766  -0.49402  -0.46882  -0.44514
  Beta  occ. eigenvalues --   -0.41765  -0.40956  -0.40409  -0.39592  -0.39386
  Beta  occ. eigenvalues --   -0.38470  -0.38081  -0.37570  -0.36430  -0.35358
  Beta  occ. eigenvalues --   -0.33929  -0.33672  -0.33391  -0.32531  -0.31672
  Beta  occ. eigenvalues --   -0.31019  -0.30906  -0.30363  -0.29024  -0.28274
  Beta  occ. eigenvalues --   -0.27766  -0.26364  -0.24603  -0.24498  -0.23965
  Beta  occ. eigenvalues --   -0.23089  -0.20508  -0.18657  -0.17536  -0.15846
  Beta  occ. eigenvalues --   -0.14879  -0.13312  -0.11581
  Beta virt. eigenvalues --    0.06045   0.06673   0.06909   0.07501   0.07529
  Beta virt. eigenvalues --    0.08016   0.08266   0.08696   0.09266   0.09427
  Beta virt. eigenvalues --    0.10205   0.10558   0.10880   0.11039   0.11739

 Mulliken charges and spin densities:
               1          2
     1  C   -0.030393  -0.286896
     2  O   -0.156566   0.019781
     3  C   -0.116874  -0.253243
     4  C    0.106392  -0.213765
     5  N    0.322377   0.011792
     6  C   -0.121250  -0.215393
     7  C    0.278251  -0.559324
     8  O   -0.232291   0.049033
     9  O   -0.099060   0.014676
    10  C   -0.367427   0.021142
    11  O   -0.270237   0.006356
    12  C    1.554071  -0.789196
    13  C   -0.305133   0.066007
    14  N   -0.172274   0.118430
    15  C   -0.004294  -0.443892
    16  C   -1.238313   0.491489
    17  C    0.087273  -0.250590
    18  C   -0.752189   0.177289
    19  C   -0.427362   0.035330
    20  C    1.710770  -0.755135
    21  H    0.150954   0.030486
    22  H   -0.042383   0.156763
    23  H    0.141831   0.016091
    24  H   -0.072286   0.212861
    25  H   -0.058665   0.233024
    26  H   -0.065422   0.212122
    27  H    0.281787  -0.040552
    28  H    0.160974   0.122345
    29  H   -0.161640   0.337480
    30  H    0.045108   0.248044
    31  H   -0.910695   1.080294
    32  H   -0.345414   0.669840
    33  H   -0.314808   0.454939
    34  H    0.151241  -0.015185
    35  H    0.112864   0.022717
    36  H    0.161081   0.014840
 Sum of Mulliken charges =  -1.00000   1.00000

 Dipole moment (field-independent basis, Debye):
    X=             -0.5316    Y=             -1.4568    Z=              3.9662  Tot=              4.2586
 Quadrupole moment (field-independent basis, Debye-Ang):
   XX=           -178.0836   YY=           -161.3033   ZZ=           -156.5729
   XY=             -6.0023   XZ=              8.2649   YZ=              8.9277

 Summary of Natural Population Analysis:

                                       Natural Population
                Natural  -----------------------------------------------
    Atom  No    Charge         Core      Valence    Rydberg      Total
 -----------------------------------------------------------------------
      C    1   -0.10437      0.99961     2.09544    0.00932     3.10437
      O    2   -0.29809      0.99989     3.28890    0.00930     4.29809
      C    3   -0.01194      0.99958     1.99915    0.01321     3.01194
      C    4   -0.10510      0.99960     2.09466    0.01085     3.10510
      N    5   -0.26299      0.99965     2.75076    0.01259     3.76299
      C    6   -0.13361      0.99955     2.12151    0.01255     3.13361
      C    7    0.40316      0.99973     1.57130    0.02581     2.59684
      O    8   -0.30140      0.99987     3.29516    0.00637     4.30140
      O    9   -0.33969      0.99987     3.33339    0.00643     4.33969
      C   10    0.35173      0.99958     1.62560    0.02309     2.64827
      O   11   -0.32455      0.99988     3.32002    0.00465     4.32455
      C   12   -0.11463      0.99944     2.10385    0.01133     3.11463
      C   13    0.05051      0.99953     1.93742    0.01254     2.94949
      N   14   -0.25901      0.99966     2.74911    0.01025     3.75901
      C   15    0.07400      0.99947     1.91411    0.01242     2.92600
      C   16   -0.11171      0.99952     2.10254    0.00965     3.11171
      C   17   -0.10883      0.99958     2.09996    0.00929     3.10883
      C   18   -0.11809      0.99958     2.10881    0.00970     3.11809
      C   19   -0.08362      0.99953     2.07588    0.00821     3.08362
      C   20   -0.03109      0.99947     2.02084    0.01078     3.03109
      H   21    0.09239      0.00000     0.40642    0.00119     0.40761
      H   22    0.07887      0.00000     0.41973    0.00141     0.42113
      H   23    0.08530      0.00000     0.41388    0.00083     0.41470
      H   24    0.07669      0.00000     0.42182    0.00149     0.42331
      H   25    0.09008      0.00000     0.40873    0.00119     0.40992
      H   26    0.09550      0.00000     0.40324    0.00125     0.40450
      H   27    0.12226      0.00000     0.37642    0.00132     0.37774
      H   28    0.11030      0.00000     0.38806    0.00163     0.38970
      H   29    0.11518      0.00000     0.38347    0.00135     0.38482
      H   30    0.24338      0.00000     0.25292    0.00370     0.25662
      H   31    0.10503      0.00000     0.39257    0.00240     0.39497
      H   32    0.20672      0.00000     0.28119    0.01208     0.29328
      H   33    0.10280      0.00000     0.39621    0.00100     0.39720
      H   34    0.09615      0.00000     0.40312    0.00073     0.40385
      H   35    0.09622      0.00000     0.40304    0.00074     0.40378
      H   36    0.11246      0.00000     0.38656    0.00098     0.38754
 =======================================================================
   * Total *   -0.00000     19.99256    52.74579    0.26165    73.00000

 Normal termination of Gaussian 16 at Sat Dec 12 16:46:03 2020.
