 Gaussian 16, Revision A.03,

 -----------------------------------------------------------
 # opt freq B3LYP/6-31G(d) empiricaldispersion=gd3bj scf=xqc
 -----------------------------------------------------------

 ------------------------------
 CID_59323539_JID_3681_neutraal
 ------------------------------
 Symbolic Z-matrix:
 Charge =  0 Multiplicity = 1

 SCF Done:  E(RB3LYP) =  -654.727026063     A.U. after   14 cycles
 SCF Done:  E(RB3LYP) =  -654.731220300     A.U. after   12 cycles
 SCF Done:  E(RB3LYP) =  -654.728364949     A.U. after   13 cycles
 SCF Done:  E(RB3LYP) =  -654.731837129     A.U. after   12 cycles
 SCF Done:  E(RB3LYP) =  -654.732669084     A.U. after   12 cycles
 SCF Done:  E(RB3LYP) =  -654.732846062     A.U. after   12 cycles
 SCF Done:  E(RB3LYP) =  -654.732865525     A.U. after   12 cycles
 SCF Done:  E(RB3LYP) =  -654.733258552     A.U. after   11 cycles
 SCF Done:  E(RB3LYP) =  -654.733365388     A.U. after   11 cycles
 SCF Done:  E(RB3LYP) =  -654.733411525     A.U. after   10 cycles
 SCF Done:  E(RB3LYP) =  -654.733428964     A.U. after    9 cycles
 SCF Done:  E(RB3LYP) =  -654.733438940     A.U. after    9 cycles
 SCF Done:  E(RB3LYP) =  -654.733439796     A.U. after    8 cycles
 SCF Done:  E(RB3LYP) =  -654.733439891     A.U. after    7 cycles
 SCF Done:  E(RB3LYP) =  -654.733439936     A.U. after    6 cycles
 Optimization completed.
    -- Stationary point found.

 1\1\GINC-NODE220\FOpt\RB3LYP\6-31G(d)\C9H18O4\VSC10255\14-Dec-2020\0\\
 # opt freq B3LYP/6-31G(d) empiricaldispersion=gd3bj scf=xqc\\CID_59323
 539_JID_3681_neutraal\\0,1\C,-1.4762901898,3.4503028504,2.1828672101\C
 ,-0.2786232324,4.2437911505,1.6571869692\C,0.1059883191,5.3784578007,2
 .5981344154\O,0.8864073973,3.4207454039,1.5514320948\C,0.9151333645,2.
 508664709,0.4700068772\C,2.0030725048,1.4837182405,0.7675706561\C,1.76
 56114961,0.6865354604,2.0670243324\C,0.4241718587,-0.0408185713,2.0631
 542854\C,1.8348016243,1.5970380985,3.3100112117\O,0.9944026082,1.67072

 Normal termination of Gaussian 16 at Mon Dec 14 16:33:28 2020.

 --------------------------------------------------------------------
 #N Geom=AllCheck Guess=TCheck SCRF=Check GenChk RB3LYP/6-31G(d) Freq
 --------------------------------------------------------------------

 Structure from the checkpoint file:  "JID_3681.chk"
 ------------------------------
 CID_59323539_JID_3681_neutraal
 ------------------------------
 Charge =  0 Multiplicity = 1

 SCF Done:  E(RB3LYP) =  -654.733439936     A.U. after    1 cycles

  Exact polarizability: 121.214  -2.909 100.835  -6.558  -0.710  99.167
 Approx polarizability: 149.499  -2.903 142.469 -11.106   0.055 149.540

                      1                      2                      3
                      A                      A                      A
 Frequencies --     39.1241                53.5485                65.2659
 Red. masses --      3.1566                 4.1033                 3.3743
 Frc consts  --      0.0028                 0.0069                 0.0085
 IR Inten    --      0.1068                 0.3082                 1.1886

                      4                      5                      6
                      A                      A                      A
 Frequencies --     84.1571               117.4530               144.2388
 Red. masses --      4.6327                 2.1402                 3.9864
 Frc consts  --      0.0193                 0.0174                 0.0489
 IR Inten    --      1.8177                 3.4571                 3.1803

                      7                      8                      9
                      A                      A                      A
 Frequencies --    160.9392               208.3377               217.3648
 Red. masses --      3.8972                 1.6145                 2.3532
 Frc consts  --      0.0595                 0.0413                 0.0655
 IR Inten    --      0.1298                 1.4313                 1.9705

                     10                     11                     12
                      A                      A                      A
 Frequencies --    228.3164               236.9373               251.7370
 Red. masses --      1.0455                 1.3883                 2.7774
 Frc consts  --      0.0321                 0.0459                 0.1037
 IR Inten    --      0.0034                 2.8433                 4.7630

                     13                     14                     15
                      A                      A                      A
 Frequencies --    276.0521               296.6980               319.0076
 Red. masses --      1.2927                 2.6928                 1.8926
 Frc consts  --      0.0580                 0.1397                 0.1135
 IR Inten    --      0.3374                 1.3752                 0.7236

                     16                     17                     18
                      A                      A                      A
 Frequencies --    340.0805               366.1375               393.8300
 Red. masses --      2.8037                 2.7241                 2.2607
 Frc consts  --      0.1910                 0.2152                 0.2066
 IR Inten    --      1.5824                 1.8924                 1.2671

                     19                     20                     21
                      A                      A                      A
 Frequencies --    408.7986               434.1745               486.5671
 Red. masses --      4.0983                 3.0080                 2.4305
 Frc consts  --      0.4035                 0.3341                 0.3390
 IR Inten    --      2.1811                 6.0511                 0.9692

                     22                     23                     24
                      A                      A                      A
 Frequencies --    542.3571               558.0169               563.2133
 Red. masses --      2.7003                 2.4117                 3.4053
 Frc consts  --      0.4680                 0.4424                 0.6364
 IR Inten    --      8.0712                36.8700                15.7529

                     25                     26                     27
                      A                      A                      A
 Frequencies --    609.1455               717.0313               765.4369
 Red. masses --      1.6000                 3.5538                 3.6719
 Frc consts  --      0.3498                 1.0765                 1.2675
 IR Inten    --     60.1799                20.5596                67.7031

                     28                     29                     30
                      A                      A                      A
 Frequencies --    820.0959               849.0055               903.8699
 Red. masses --      2.3690                 2.5370                 2.3078
 Frc consts  --      0.9387                 1.0774                 1.1109
 IR Inten    --      2.1363                15.1272                 2.4557

                     31                     32                     33
                      A                      A                      A
 Frequencies --    918.8513               944.0117               957.8579
 Red. masses --      2.0791                 1.2555                 1.3707
 Frc consts  --      1.0342                 0.6592                 0.7410
 IR Inten    --      0.9834                 0.6062                 0.3270

                     34                     35                     36
                      A                      A                      A
 Frequencies --    987.8329              1009.4431              1032.2025
 Red. masses --      2.0962                 1.7301                 1.9474
 Frc consts  --      1.2052                 1.0387                 1.2224
 IR Inten    --     27.3504                 3.8233                 4.9176

                     37                     38                     39
                      A                      A                      A
 Frequencies --   1116.9331              1133.4103              1152.9942
 Red. masses --      3.6318                 3.2455                 2.4297
 Frc consts  --      2.6695                 2.4565                 1.9031
 IR Inten    --     75.6632                16.4461                81.4896

                     40                     41                     42
                      A                      A                      A
 Frequencies --   1164.8941              1168.8252              1175.0440
 Red. masses --      2.4557                 2.5149                 2.2378
 Frc consts  --      1.9634                 2.0243                 1.8204
 IR Inten    --    127.0429               141.5563               129.3664

                     43                     44                     45
                      A                      A                      A
 Frequencies --   1190.3522              1210.4960              1213.7980
 Red. masses --      1.2807                 2.0139                 1.8398
 Frc consts  --      1.0692                 1.7386                 1.5970
 IR Inten    --      3.4149                 7.9530                38.4748

                     46                     47                     48
                      A                      A                      A
 Frequencies --   1225.5996              1253.1017              1288.5119
 Red. masses --      2.0534                 1.5580                 1.4053
 Frc consts  --      1.8173                 1.4415                 1.3746
 IR Inten    --     16.1876                 9.8489                 0.7331

                     49                     50                     51
                      A                      A                      A
 Frequencies --   1312.5923              1375.9046              1384.8102
 Red. masses --      1.5930                 1.4453                 1.4520
 Frc consts  --      1.6171                 1.6121                 1.6406
 IR Inten    --      4.6957                36.7241                10.1330

                     52                     53                     54
                      A                      A                      A
 Frequencies --   1386.3484              1398.8927              1428.4022
 Red. masses --      1.7059                 1.4248                 1.3425
 Frc consts  --      1.9318                 1.6428                 1.6138
 IR Inten    --     22.9418                11.0603                15.2586

                     55                     56                     57
                      A                      A                      A
 Frequencies --   1440.8332              1444.6361              1452.8989
 Red. masses --      1.2778                 1.2554                 1.4066
 Frc consts  --      1.5630                 1.5436                 1.7494
 IR Inten    --      8.6364                29.1891                 3.3724

                     58                     59                     60
                      A                      A                      A
 Frequencies --   1500.4925              1504.7548              1511.6199
 Red. masses --      1.1438                 1.0791                 1.0460
 Frc consts  --      1.5173                 1.4396                 1.4082
 IR Inten    --      2.2148                 1.5423                 0.7772

                     61                     62                     63
                      A                      A                      A
 Frequencies --   1512.9370              1520.9524              1522.6036
 Red. masses --      1.0543                 1.0502                 1.0506
 Frc consts  --      1.4219                 1.4314                 1.4350
 IR Inten    --      1.3574                 0.5605                 3.0481

                     64                     65                     66
                      A                      A                      A
 Frequencies --   1527.4657              1528.9629              1543.3386
 Red. masses --      1.0525                 1.0638                 1.0552
 Frc consts  --      1.4468                 1.4653                 1.4808
 IR Inten    --      4.8165                 2.2943                 4.7394

                     67                     68                     69
                      A                      A                      A
 Frequencies --   1547.7630              1562.0277              1836.9640
 Red. masses --      1.0520                 1.0796                 9.8832
 Frc consts  --      1.4848                 1.5520                19.6494
 IR Inten    --     10.5014                 7.1825               236.8664

                     70                     71                     72
                      A                      A                      A
 Frequencies --   2983.1215              2996.1482              3033.8103
 Red. masses --      1.0822                 1.0701                 1.0391
 Frc consts  --      5.6742                 5.6601                 5.6346
 IR Inten    --     29.1215               100.0426                52.6055

                     73                     74                     75
                      A                      A                      A
 Frequencies --   3050.1417              3056.5015              3060.8847
 Red. masses --      1.0712                 1.0440                 1.0450
 Frc consts  --      5.8717                 5.7466                 5.7686
 IR Inten    --      3.3909                33.8865                15.5798

                     76                     77                     78
                      A                      A                      A
 Frequencies --   3066.6718              3081.6982              3105.5227
 Red. masses --      1.0642                 1.0391                 1.0953
 Frc consts  --      5.8966                 5.8144                 6.2239
 IR Inten    --     29.3961                17.4546                41.8797

                     79                     80                     81
                      A                      A                      A
 Frequencies --   3119.5405              3126.1409              3128.7318
 Red. masses --      1.1013                 1.0996                 1.1027
 Frc consts  --      6.3144                 6.3314                 6.3600
 IR Inten    --     32.1532                16.3065                29.0306

                     82                     83                     84
                      A                      A                      A
 Frequencies --   3136.4674              3140.6127              3141.0306
 Red. masses --      1.1032                 1.1033                 1.1048
 Frc consts  --      6.3945                 6.4117                 6.4222
 IR Inten    --     25.4134                29.1017                22.9721

                     85                     86                     87
                      A                      A                      A
 Frequencies --   3156.9347              3177.9892              3681.6594
 Red. masses --      1.1005                 1.1016                 1.0640
 Frc consts  --      6.4621                 6.5549                 8.4970
 IR Inten    --     13.3989                11.8490                39.6760

 - Thermochemistry -
 -------------------
 Temperature   298.150 Kelvin.  Pressure   1.00000 Atm.
 Atom     1 has atomic number  6 and mass  12.00000

 Molecular mass:   190.12051 amu.
 Principal axes and moments of inertia in atomic units:
                           1         2         3
     Eigenvalues --  1384.364953500.374333643.69889
           X            0.99987  -0.00745  -0.01446
           Y            0.00505   0.98713  -0.15983
           Z            0.01546   0.15973   0.98704
 This molecule is an asymmetric top.
 Rotational symmetry number  1.
 Warning -- assumption of classical behavior for rotation
           may cause significant error
 Rotational temperatures (Kelvin)      0.06257     0.02474     0.02377
 Rotational constants (GHZ):           1.30366     0.51559     0.49530
 Zero-point vibrational energy     712315.8 (Joules/Mol)
                                  170.24757 (Kcal/Mol)
 Warning -- explicit consideration of  25 degrees of freedom as
           vibrations may cause significant error
 Vibrational temperatures:     56.29    77.04    93.90   121.08   168.99
          (Kelvin)            207.53   231.56   299.75   312.74   328.50
                              340.90   362.19   397.18   426.88   458.98
                              489.30   526.79   566.63   588.17   624.68
                              700.06   780.33   802.86   810.34   876.42
                             1031.65  1101.29  1179.94  1221.53  1300.47
                             1322.02  1358.22  1378.14  1421.27  1452.36
                             1485.11  1607.02  1630.72  1658.90  1676.02
                             1681.68  1690.63  1712.65  1741.63  1746.38
                             1763.36  1802.93  1853.88  1888.53  1979.62
                             1992.43  1994.65  2012.69  2055.15  2073.04
                             2078.51  2090.40  2158.87  2165.01  2174.88
                             2176.78  2188.31  2190.69  2197.68  2199.84
                             2220.52  2226.89  2247.41  2642.98  4292.05
                             4310.79  4364.98  4388.47  4397.62  4403.93
                             4412.26  4433.88  4468.15  4488.32  4497.82
                             4501.55  4512.68  4518.64  4519.24  4542.12
                             4572.42  5297.09

 Zero-point correction=                           0.271307 (Hartree/Particle)
 Thermal correction to Energy=                    0.286755
 Thermal correction to Enthalpy=                  0.287699
 Thermal correction to Gibbs Free Energy=         0.229059
 Sum of electronic and zero-point Energies=           -654.462133
 Sum of electronic and thermal Energies=              -654.446685
 Sum of electronic and thermal Enthalpies=            -654.445741
 Sum of electronic and thermal Free Energies=         -654.504381

                     E (Thermal)             CV                S
                      KCal/Mol        Cal/Mol-Kelvin    Cal/Mol-Kelvin
 Total                  179.941             56.674            123.418
 Electronic               0.000              0.000              0.000
 Translational            0.889              2.981             41.633
 Rotational               0.889              2.981             31.246
 Vibrational            178.164             50.712             50.538
 Vibration     1          0.594              1.981              5.303
 Vibration     2          0.596              1.976              4.682
 Vibration     3          0.597              1.971              4.291
 Vibration     4          0.601              1.960              3.792
 Vibration     5          0.608              1.935              3.142
 Vibration     6          0.616              1.909              2.747
 Vibration     7          0.622              1.890              2.539
 Vibration     8          0.642              1.828              2.058
 Vibration     9          0.646              1.815              1.981
 Vibration    10          0.651              1.798              1.892
 Vibration    11          0.656              1.784              1.826
 Vibration    12          0.664              1.760              1.718
 Vibration    13          0.678              1.718              1.558
 Vibration    14          0.690              1.680              1.435
 Vibration    15          0.705              1.637              1.315
 Vibration    16          0.720              1.595              1.212
 Vibration    17          0.739              1.542              1.096
 Vibration    18          0.761              1.483              0.986
 Vibration    19          0.773              1.451              0.931
 Vibration    20          0.795              1.396              0.845
 Vibration    21          0.843              1.280              0.693
 Vibration    22          0.897              1.156              0.560
 Vibration    23          0.914              1.122              0.528
 Vibration    24          0.919              1.111              0.517
 Vibration    25          0.968              1.012              0.434

                           ! Non-Optimized Parameters !

 1\1\GINC-NODE220\Freq\RB3LYP\6-31G(d)\C9H18O4\VSC10255\14-Dec-2020\0\\
 #N Geom=AllCheck Guess=TCheck SCRF=Check GenChk RB3LYP/6-31G(d) Freq\\
 CID_59323539_JID_3681_neutraal\\0,1\C,-1.4762901898,3.4503028504,2.182
 8672101\C,-0.2786232324,4.2437911505,1.6571869692\C,0.1059883191,5.378
 4578007,2.5981344154\O,0.8864073973,3.4207454039,1.5514320948\C,0.9151
 333645,2.508664709,0.4700068772\C,2.0030725048,1.4837182405,0.76757065
 61\C,1.7656114961,0.6865354604,2.0670243324\C,0.4241718587,-0.04081857
 13,2.0631542854\C,1.8348016243,1.5970380985,3.3100112117\O,0.994402608

 Normal termination of Gaussian 16 at Mon Dec 14 16:42:20 2020.

 ----------------------------------------------------------------------
 # B3LYP/6-311++G(d,p) empiricaldispersion=gd3bj scf=xqc pop=npa geom=c
 heck
 ----------------------------------------------------------------------

 --------------------------------------
 CID_59323539_JID_3681_Energie_neutraal
 --------------------------------------
 Structure from the checkpoint file:  "JID_3681.chk"
 Charge =  0 Multiplicity = 1

 SCF Done:  E(RB3LYP) =  -654.936295780     A.U. after   14 cycles
 Normal termination of Gaussian 16 at Mon Dec 14 16:46:07 2020.

 ----------------------------------------------------------------------
 # B3LYP/6-311++G(d,p) empiricaldispersion=gd3bj scf=xqc pop=npa geom=c
 heck
 ----------------------------------------------------------------------

 ------------------------------------
 CID_59323539_JID_3681_Energie_kation
 ------------------------------------
 Structure from the checkpoint file:  "JID_3681.chk"
 Charge =  1 Multiplicity = 2

 SCF Done:  E(UB3LYP) =  -654.613376736     A.U. after   20 cycles
 Normal termination of Gaussian 16 at Mon Dec 14 16:53:58 2020.
 Gaussian 16:  ES64L-G16RevA.03 25-Dec-2016

 -----------------------------------
 CID_59323539_JID_3681_Energie_anion
 -----------------------------------
 Structure from the checkpoint file:  "JID_3681.chk"
 Charge = -1 Multiplicity = 2

                         Standard orientation:
 ---------------------------------------------------------------------
 Center     Atomic      Atomic             Coordinates (Angstroms)
 Number     Number       Type             X           Y           Z
 ---------------------------------------------------------------------
      1          6           0       -2.831877   -0.743358    1.049253
      2          6           0       -2.716647   -0.253560   -0.395458
      3          6           0       -3.337157    1.125862   -0.576952
      4          8           0       -1.349276   -0.114911   -0.791636
      5          6           0       -0.647920   -1.314474   -1.058742
      6          6           0        0.839427   -0.982103   -1.058119
      7          6           0        1.347264   -0.412762    0.282933
      8          6           0        1.076713   -1.355629    1.451831
      9          6           0        0.712550    0.958516    0.592050
     10          8           0        0.152786    1.261059    1.622248
     11          8           0        0.914136    1.855123   -0.405246
     12          8           0        2.776338   -0.252813    0.294234
     13          6           0        3.429651    0.292790   -0.842842
     14          1           0       -2.419059   -1.749778    1.175021
     15          1           0       -3.882504   -0.778934    1.358100
     16          1           0       -2.288251   -0.062375    1.711709
     17          1           0       -3.210348   -0.970682   -1.072410
     18          1           0       -2.833019    1.845026    0.078050
     19          1           0       -3.225815    1.462359   -1.612150
     20          1           0       -4.402004    1.111050   -0.322337
     21          1           0       -0.869285   -2.083096   -0.306922
     22          1           0       -0.944230   -1.721657   -2.039141
     23          1           0        1.413167   -1.891362   -1.274630
     24          1           0        1.030645   -0.263995   -1.860248
     25          1           0        1.565116   -0.967095    2.347536
     26          1           0        0.009410   -1.440270    1.660030
     27          1           0        1.487539   -2.343827    1.224424
     28          1           0        0.495315    2.682497   -0.102023
     29          1           0        3.350742   -0.361680   -1.721085
     30          1           0        3.055522    1.287975   -1.103762
     31          1           0        4.483159    0.366492   -0.560691
 ---------------------------------------------------------------------

 SCF Done:  E(UB3LYP) =  -654.920712138     A.U. after   32 cycles

 The electronic state is 2-A.
 Alpha  occ. eigenvalues --  -19.07089 -19.03404 -19.02199 -19.01635 -10.20641
 Alpha  occ. eigenvalues --  -10.14887 -10.12331 -10.11803 -10.11044 -10.07525
 Alpha  occ. eigenvalues --  -10.06344 -10.05972 -10.05829  -1.01310  -0.94133
 Alpha  occ. eigenvalues --   -0.93725  -0.92209  -0.71761  -0.68289  -0.63325
 Alpha  occ. eigenvalues --   -0.59296  -0.58369  -0.57276  -0.53126  -0.48443
 Alpha  occ. eigenvalues --   -0.46449  -0.41994  -0.40977  -0.40077  -0.39430
 Alpha  occ. eigenvalues --   -0.36737  -0.35884  -0.35294  -0.33961  -0.33232
 Alpha  occ. eigenvalues --   -0.32578  -0.31708  -0.30418  -0.29358  -0.29049
 Alpha  occ. eigenvalues --   -0.28514  -0.28039  -0.27326  -0.26222  -0.25381
 Alpha  occ. eigenvalues --   -0.24718  -0.22884  -0.21565  -0.21255  -0.19951
 Alpha  occ. eigenvalues --   -0.16597  -0.15689   0.04491
 Alpha virt. eigenvalues --    0.06451   0.06707   0.07991   0.08242   0.09136
 Alpha virt. eigenvalues --    0.09206   0.09629   0.10227   0.10868   0.11197
 Alpha virt. eigenvalues --    0.11836   0.12129   0.13144   0.13465   0.14346

  Beta  occ. eigenvalues --  -19.07064 -19.03394 -19.02186 -19.01627 -10.20640
  Beta  occ. eigenvalues --  -10.14885 -10.12316 -10.11777 -10.11017 -10.07505
  Beta  occ. eigenvalues --  -10.06333 -10.05953 -10.05803  -1.01282  -0.94113
  Beta  occ. eigenvalues --   -0.93706  -0.92183  -0.71735  -0.68260  -0.63286
  Beta  occ. eigenvalues --   -0.59251  -0.58330  -0.57225  -0.53067  -0.48380
  Beta  occ. eigenvalues --   -0.46396  -0.41964  -0.40942  -0.40043  -0.39407
  Beta  occ. eigenvalues --   -0.36693  -0.35852  -0.35263  -0.33926  -0.33211
  Beta  occ. eigenvalues --   -0.32554  -0.31672  -0.30384  -0.29334  -0.29024
  Beta  occ. eigenvalues --   -0.28491  -0.28006  -0.27294  -0.26195  -0.25345
  Beta  occ. eigenvalues --   -0.24679  -0.22863  -0.21528  -0.21194  -0.19925
  Beta  occ. eigenvalues --   -0.16572  -0.15661
  Beta virt. eigenvalues --    0.06745   0.07310   0.07627   0.08539   0.08913
  Beta virt. eigenvalues --    0.09244   0.09665   0.10173   0.10670   0.11194
  Beta virt. eigenvalues --    0.11590   0.12319   0.12581   0.13412   0.13702

 Mulliken charges and spin densities:
               1          2
     1  C    0.400939  -0.922306
     2  C   -0.956515   0.961020
     3  C    0.903541  -1.423945
     4  O   -0.015531   0.008311
     5  C    1.103388  -1.513279
     6  C    0.374981  -0.462135
     7  C   -1.427828   1.156412
     8  C   -0.524187  -0.222470
     9  C    0.687592  -0.722250
    10  O   -0.251773   0.038630
    11  O   -0.139113   0.075779
    12  O   -0.012375   0.012866
    13  C    0.869141  -0.993665
    14  H   -0.139691   0.257594
    15  H   -0.184866   0.332792
    16  H    0.154779   0.037186
    17  H   -0.324322   0.460022
    18  H   -0.024348   0.175138
    19  H   -0.151806   0.309466
    20  H   -0.206401   0.338861
    21  H    0.038133   0.073892
    22  H   -0.741085   0.926319
    23  H   -0.243417   0.436630
    24  H    0.180629   0.048247
    25  H    0.177730   0.009490
    26  H    0.356788  -0.205638
    27  H   -0.151822   0.317872
    28  H   -0.053478   0.348043
    29  H   -0.454080   0.593145
    30  H   -0.087630   0.235501
    31  H   -0.157374   0.312473
 Sum of Mulliken charges =  -1.00000   1.00000

 Dipole moment (field-independent basis, Debye):
    X=              1.3142    Y=              0.9162    Z=              3.4036  Tot=              3.7618
 Quadrupole moment (field-independent basis, Debye-Ang):
   XX=           -148.5638   YY=           -121.1368   ZZ=           -122.7946
   XY=              0.6273   XZ=              1.0969   YZ=             -5.6567

 Summary of Natural Population Analysis:

                                       Natural Population
                Natural  -----------------------------------------------
    Atom  No    Charge         Core      Valence    Rydberg      Total
 -----------------------------------------------------------------------
      C    1   -0.30186      0.99964     2.29621    0.00602     3.30186
      C    2    0.06791      0.99958     1.91962    0.01289     2.93209
      C    3   -0.28915      0.99964     2.28283    0.00669     3.28915
      O    4   -0.31226      0.99987     3.29930    0.01309     4.31226
      C    5   -0.00454      0.99957     1.99247    0.01250     3.00454
      C    6   -0.21305      0.99958     2.20179    0.01168     3.21305
      C    7    0.10184      0.99947     1.88104    0.01766     2.89816
      C    8   -0.29045      0.99962     2.28232    0.00851     3.29045
      C    9    0.40870      0.99964     1.56350    0.02817     2.59130
      O   10   -0.30907      0.99986     3.30288    0.00632     4.30907
      O   11   -0.34478      0.99987     3.33770    0.00721     4.34478
      O   12   -0.30322      0.99987     3.29247    0.01087     4.30322
      C   13   -0.10196      0.99959     2.09324    0.00913     3.10196
      H   14    0.09791      0.00000     0.40105    0.00104     0.40209
      H   15    0.10080      0.00000     0.39830    0.00089     0.39920
      H   16    0.10772      0.00000     0.39120    0.00109     0.39228
      H   17    0.07815      0.00000     0.41927    0.00258     0.42185
      H   18    0.10082      0.00000     0.39781    0.00137     0.39918
      H   19    0.10393      0.00000     0.39476    0.00131     0.39607
      H   20    0.09863      0.00000     0.40038    0.00099     0.40137
      H   21    0.08069      0.00000     0.41721    0.00210     0.41931
      H   22    0.08636      0.00000     0.41172    0.00192     0.41364
      H   23    0.10750      0.00000     0.39085    0.00164     0.39250
      H   24    0.11059      0.00000     0.38689    0.00252     0.38941
      H   25    0.10940      0.00000     0.38962    0.00098     0.39060
      H   26    0.10666      0.00000     0.39239    0.00095     0.39334
      H   27    0.10133      0.00000     0.39756    0.00111     0.39867
      H   28    0.24092      0.00000     0.25485    0.00422     0.25908
      H   29    0.08188      0.00000     0.41642    0.00170     0.41812
      H   30    0.08989      0.00000     0.40836    0.00175     0.41011
      H   31    0.08873      0.00000     0.41022    0.00105     0.41127
 =======================================================================
   * Total *   -0.00000     12.99580    38.82424    0.17996    52.00000

 Normal termination of Gaussian 16 at Mon Dec 14 17:06:31 2020.
