 Gaussian 16, Revision A.03,

 -----------------------------------------------------------
 # opt freq B3LYP/6-31G(d) empiricaldispersion=gd3bj scf=xqc
 -----------------------------------------------------------

 ------------------------------
 CID_52140781_JID_2346_neutraal
 ------------------------------
 Symbolic Z-matrix:
 Charge =  0 Multiplicity = 1

 SCF Done:  E(RB3LYP) =  -827.059328327     A.U. after   14 cycles
 SCF Done:  E(RB3LYP) =  -827.061071711     A.U. after   12 cycles
 SCF Done:  E(RB3LYP) =  -827.059180307     A.U. after   12 cycles
 SCF Done:  E(RB3LYP) =  -827.060854713     A.U. after   12 cycles
 SCF Done:  E(RB3LYP) =  -827.061630402     A.U. after    9 cycles
 SCF Done:  E(RB3LYP) =  -827.061881157     A.U. after   11 cycles
 SCF Done:  E(RB3LYP) =  -827.061966979     A.U. after   11 cycles
 SCF Done:  E(RB3LYP) =  -827.062025520     A.U. after   11 cycles
 SCF Done:  E(RB3LYP) =  -827.062030134     A.U. after    9 cycles
 SCF Done:  E(RB3LYP) =  -827.062030420     A.U. after    9 cycles
 SCF Done:  E(RB3LYP) =  -827.062030674     A.U. after    7 cycles
 Optimization completed.
    -- Stationary point found.
 Normal termination of Gaussian 16 at Wed Dec  9 17:09:41 2020.

 --------------------------------------------------------------------
 #N Geom=AllCheck Guess=TCheck SCRF=Check GenChk RB3LYP/6-31G(d) Freq
 --------------------------------------------------------------------

 Structure from the checkpoint file:  "JID_2346.chk"
 ------------------------------
 CID_52140781_JID_2346_neutraal
 ------------------------------
 Charge =  0 Multiplicity = 1

 SCF Done:  E(RB3LYP) =  -827.062030674     A.U. after    1 cycles

  Exact polarizability: 149.299   1.584 131.033 -14.579   1.359 101.788
 Approx polarizability: 210.278  -3.007 214.825 -30.441   4.388 159.073

                      1                      2                      3
                      A                      A                      A
 Frequencies --     23.4659                57.4600                72.7111
 Red. masses --      3.3810                 3.6968                 2.6860
 Frc consts  --      0.0011                 0.0072                 0.0084
 IR Inten    --      0.1085                 0.4382                 0.1937

                      4                      5                      6
                      A                      A                      A
 Frequencies --    135.5275               155.7448               180.0156
 Red. masses --      3.7933                 2.2981                 1.2690
 Frc consts  --      0.0411                 0.0328                 0.0242
 IR Inten    --      1.3917                 0.3620                 0.1513

                      7                      8                      9
                      A                      A                      A
 Frequencies --    217.6401               238.4744               253.2282
 Red. masses --      2.9763                 1.1535                 1.2776
 Frc consts  --      0.0831                 0.0386                 0.0483
 IR Inten    --      1.0223                 0.0934                 0.1195

                     10                     11                     12
                      A                      A                      A
 Frequencies --    287.1571               299.0645               334.3993
 Red. masses --      2.3363                 2.0543                 3.4856
 Frc consts  --      0.1135                 0.1083                 0.2296
 IR Inten    --      0.6633                 2.8095                 1.3767

                     13                     14                     15
                      A                      A                      A
 Frequencies --    350.8926               415.6056               452.9081
 Red. masses --      2.4929                 2.5435                 2.8625
 Frc consts  --      0.1808                 0.2588                 0.3460
 IR Inten    --      0.4023                 0.5845                 1.6375

                     16                     17                     18
                      A                      A                      A
 Frequencies --    466.7837               497.1726               535.9524
 Red. masses --      3.2030                 3.9338                 4.0732
 Frc consts  --      0.4112                 0.5729                 0.6894
 IR Inten    --      3.8082                 0.6311                 1.7947

                     19                     20                     21
                      A                      A                      A
 Frequencies --    602.5499               609.5526               697.6265
 Red. masses --      4.3668                 4.5680                 4.3769
 Frc consts  --      0.9341                 1.0000                 1.2551
 IR Inten    --      3.3320                 1.1842                 5.7536

                     22                     23                     24
                      A                      A                      A
 Frequencies --    745.3941               768.6048               779.9226
 Red. masses --      2.2063                 2.3541                 2.3738
 Frc consts  --      0.7223                 0.8194                 0.8507
 IR Inten    --     18.9006                 9.7468                 9.6164

                     25                     26                     27
                      A                      A                      A
 Frequencies --    842.5916               875.6804               892.8441
 Red. masses --      3.8978                 1.4296                 1.8825
 Frc consts  --      1.6304                 0.6459                 0.8842
 IR Inten    --      1.6059                 0.8945                 4.1104

                     28                     29                     30
                      A                      A                      A
 Frequencies --    906.7234               942.8457               950.2172
 Red. masses --      2.1882                 1.1608                 1.3741
 Frc consts  --      1.0599                 0.6080                 0.7310
 IR Inten    --      1.5358                 0.9414                 1.7428

                     31                     32                     33
                      A                      A                      A
 Frequencies --    967.2243               985.0825              1019.8272
 Red. masses --      1.4440                 1.2652                 1.5738
 Frc consts  --      0.7959                 0.7234                 0.9644
 IR Inten    --      0.0586                 0.2065                 2.1929

                     34                     35                     36
                      A                      A                      A
 Frequencies --   1072.6741              1083.2343              1094.6465
 Red. masses --      1.5085                 2.1596                 1.3956
 Frc consts  --      1.0227                 1.4930                 0.9853
 IR Inten    --      3.5587                 3.1477                12.2760

                     37                     38                     39
                      A                      A                      A
 Frequencies --   1130.9390              1141.1030              1195.2080
 Red. masses --      1.9927                 2.2528                 1.6409
 Frc consts  --      1.5017                 1.7284                 1.3811
 IR Inten    --      4.4546                 1.6059                10.2078

                     40                     41                     42
                      A                      A                      A
 Frequencies --   1197.9048              1208.4289              1218.4111
 Red. masses --      1.1315                 1.4088                 1.6540
 Frc consts  --      0.9566                 1.2121                 1.4467
 IR Inten    --      0.5231                 0.7911                 1.3344

                     43                     44                     45
                      A                      A                      A
 Frequencies --   1251.0654              1287.3610              1320.5546
 Red. masses --      2.8699                 1.4352                 1.2580
 Frc consts  --      2.6466                 1.4014                 1.2925
 IR Inten    --      1.4270                16.2881                10.2356

                     46                     47                     48
                      A                      A                      A
 Frequencies --   1331.9462              1350.8425              1361.5151
 Red. masses --      1.5176                 1.3401                 3.6103
 Frc consts  --      1.5863                 1.4408                 3.9431
 IR Inten    --      1.7801                 0.9354                 1.1685

                     49                     50                     51
                      A                      A                      A
 Frequencies --   1429.0234              1444.1580              1449.4030
 Red. masses --      1.2444                 1.2383                 1.2257
 Frc consts  --      1.4972                 1.5216                 1.5171
 IR Inten    --      4.9077                 0.2900                 2.0827

                     52                     53                     54
                      A                      A                      A
 Frequencies --   1491.4028              1494.9826              1512.5835
 Red. masses --      1.5009                 1.2961                 1.0449
 Frc consts  --      1.9669                 1.7068                 1.4085
 IR Inten    --      2.9265                 3.3022                 1.1633

                     55                     56                     57
                      A                      A                      A
 Frequencies --   1519.8086              1522.2790              1527.3193
 Red. masses --      1.0486                 1.0513                 1.2516
 Frc consts  --      1.4271                 1.4353                 1.7202
 IR Inten    --      5.9239                 3.2159                 5.8145

                     58                     59                     60
                      A                      A                      A
 Frequencies --   1532.9579              1537.4518              1544.0272
 Red. masses --      1.0879                 1.0713                 1.9211
 Frc consts  --      1.5063                 1.4920                 2.6984
 IR Inten    --     17.2111                 3.8669                14.9364

                     61                     62                     63
                      A                      A                      A
 Frequencies --   1638.2365              1667.9055              3043.7647
 Red. masses --      5.7651                 5.6591                 1.0384
 Frc consts  --      9.1161                 9.2756                 5.6680
 IR Inten    --      0.1160                 2.3779                17.0616

                     64                     65                     66
                      A                      A                      A
 Frequencies --   3046.1788              3050.1749              3053.7033
 Red. masses --      1.0444                 1.0630                 1.0579
 Frc consts  --      5.7100                 5.8268                 5.8124
 IR Inten    --     20.7996                23.0297                29.7396

                     67                     68                     69
                      A                      A                      A
 Frequencies --   3066.2782              3094.5613              3111.2497
 Red. masses --      1.0698                 1.1002                 1.0979
 Frc consts  --      5.9264                 6.2078                 6.2618
 IR Inten    --     11.0209                25.5480                22.3411

                     70                     71                     72
                      A                      A                      A
 Frequencies --   3124.0228              3126.3182              3137.2825
 Red. masses --      1.0928                 1.0999                 1.1021
 Frc consts  --      6.2838                 6.3339                 6.3910
 IR Inten    --     29.3323                20.7533                22.7782

                     73                     74                     75
                      A                      A                      A
 Frequencies --   3148.8749              3152.6283              3176.4492
 Red. masses --      1.0936                 1.1024                 1.0863
 Frc consts  --      6.3891                 6.4557                 6.4579
 IR Inten    --      5.0954                18.9118                 8.7582

                     76                     77                     78
                      A                      A                      A
 Frequencies --   3187.6601              3199.3318              3209.8792
 Red. masses --      1.0879                 1.0921                 1.0974
 Frc consts  --      6.5130                 6.5860                 6.6617
 IR Inten    --     10.5531                24.9490                22.7256

 - Thermochemistry -
 -------------------
 Temperature   298.150 Kelvin.  Pressure   1.00000 Atm.
 Atom     1 has atomic number  6 and mass  12.00000

 Molecular mass:   180.09727 amu.
 Principal axes and moments of inertia in atomic units:
                           1         2         3
     Eigenvalues --  1435.612393223.101863572.22607
           X            0.99977   0.01832   0.01094
           Y           -0.01779   0.99875  -0.04672
           Z           -0.01178   0.04652   0.99885
 This molecule is an asymmetric top.
 Rotational symmetry number  1.
 Warning -- assumption of classical behavior for rotation
           may cause significant error
 Rotational temperatures (Kelvin)      0.06033     0.02687     0.02425
 Rotational constants (GHZ):           1.25712     0.55994     0.50521
 Zero-point vibrational energy     640281.0 (Joules/Mol)
                                  153.03083 (Kcal/Mol)
 Warning -- explicit consideration of  20 degrees of freedom as
           vibrations may cause significant error
 Vibrational temperatures:     33.76    82.67   104.62   194.99   224.08
          (Kelvin)            259.00   313.14   343.11   364.34   413.16
                              430.29   481.13   504.86   597.96   651.63
                              671.60   715.32   771.12   866.93   877.01
                             1003.73  1072.46  1105.85  1122.13  1212.30
                             1259.91  1284.60  1304.57  1356.54  1367.15
                             1391.62  1417.31  1467.30  1543.34  1558.53
                             1574.95  1627.17  1641.79  1719.64  1723.52
                             1738.66  1753.02  1800.00  1852.23  1899.98
                             1916.37  1943.56  1958.92  2056.05  2077.82
                             2085.37  2145.80  2150.95  2176.27  2186.67
                             2190.22  2197.47  2205.58  2212.05  2221.51
                             2357.06  2399.74  4379.30  4382.77  4388.52
                             4393.60  4411.69  4452.38  4476.39  4494.77
                             4498.07  4513.85  4530.53  4535.93  4570.20
                             4586.33  4603.12  4618.30

 Zero-point correction=                           0.243870 (Hartree/Particle)
 Thermal correction to Energy=                    0.256895
 Thermal correction to Enthalpy=                  0.257839
 Thermal correction to Gibbs Free Energy=         0.203818
 Sum of electronic and zero-point Energies=           -826.818161
 Sum of electronic and thermal Energies=              -826.805136
 Sum of electronic and thermal Enthalpies=            -826.804192
 Sum of electronic and thermal Free Energies=         -826.858212

                     E (Thermal)             CV                S
                      KCal/Mol        Cal/Mol-Kelvin    Cal/Mol-Kelvin
 Total                  161.204             49.214            113.696
 Electronic               0.000              0.000              0.000
 Translational            0.889              2.981             41.472
 Rotational               0.889              2.981             31.181
 Vibrational            159.426             43.252             41.043
 Vibration     1          0.593              1.985              6.317
 Vibration     2          0.596              1.975              4.543
 Vibration     3          0.599              1.967              4.079
 Vibration     4          0.613              1.918              2.866
 Vibration     5          0.620              1.896              2.601
 Vibration     6          0.629              1.867              2.328
 Vibration     7          0.646              1.814              1.979
 Vibration     8          0.656              1.782              1.814
 Vibration     9          0.664              1.757              1.708
 Vibration    10          0.684              1.698              1.491
 Vibration    11          0.692              1.675              1.422
 Vibration    12          0.716              1.607              1.239
 Vibration    13          0.728              1.573              1.162
 Vibration    14          0.779              1.436              0.907
 Vibration    15          0.811              1.354              0.787
 Vibration    16          0.824              1.324              0.747
 Vibration    17          0.853              1.256              0.665
 Vibration    18          0.891              1.171              0.574
 Vibration    19          0.961              1.026              0.445
 Vibration    20          0.969              1.012              0.434

                           ! Non-Optimized Parameters !
 Normal termination of Gaussian 16 at Wed Dec  9 17:17:26 2020.

 ----------------------------------------------------------------------
 # B3LYP/6-311++G(d,p) empiricaldispersion=gd3bj scf=xqc pop=npa geom=c
 heck
 ----------------------------------------------------------------------

 --------------------------------------
 CID_52140781_JID_2346_Energie_neutraal
 --------------------------------------
 Structure from the checkpoint file:  "JID_2346.chk"
 Charge =  0 Multiplicity = 1

 SCF Done:  E(RB3LYP) =  -827.202833076     A.U. after   14 cycles
 Normal termination of Gaussian 16 at Wed Dec  9 17:20:41 2020.

 ----------------------------------------------------------------------
 # B3LYP/6-311++G(d,p) empiricaldispersion=gd3bj scf=xqc pop=npa geom=c
 heck
 ----------------------------------------------------------------------

 ------------------------------------
 CID_52140781_JID_2346_Energie_kation
 ------------------------------------
 Structure from the checkpoint file:  "JID_2346.chk"
 Charge =  1 Multiplicity = 2

 SCF Done:  E(UB3LYP) =  -826.910832826     A.U. after   28 cycles
 Normal termination of Gaussian 16 at Wed Dec  9 17:28:41 2020.
 Gaussian 16:  ES64L-G16RevA.03 25-Dec-2016

 ----------------------------------------------------------------------
 # B3LYP/6-311++G(d,p) empiricaldispersion=gd3bj scf=xqc pop=npa geom=c
 heck
 ----------------------------------------------------------------------

 -----------------------------------
 CID_52140781_JID_2346_Energie_anion
 -----------------------------------
 Structure from the checkpoint file:  "JID_2346.chk"
 Charge = -1 Multiplicity = 2

                         Standard orientation:
 ---------------------------------------------------------------------
 Center     Atomic      Atomic             Coordinates (Angstroms)
 Number     Number       Type             X           Y           Z
 ---------------------------------------------------------------------
      1          6           0       -1.020263    2.406221   -0.542535
      2          6           0       -1.496135    0.998825   -0.261527
      3          6           0       -2.697615    0.810837    0.434957
      4          6           0       -3.188061   -0.462167    0.714927
      5          6           0       -2.472864   -1.581901    0.290718
      6          6           0       -1.274753   -1.411191   -0.396427
      7          6           0       -0.770245   -0.135761   -0.675802
      8          6           0        0.533757   -0.003001   -1.434479
      9         16           0        1.942842   -1.018946   -0.820205
     10          6           0        2.421255   -0.200276    0.770100
     11          6           0        2.881645    1.244208    0.569166
     12          6           0        1.363447   -0.324946    1.869423
     13          1           0       -1.733568    3.137722   -0.151770
     14          1           0       -0.050129    2.614492   -0.074332
     15          1           0       -0.906931    2.597523   -1.616203
     16          1           0       -3.255571    1.685170    0.761320
     17          1           0       -4.121676   -0.577681    1.258336
     18          1           0       -2.842471   -2.582250    0.497936
     19          1           0       -0.698590   -2.278126   -0.706412
     20          1           0        0.410361   -0.360114   -2.463821
     21          1           0        0.855067    1.036307   -1.506894
     22          1           0        3.292632   -0.804265    1.053302
     23          1           0        2.049811    1.887396    0.262136
     24          1           0        3.273581    1.648221    1.510873
     25          1           0        3.664895    1.311417   -0.191203
     26          1           0        1.039888   -1.361715    1.993485
     27          1           0        1.777805    0.028591    2.822412
     28          1           0        0.478410    0.275361    1.642995
 ---------------------------------------------------------------------

 SCF Done:  E(UB3LYP) =  -827.186944714     A.U. after   33 cycles
 SCF Done:  E(UB3LYP) =  -827.186944714     a.u. after    1 cycles

 The electronic state is 2-A.
 Alpha  occ. eigenvalues --  -88.73661 -10.10803 -10.10408 -10.08634 -10.08513
 Alpha  occ. eigenvalues --  -10.07595 -10.07498 -10.07317 -10.07261 -10.06785
 Alpha  occ. eigenvalues --  -10.06414 -10.06022  -7.82281  -5.78684  -5.78305
 Alpha  occ. eigenvalues --   -5.77642  -0.76716  -0.72206  -0.68393  -0.67138
 Alpha  occ. eigenvalues --   -0.62631  -0.59111  -0.58799  -0.55485  -0.50180
 Alpha  occ. eigenvalues --   -0.48274  -0.45714  -0.40749  -0.38494  -0.36551
 Alpha  occ. eigenvalues --   -0.35380  -0.33943  -0.32696  -0.32391  -0.31462
 Alpha  occ. eigenvalues --   -0.31428  -0.30868  -0.29453  -0.28675  -0.27772
 Alpha  occ. eigenvalues --   -0.25692  -0.25306  -0.24795  -0.24402  -0.23371
 Alpha  occ. eigenvalues --   -0.20116  -0.15440  -0.14625  -0.12597   0.04500
 Alpha virt. eigenvalues --    0.06443   0.06896   0.07170   0.07882   0.08427
 Alpha virt. eigenvalues --    0.08987   0.09124   0.09298   0.09989   0.10784
 Alpha virt. eigenvalues --    0.11480   0.12008   0.12785   0.13026   0.13423

  Beta  occ. eigenvalues --  -88.73660 -10.10793 -10.10393 -10.08634 -10.08503
  Beta  occ. eigenvalues --  -10.07589 -10.07481 -10.07307 -10.07241 -10.06745
  Beta  occ. eigenvalues --  -10.06374 -10.06001  -7.82279  -5.78683  -5.78304
  Beta  occ. eigenvalues --   -5.77641  -0.76691  -0.72179  -0.68360  -0.67108
  Beta  occ. eigenvalues --   -0.62598  -0.59053  -0.58739  -0.55445  -0.50135
  Beta  occ. eigenvalues --   -0.48232  -0.45669  -0.40699  -0.38466  -0.36503
  Beta  occ. eigenvalues --   -0.35336  -0.33913  -0.32656  -0.32355  -0.31423
  Beta  occ. eigenvalues --   -0.31384  -0.30839  -0.29414  -0.28636  -0.27737
  Beta  occ. eigenvalues --   -0.25655  -0.25274  -0.24761  -0.24368  -0.23336
  Beta  occ. eigenvalues --   -0.20098  -0.15398  -0.14590  -0.12584
  Beta virt. eigenvalues --    0.06629   0.07267   0.07395   0.07699   0.08349
  Beta virt. eigenvalues --    0.08587   0.09502   0.09623   0.09775   0.10385
  Beta virt. eigenvalues --    0.11107   0.11930   0.12422   0.13087   0.13269

 Mulliken charges and spin densities:
               1          2
     1  C    2.189317  -2.807537
     2  C   -2.743938   3.235756
     3  C    0.693204  -1.102750
     4  C    1.070010  -1.403347
     5  C   -0.023180  -0.294049
     6  C    0.124173  -0.687155
     7  C   -1.016681   1.951703
     8  C    0.903556  -1.677490
     9  S    0.599961  -0.318652
    10  C   -1.346194   1.294523
    11  C    0.773496  -1.433537
    12  C    0.324710  -0.911716
    13  H   -0.704969   0.868086
    14  H   -0.143699   0.289732
    15  H   -0.183392   0.348449
    16  H   -0.475284   0.640736
    17  H   -0.491573   0.652831
    18  H   -0.226066   0.390851
    19  H    0.016403   0.101395
    20  H    0.002106   0.218734
    21  H    0.376235  -0.201433
    22  H   -0.126804   0.360910
    23  H   -0.178147   0.322082
    24  H   -0.403732   0.545147
    25  H   -0.177337   0.319987
    26  H   -0.011648   0.131619
    27  H   -0.171361   0.327986
    28  H    0.350833  -0.162862
 Sum of Mulliken charges =  -1.00000   1.00000

 Dipole moment (field-independent basis, Debye):
    X=              0.9256    Y=             -4.2797    Z=             -2.0967  Tot=              4.8547
 Quadrupole moment (field-independent basis, Debye-Ang):
   XX=           -151.7481   YY=           -131.6354   ZZ=           -119.7311
   XY=              0.9443   XZ=             -0.9021   YZ=             -2.0791

 Summary of Natural Population Analysis:

                                       Natural Population
                Natural  -----------------------------------------------
    Atom  No    Charge         Core      Valence    Rydberg      Total
 -----------------------------------------------------------------------
      C    1   -0.29599      0.99963     2.28997    0.00638     3.29599
      C    2   -0.01606      0.99947     2.00572    0.01088     3.01606
      C    3   -0.09712      0.99951     2.08728    0.01033     3.09712
      C    4   -0.09920      0.99956     2.08941    0.01023     3.09920
      C    5   -0.10432      0.99956     2.09466    0.01010     3.10432
      C    6   -0.09473      0.99951     2.08536    0.00987     3.09473
      C    7   -0.02776      0.99945     2.01666    0.01164     3.02776
      C    8   -0.26055      0.99954     2.24957    0.01144     3.26055
      S    9    0.08553      4.99962     2.89883    0.01602     7.91447
      C   10   -0.16674      0.99959     2.15425    0.01291     3.16674
      C   11   -0.28945      0.99963     2.28296    0.00686     3.28945
      C   12   -0.28995      0.99963     2.28362    0.00670     3.28995
      H   13    0.10653      0.00000     0.39185    0.00162     0.39347
      H   14    0.10453      0.00000     0.39379    0.00168     0.39547
      H   15    0.10442      0.00000     0.39446    0.00113     0.39558
      H   16    0.10156      0.00000     0.39698    0.00145     0.39844
      H   17    0.10083      0.00000     0.39799    0.00118     0.39917
      H   18    0.09917      0.00000     0.39993    0.00090     0.40083
      H   19    0.10414      0.00000     0.39451    0.00135     0.39586
      H   20    0.11303      0.00000     0.38587    0.00110     0.38697
      H   21    0.10975      0.00000     0.38844    0.00181     0.39025
      H   22    0.10131      0.00000     0.39752    0.00117     0.39869
      H   23    0.09732      0.00000     0.40106    0.00162     0.40268
      H   24    0.10356      0.00000     0.39466    0.00178     0.39644
      H   25    0.10281      0.00000     0.39573    0.00145     0.39719
      H   26    0.10299      0.00000     0.39577    0.00124     0.39701
      H   27    0.10019      0.00000     0.39864    0.00116     0.39981
      H   28    0.10417      0.00000     0.39410    0.00173     0.39583
 =======================================================================
   * Total *    0.00000     15.99468    32.85959    0.14574    49.00000

 Normal termination of Gaussian 16 at Wed Dec  9 17:39:06 2020.
