 Gaussian 16, Revision A.03,

 -----------------------------------------------------------
 # opt freq B3LYP/6-31G(d) empiricaldispersion=gd3bj scf=xqc
 -----------------------------------------------------------

 ------------------------------
 CID_83675394_JID_3646_neutraal
 ------------------------------
 Symbolic Z-matrix:
 Charge =  0 Multiplicity = 1

 SCF Done:  E(RB3LYP) =  -573.053068506     A.U. after   15 cycles
 SCF Done:  E(RB3LYP) =  -573.056567279     A.U. after   12 cycles
 SCF Done:  E(RB3LYP) =  -573.057033017     A.U. after   12 cycles
 SCF Done:  E(RB3LYP) =  -573.057273596     A.U. after   12 cycles
 SCF Done:  E(RB3LYP) =  -573.057334354     A.U. after   11 cycles
 SCF Done:  E(RB3LYP) =  -573.057338043     A.U. after   10 cycles
 SCF Done:  E(RB3LYP) =  -573.057342309     A.U. after    9 cycles
 SCF Done:  E(RB3LYP) =  -573.057342610     A.U. after    7 cycles
 SCF Done:  E(RB3LYP) =  -573.057342695     A.U. after    7 cycles
 SCF Done:  E(RB3LYP) =  -573.057342749     A.U. after    7 cycles
 Optimization completed.
    -- Stationary point found.
 Normal termination of Gaussian 16 at Wed Dec  9 23:50:33 2020.

 --------------------------------------------------------------------
 #N Geom=AllCheck Guess=TCheck SCRF=Check GenChk RB3LYP/6-31G(d) Freq
 --------------------------------------------------------------------

 Structure from the checkpoint file:  "JID_3646.chk"
 ------------------------------
 CID_83675394_JID_3646_neutraal
 ------------------------------
 Charge =  0 Multiplicity = 1

 SCF Done:  E(RB3LYP) =  -573.057342749     A.U. after    1 cycles

  Exact polarizability: 155.482  17.050 126.794  17.534  -5.969  69.334
 Approx polarizability: 232.819  32.603 232.264  37.211 -14.517 108.128

                      1                      2                      3
                      A                      A                      A
 Frequencies --     46.6565                78.9887               101.1729
 Red. masses --      3.8598                 4.4562                 3.7777
 Frc consts  --      0.0050                 0.0164                 0.0228
 IR Inten    --      2.8968                 0.6422                 3.0660

                      4                      5                      6
                      A                      A                      A
 Frequencies --    188.8553               210.7700               217.3066
 Red. masses --      4.2883                 3.4980                 4.0607
 Frc consts  --      0.0901                 0.0916                 0.1130
 IR Inten    --      0.7097                 0.1694                 0.0859

                      7                      8                      9
                      A                      A                      A
 Frequencies --    260.8055               323.0840               379.7855
 Red. masses --      1.1483                 4.8550                 1.9060
 Frc consts  --      0.0460                 0.2986                 0.1620
 IR Inten    --      1.0586                 1.0304                22.7408

                     10                     11                     12
                      A                      A                      A
 Frequencies --    386.9701               433.6980               437.6662
 Red. masses --      1.1485                 2.7935                 2.7727
 Frc consts  --      0.1013                 0.3096                 0.3129
 IR Inten    --    136.5760                 5.9833                40.8961

                     13                     14                     15
                      A                      A                      A
 Frequencies --    477.6336               521.0443               577.6851
 Red. masses --      3.5356                 3.8124                 4.9551
 Frc consts  --      0.4752                 0.6098                 0.9743
 IR Inten    --      3.1031                 4.7200                 0.8936

                     16                     17                     18
                      A                      A                      A
 Frequencies --    588.7783               625.8027               673.3487
 Red. masses --      4.8852                 4.0232                 4.7604
 Frc consts  --      0.9978                 0.9283                 1.2717
 IR Inten    --      2.0198                 1.1369                 2.4851

                     19                     20                     21
                      A                      A                      A
 Frequencies --    742.3926               757.9093               763.6582
 Red. masses --      2.6761                 1.7125                 4.3532
 Frc consts  --      0.8690                 0.5796                 1.4957
 IR Inten    --      8.2089                55.0330                 0.7592

                     22                     23                     24
                      A                      A                      A
 Frequencies --    782.3167               828.8476               843.9573
 Red. masses --      4.4464                 2.7022                 1.4424
 Frc consts  --      1.6033                 1.0937                 0.6053
 IR Inten    --      3.4800                 6.5136                 1.1037

                     25                     26                     27
                      A                      A                      A
 Frequencies --    878.1325               900.8643               913.2564
 Red. masses --      1.3800                 3.4631                 2.5310
 Frc consts  --      0.6270                 1.6559                 1.2437
 IR Inten    --      9.5870                 1.4517                 2.1749

                     28                     29                     30
                      A                      A                      A
 Frequencies --    928.1259               958.9084               977.0677
 Red. masses --      1.3070                 2.0039                 1.2455
 Frc consts  --      0.6634                 1.0856                 0.7006
 IR Inten    --      1.5224                 7.8043                 0.1957

                     31                     32                     33
                      A                      A                      A
 Frequencies --   1028.0361              1043.6069              1077.9651
 Red. masses --      2.2894                 2.0290                 1.9150
 Frc consts  --      1.4255                 1.3020                 1.3111
 IR Inten    --     17.8332                 6.6041                18.0996

                     34                     35                     36
                      A                      A                      A
 Frequencies --   1110.0210              1130.0675              1160.1283
 Red. masses --      2.7164                 1.6020                 1.3647
 Frc consts  --      1.9720                 1.2054                 1.0821
 IR Inten    --      9.9022                56.2034                 9.1252

                     37                     38                     39
                      A                      A                      A
 Frequencies --   1183.5254              1201.6060              1247.2448
 Red. masses --      1.5570                 1.5358                 1.4314
 Frc consts  --      1.2850                 1.3065                 1.3120
 IR Inten    --     13.6738                 6.9602                 7.4265

                     40                     41                     42
                      A                      A                      A
 Frequencies --   1289.9372              1301.2320              1313.2062
 Red. masses --      1.9740                 1.7932                 2.3115
 Frc consts  --      1.9352                 1.7889                 2.3486
 IR Inten    --      9.4059                14.4770                13.9460

                     43                     44                     45
                      A                      A                      A
 Frequencies --   1348.8428              1352.5657              1393.2789
 Red. masses --      2.1817                 1.8602                 1.9045
 Frc consts  --      2.3387                 2.0050                 2.1783
 IR Inten    --     37.7665                25.9001                 1.4224

                     46                     47                     48
                      A                      A                      A
 Frequencies --   1399.6946              1415.4506              1431.4865
 Red. masses --      1.7885                 2.3606                 1.1957
 Frc consts  --      2.0644                 2.7866                 1.4436
 IR Inten    --     25.8711                 4.2179                11.8244

                     49                     50                     51
                      A                      A                      A
 Frequencies --   1447.3081              1497.9075              1499.5088
 Red. masses --      1.3680                 2.1666                 1.2010
 Frc consts  --      1.6884                 2.8641                 1.5910
 IR Inten    --     41.0937                 1.7847                 4.4110

                     52                     53                     54
                      A                      A                      A
 Frequencies --   1523.5999              1528.6891              1553.4112
 Red. masses --      1.0484                 1.0540                 4.9235
 Frc consts  --      1.4338                 1.4513                 7.0000
 IR Inten    --      6.7169                 2.7396                15.1476

                     55                     56                     57
                      A                      A                      A
 Frequencies --   1575.4305              1585.7571              1697.0874
 Red. masses --      5.5636                 4.9089                 5.9952
 Frc consts  --      8.1359                 7.2729                10.1734
 IR Inten    --      2.5226                 8.2031                 4.2901

                     58                     59                     60
                      A                      A                      A
 Frequencies --   3040.7692              3049.3399              3073.0318
 Red. masses --      1.0618                 1.0381                 1.0861
 Frc consts  --      5.7844                 5.6873                 6.0429
 IR Inten    --     22.3506                 7.6150                45.8116

                     61                     62                     63
                      A                      A                      A
 Frequencies --   3089.0693              3115.8811              3135.7504
 Red. masses --      1.1007                 1.1005                 1.1024
 Frc consts  --      6.1886                 6.2954                 6.3868
 IR Inten    --     13.6030                44.2372                22.9194

                     64                     65                     66
                      A                      A                      A
 Frequencies --   3208.5699              3226.6606              3236.3026
 Red. masses --      1.0877                 1.0911                 1.0953
 Frc consts  --      6.5976                 6.6929                 6.7591
 IR Inten    --      5.3730                 7.5831                 5.9174

                     67                     68                     69
                      A                      A                      A
 Frequencies --   3241.1727              3267.1812              3723.4508
 Red. masses --      1.0960                 1.0948                 1.0658
 Frc consts  --      6.7838                 6.8855                 8.7060
 IR Inten    --     12.3878                 1.4395                 8.1743

 - Thermochemistry -
 -------------------
 Temperature   298.150 Kelvin.  Pressure   1.00000 Atm.
 Atom     1 has atomic number  6 and mass  12.00000

 Molecular mass:   176.09496 amu.
 Principal axes and moments of inertia in atomic units:
                           1         2         3
     Eigenvalues --  1220.655332893.122053680.50730
           X            0.99973   0.02331   0.00030
           Y           -0.02331   0.99968  -0.01000
           Z           -0.00053   0.00999   0.99995
 This molecule is an asymmetric top.
 Rotational symmetry number  1.
 Warning -- assumption of classical behavior for rotation
           may cause significant error
 Rotational temperatures (Kelvin)      0.07096     0.02994     0.02353
 Rotational constants (GHZ):           1.47850     0.62380     0.49035
 Zero-point vibrational energy     547586.2 (Joules/Mol)
                                  130.87624 (Kcal/Mol)
 Warning -- explicit consideration of  16 degrees of freedom as
           vibrations may cause significant error
 Vibrational temperatures:     67.13   113.65   145.57   271.72   303.25
          (Kelvin)            312.66   375.24   464.85   546.43   556.76
                              623.99   629.70   687.21   749.67   831.16
                              847.12   900.39   968.80  1068.14  1090.46
                             1098.73  1125.58  1192.53  1214.27  1263.44
                             1296.14  1313.97  1335.37  1379.66  1405.78
                             1479.11  1501.52  1550.95  1597.07  1625.92
                             1669.17  1702.83  1728.84  1794.51  1855.93
                             1872.18  1889.41  1940.68  1946.04  2004.62
                             2013.85  2036.52  2059.59  2082.35  2155.15
                             2157.46  2192.12  2199.44  2235.01  2266.69
                             2281.55  2441.73  4374.99  4387.32  4421.41
                             4444.48  4483.06  4511.65  4616.42  4642.44
                             4656.32  4663.32  4700.75  5357.22

 Zero-point correction=                           0.208565 (Hartree/Particle)
 Thermal correction to Energy=                    0.219649
 Thermal correction to Enthalpy=                  0.220593
 Thermal correction to Gibbs Free Energy=         0.171415
 Sum of electronic and zero-point Energies=           -572.848778
 Sum of electronic and thermal Energies=              -572.837694
 Sum of electronic and thermal Enthalpies=            -572.836750
 Sum of electronic and thermal Free Energies=         -572.885928

                     E (Thermal)             CV                S
                      KCal/Mol        Cal/Mol-Kelvin    Cal/Mol-Kelvin
 Total                  137.832             43.892            103.504
 Electronic               0.000              0.000              0.000
 Translational            0.889              2.981             41.405
 Rotational               0.889              2.981             30.942
 Vibrational            136.054             37.930             31.157
 Vibration     1          0.595              1.979              4.954
 Vibration     2          0.600              1.963              3.916
 Vibration     3          0.604              1.948              3.432
 Vibration     4          0.633              1.855              2.239
 Vibration     5          0.643              1.824              2.037
 Vibration     6          0.646              1.815              1.981
 Vibration     7          0.669              1.744              1.656
 Vibration     8          0.708              1.629              1.294
 Vibration     9          0.750              1.513              1.040
 Vibration    10          0.755              1.498              1.012
 Vibration    11          0.794              1.397              0.847
 Vibration    12          0.798              1.388              0.834
 Vibration    13          0.834              1.300              0.716
 Vibration    14          0.876              1.203              0.608
 Vibration    15          0.934              1.080              0.490
 Vibration    16          0.946              1.056              0.469

 Optimization completed.
    -- Stationary point found.
 Normal termination of Gaussian 16 at Wed Dec  9 23:56:42 2020.

 ----------------------------------------------------------------------
 # B3LYP/6-311++G(d,p) empiricaldispersion=gd3bj scf=xqc pop=npa geom=c
 heck
 ----------------------------------------------------------------------

 --------------------------------------
 CID_83675394_JID_3646_Energie_neutraal
 --------------------------------------
 Structure from the checkpoint file:  "JID_3646.chk"
 Charge =  0 Multiplicity = 1

 SCF Done:  E(RB3LYP) =  -573.217668408     A.U. after   15 cycles
 Normal termination of Gaussian 16 at Wed Dec  9 23:58:52 2020.

 ----------------------------------------------------------------------
 # B3LYP/6-311++G(d,p) empiricaldispersion=gd3bj scf=xqc pop=npa geom=c
 heck
 ----------------------------------------------------------------------

 ------------------------------------
 CID_83675394_JID_3646_Energie_kation
 ------------------------------------
 Structure from the checkpoint file:  "JID_3646.chk"
 Charge =  1 Multiplicity = 2

 SCF Done:  E(UB3LYP) =  -572.936580649     A.U. after   21 cycles
 Normal termination of Gaussian 16 at Thu Dec 10 00:02:57 2020.
 Gaussian 16:  ES64L-G16RevA.03 25-Dec-2016

 ----------------------------------------------------------------------
 # B3LYP/6-311++G(d,p) empiricaldispersion=gd3bj scf=xqc pop=npa geom=c
 heck
 ----------------------------------------------------------------------

 -----------------------------------
 CID_83675394_JID_3646_Energie_anion
 -----------------------------------
 Structure from the checkpoint file:  "JID_3646.chk"
 Charge = -1 Multiplicity = 2

                         Standard orientation:
 ---------------------------------------------------------------------
 Center     Atomic      Atomic             Coordinates (Angstroms)
 Number     Number       Type             X           Y           Z
 ---------------------------------------------------------------------
      1          6           0        3.250798    0.335982   -0.949129
      2          6           0        2.667252   -0.633445    0.074222
      3          6           0        1.784467    0.071610    1.130643
      4          6           0        0.547672    0.705691    0.584688
      5          6           0        0.253585    2.016051    0.244883
      6          7           0       -1.023105    2.175188   -0.204823
      7          6           0       -1.561814    0.958805   -0.154508
      8          7           0       -0.627124    0.011367    0.320825
      9          6           0       -0.947598   -1.318802    0.467125
     10          6           0       -2.208922   -1.737805    0.152519
     11          6           0       -3.181591   -0.815740   -0.328194
     12          6           0       -2.860496    0.510408   -0.482937
     13          8           0        1.951094   -1.693457   -0.565131
     14          1           0        2.449714    0.871101   -1.473878
     15          1           0        3.849877   -0.208607   -1.685014
     16          1           0        3.888517    1.084528   -0.465521
     17          1           0        3.483523   -1.136324    0.604903
     18          1           0        1.523414   -0.662683    1.903928
     19          1           0        2.380176    0.848522    1.624510
     20          1           0        0.929313    2.859245    0.322398
     21          1           0       -0.149325   -1.973030    0.789678
     22          1           0       -2.453473   -2.787938    0.265730
     23          1           0       -4.176732   -1.169672   -0.577071
     24          1           0       -3.569936    1.243389   -0.849572
     25          1           0        1.327669   -1.283289   -1.186940
 ---------------------------------------------------------------------

 SCF Done:  E(UB3LYP) =  -573.208384029     A.U. after   33 cycles
 SCF Done:  E(UB3LYP) =  -573.208384029     a.u. after    1 cycles

 The electronic state is 2-A.
 Alpha  occ. eigenvalues --  -19.01157 -14.25178 -14.16325 -10.11340 -10.10317
 Alpha  occ. eigenvalues --  -10.07959 -10.07768 -10.06970 -10.06610 -10.05396
 Alpha  occ. eigenvalues --  -10.04908 -10.04733 -10.04113  -0.91540  -0.89907
 Alpha  occ. eigenvalues --   -0.77652  -0.70818  -0.67175  -0.62717  -0.61823
 Alpha  occ. eigenvalues --   -0.57671  -0.51801  -0.50111  -0.48744  -0.46337
 Alpha  occ. eigenvalues --   -0.39067  -0.38208  -0.37169  -0.36539  -0.35397
 Alpha  occ. eigenvalues --   -0.33765  -0.33022  -0.31789  -0.30177  -0.29447
 Alpha  occ. eigenvalues --   -0.28360  -0.26103  -0.25912  -0.25370  -0.24097
 Alpha  occ. eigenvalues --   -0.22102  -0.21597  -0.19447  -0.17190  -0.15135
 Alpha  occ. eigenvalues --   -0.12229  -0.08579   0.05110
 Alpha virt. eigenvalues --    0.06819   0.08129   0.08960   0.09332   0.09921
 Alpha virt. eigenvalues --    0.10491   0.11638   0.11966   0.12179   0.12243
 Alpha virt. eigenvalues --    0.12813   0.13597   0.15088   0.15979   0.16581

  Beta  occ. eigenvalues --  -19.01135 -14.24981 -14.16269 -10.11321 -10.10360
  Beta  occ. eigenvalues --  -10.07982 -10.07480 -10.06963 -10.06593 -10.05450
  Beta  occ. eigenvalues --  -10.04864 -10.04564 -10.03895  -0.91486  -0.89658
  Beta  occ. eigenvalues --   -0.77436  -0.70602  -0.67025  -0.62470  -0.61601
  Beta  occ. eigenvalues --   -0.57534  -0.51516  -0.50050  -0.48569  -0.46125
  Beta  occ. eigenvalues --   -0.38923  -0.38121  -0.37018  -0.36436  -0.35287
  Beta  occ. eigenvalues --   -0.33563  -0.32667  -0.31519  -0.30131  -0.29371
  Beta  occ. eigenvalues --   -0.28297  -0.25994  -0.25848  -0.25307  -0.23977
  Beta  occ. eigenvalues --   -0.21748  -0.21253  -0.18456  -0.17083  -0.15062
  Beta  occ. eigenvalues --   -0.11639  -0.07813
  Beta virt. eigenvalues --    0.07655   0.08194   0.09050   0.09540   0.09996
  Beta virt. eigenvalues --    0.10157   0.10762   0.11772   0.12074   0.12448
  Beta virt. eigenvalues --    0.12555   0.13091   0.13730   0.15182   0.16062

 Mulliken charges and spin densities:
               1          2
     1  C    1.222295  -1.862971
     2  C   -0.484639   0.464756
     3  C   -0.302662  -0.214359
     4  C    0.337222  -0.090133
     5  C    0.330884  -0.332755
     6  N   -0.122985   0.035431
     7  C   -0.511599  -0.074548
     8  N    0.162098   0.067110
     9  C   -0.759896   0.447449
    10  C    0.359445  -0.322009
    11  C   -0.653838   0.110121
    12  C    0.329697   0.163453
    13  O   -0.195371  -0.037011
    14  H   -0.026350   0.197133
    15  H   -0.345091   0.500382
    16  H   -0.277761   0.418976
    17  H   -0.741916   0.936851
    18  H    0.218309  -0.055858
    19  H   -0.239612   0.426098
    20  H    0.041301   0.110263
    21  H    0.049791   0.085144
    22  H    0.121504   0.029079
    23  H    0.092700   0.009803
    24  H    0.145841  -0.003098
    25  H    0.250632  -0.009309
 Sum of Mulliken charges =  -1.00000   1.00000

 Dipole moment (field-independent basis, Debye):
    X=             -4.4443    Y=             -1.4902    Z=              0.7381  Tot=              4.7452
 Quadrupole moment (field-independent basis, Debye-Ang):
   XX=           -142.0533   YY=           -108.3927   ZZ=            -95.6659
   XY=              6.0308   XZ=              0.9430   YZ=              0.2425

 Summary of Natural Population Analysis:

                                       Natural Population
                Natural  -----------------------------------------------
    Atom  No    Charge         Core      Valence    Rydberg      Total
 -----------------------------------------------------------------------
      C    1   -0.30206      0.99965     2.29616    0.00625     3.30206
      C    2    0.06555      0.99958     1.91954    0.01532     2.93445
      C    3   -0.21649      0.99958     2.20680    0.01011     3.21649
      C    4    0.03079      0.99953     1.95665    0.01303     2.96921
      C    5   -0.01431      0.99952     1.99999    0.01480     3.01431
      N    6   -0.26564      0.99970     2.75551    0.01043     3.76564
      C    7    0.17171      0.99958     1.81170    0.01701     2.82829
      N    8   -0.16723      0.99959     2.65926    0.00839     3.66723
      C    9    0.05863      0.99956     1.93159    0.01022     2.94137
      C   10   -0.14681      0.99958     2.13732    0.00991     3.14681
      C   11   -0.08011      0.99958     2.06993    0.01059     3.08011
      C   12   -0.08212      0.99952     2.07350    0.00910     3.08212
      O   13   -0.37388      0.99990     3.36703    0.00696     4.37388
      H   14    0.10039      0.00000     0.39811    0.00150     0.39961
      H   15    0.10259      0.00000     0.39621    0.00120     0.39741
      H   16    0.10394      0.00000     0.39377    0.00229     0.39606
      H   17    0.08586      0.00000     0.41191    0.00224     0.41414
      H   18    0.10347      0.00000     0.39523    0.00129     0.39653
      H   19    0.10979      0.00000     0.38917    0.00104     0.39021
      H   20    0.09228      0.00000     0.40631    0.00140     0.40772
      H   21    0.10316      0.00000     0.39526    0.00157     0.39684
      H   22    0.09900      0.00000     0.40023    0.00077     0.40100
      H   23    0.09211      0.00000     0.40690    0.00099     0.40789
      H   24    0.10089      0.00000     0.39810    0.00101     0.39911
      H   25    0.22849      0.00000     0.26859    0.00292     0.27151
 =======================================================================
   * Total *   -0.00000     12.99488    33.84478    0.16034    47.00000

 Normal termination of Gaussian 16 at Thu Dec 10 00:09:25 2020.
