 Gaussian 16, Revision A.03,

 -----------------------------------------------------------
 # opt freq B3LYP/6-31G(d) empiricaldispersion=gd3bj scf=xqc
 -----------------------------------------------------------

 ------------------------------
 CID_65944565_JID_5807_neutraal
 ------------------------------
 Symbolic Z-matrix:
 Charge =  0 Multiplicity = 1

 SCF Done:  E(RB3LYP) =  -666.263346671     A.U. after   15 cycles
 SCF Done:  E(RB3LYP) =  -666.268320852     A.U. after   12 cycles
 SCF Done:  E(RB3LYP) =  -666.268951091     A.U. after   12 cycles
 SCF Done:  E(RB3LYP) =  -666.269155406     A.U. after   12 cycles
 SCF Done:  E(RB3LYP) =  -666.269288400     A.U. after   11 cycles
 SCF Done:  E(RB3LYP) =  -666.269421310     A.U. after   11 cycles
 SCF Done:  E(RB3LYP) =  -666.269477569     A.U. after   11 cycles
 SCF Done:  E(RB3LYP) =  -666.269542280     A.U. after   11 cycles
 SCF Done:  E(RB3LYP) =  -666.269659637     A.U. after   11 cycles
 SCF Done:  E(RB3LYP) =  -666.269724284     A.U. after   11 cycles
 SCF Done:  E(RB3LYP) =  -666.269852630     A.U. after    7 cycles
 SCF Done:  E(RB3LYP) =  -666.269852648     A.U. after    7 cycles
 SCF Done:  E(RB3LYP) =  -666.269852666     A.U. after    7 cycles
 SCF Done:  E(RB3LYP) =  -666.269852680     A.U. after    7 cycles
 SCF Done:  E(RB3LYP) =  -666.269852685     A.U. after    6 cycles
 Optimization completed.
    -- Stationary point found.
 Normal termination of Gaussian 16 at Thu Dec 10 17:27:21 2020.

 --------------------------------------------------------------------
 #N Geom=AllCheck Guess=TCheck SCRF=Check GenChk RB3LYP/6-31G(d) Freq
 --------------------------------------------------------------------

 Structure from the checkpoint file:  "JID_5807.chk"
 ------------------------------
 CID_65944565_JID_5807_neutraal
 ------------------------------
 Charge =  0 Multiplicity = 1

 SCF Done:  E(RB3LYP) =  -666.269852685     A.U. after    1 cycles

  Exact polarizability: 165.784   3.896 121.199   7.763  -8.005 115.747
 Approx polarizability: 201.207  13.713 190.145  19.673 -19.956 182.692

                      1                      2                      3
                      A                      A                      A
 Frequencies --     13.5734                20.2366                34.1816
 Red. masses --      3.9397                 3.2826                 4.8686
 Frc consts  --      0.0004                 0.0008                 0.0034
 IR Inten    --      0.6809                 0.4445                 5.5526

                      4                      5                      6
                      A                      A                      A
 Frequencies --     64.9930               100.5608               134.1568
 Red. masses --      3.2402                 3.1949                 3.5236
 Frc consts  --      0.0081                 0.0190                 0.0374
 IR Inten    --      0.1808                 0.7908                 2.4518

                      7                      8                      9
                      A                      A                      A
 Frequencies --    149.5169               198.1136               211.2454
 Red. masses --      3.1168                 2.6311                 3.1695
 Frc consts  --      0.0411                 0.0608                 0.0833
 IR Inten    --      1.8885                 3.7799                 1.2710

                     10                     11                     12
                      A                      A                      A
 Frequencies --    248.0461               275.0266               286.7789
 Red. masses --      1.1313                 2.6059                 2.1801
 Frc consts  --      0.0410                 0.1161                 0.1056
 IR Inten    --      0.9425                13.9884                 7.3698

                     13                     14                     15
                      A                      A                      A
 Frequencies --    327.0352               362.3547               374.3224
 Red. masses --      1.2957                 3.3260                 2.0960
 Frc consts  --      0.0816                 0.2573                 0.1730
 IR Inten    --     44.1464                 6.0274                28.4806

                     16                     17                     18
                      A                      A                      A
 Frequencies --    388.8583               404.9843               448.0021
 Red. masses --      2.3153                 2.4745                 2.4971
 Frc consts  --      0.2063                 0.2391                 0.2953
 IR Inten    --      1.3206                17.0021                 3.3493

                     19                     20                     21
                      A                      A                      A
 Frequencies --    481.6531               548.1789               604.7274
 Red. masses --      2.2007                 3.0707                 3.3189
 Frc consts  --      0.3008                 0.5437                 0.7151
 IR Inten    --      1.5481                 1.1390                 0.7134

                     22                     23                     24
                      A                      A                      A
 Frequencies --    644.6490               681.7588               725.4868
 Red. masses --      3.8382                 5.1490                 4.5704
 Frc consts  --      0.9398                 1.4100                 1.4173
 IR Inten    --      1.8184                 4.7550                 9.5050

                     25                     26                     27
                      A                      A                      A
 Frequencies --    767.9642               811.4503               822.8739
 Red. masses --      1.4676                 2.7804                 2.4674
 Frc consts  --      0.5100                 1.0787                 0.9844
 IR Inten    --     19.2860                18.0281                 2.1260

                     28                     29                     30
                      A                      A                      A
 Frequencies --    850.2681               878.1819               898.7685
 Red. masses --      3.8626                 1.8704                 1.9470
 Frc consts  --      1.6453                 0.8499                 0.9266
 IR Inten    --      1.8820                79.6868                 2.3375

                     31                     32                     33
                      A                      A                      A
 Frequencies --    927.4903               931.0706               935.0978
 Red. masses --      1.5118                 1.9382                 1.7724
 Frc consts  --      0.7663                 0.9900                 0.9131
 IR Inten    --     41.4278                 4.6981                37.9041

                     34                     35                     36
                      A                      A                      A
 Frequencies --    959.9406               979.6936               999.9610
 Red. masses --      1.3538                 1.6523                 1.3008
 Frc consts  --      0.7350                 0.9344                 0.7664
 IR Inten    --      0.3302                 3.4339                 3.4298

                     37                     38                     39
                      A                      A                      A
 Frequencies --   1009.2672              1047.7317              1065.7091
 Red. masses --      1.7378                 6.7567                 4.0827
 Frc consts  --      1.0429                 4.3700                 2.7320
 IR Inten    --      0.5929                 7.0986                32.5099

                     40                     41                     42
                      A                      A                      A
 Frequencies --   1083.9894              1092.1647              1138.1175
 Red. masses --      2.3613                 2.7455                 2.0553
 Frc consts  --      1.6347                 1.9295                 1.5686
 IR Inten    --     14.7134                 6.1263                22.5832

                     43                     44                     45
                      A                      A                      A
 Frequencies --   1138.5762              1148.0906              1159.7176
 Red. masses --      1.9095                 2.7960                 2.1665
 Frc consts  --      1.4585                 2.1714                 1.7168
 IR Inten    --      1.4952                23.6678                31.4421

                     46                     47                     48
                      A                      A                      A
 Frequencies --   1171.2140              1187.7644              1209.9595
 Red. masses --      1.8707                 1.4585                 1.8861
 Frc consts  --      1.5119                 1.2123                 1.6269
 IR Inten    --      0.7746                 6.3735                12.8215

                     49                     50                     51
                      A                      A                      A
 Frequencies --   1220.2365              1231.3017              1250.7000
 Red. masses --      1.6588                 1.3048                 1.4938
 Frc consts  --      1.4552                 1.1655                 1.3767
 IR Inten    --      8.5093                 2.0336                12.3495

                     52                     53                     54
                      A                      A                      A
 Frequencies --   1275.1867              1282.4192              1307.7789
 Red. masses --      1.2824                 3.9153                 1.7845
 Frc consts  --      1.2287                 3.7938                 1.7982
 IR Inten    --      4.4790                19.4868                 9.0012

                     55                     56                     57
                      A                      A                      A
 Frequencies --   1327.7131              1339.2654              1359.9378
 Red. masses --      1.3939                 1.7011                 1.3519
 Frc consts  --      1.4477                 1.7977                 1.4731
 IR Inten    --      2.7001                 7.5557                 1.0906

                     58                     59                     60
                      A                      A                      A
 Frequencies --   1371.8183              1376.6678              1388.1819
 Red. masses --      1.8175                 1.3317                 1.3947
 Frc consts  --      2.0152                 1.4870                 1.5835
 IR Inten    --     12.4547                39.3117                 6.7439

                     61                     62                     63
                      A                      A                      A
 Frequencies --   1399.3233              1400.4145              1410.9331
 Red. masses --      1.3630                 1.7692                 1.5194
 Frc consts  --      1.5724                 2.0443                 1.7821
 IR Inten    --      4.6673                 6.7453                 3.9608

                     64                     65                     66
                      A                      A                      A
 Frequencies --   1428.8867              1440.6817              1456.5191
 Red. masses --      1.5597                 1.2549                 1.4520
 Frc consts  --      1.8762                 1.5346                 1.8148
 IR Inten    --      1.2691                 1.9495                13.8557

                     67                     68                     69
                      A                      A                      A
 Frequencies --   1493.0837              1497.9414              1507.3955
 Red. masses --      1.9842                 1.4255                 1.2165
 Frc consts  --      2.6062                 1.8845                 1.6287
 IR Inten    --     16.8886                 8.0005                10.0295

                     70                     71                     72
                      A                      A                      A
 Frequencies --   1518.2746              1526.7558              1530.8973
 Red. masses --      1.1008                 1.0508                 1.0458
 Frc consts  --      1.4950                 1.4431                 1.4440
 IR Inten    --      1.6128                 2.7739                 5.8435

                     73                     74                     75
                      A                      A                      A
 Frequencies --   1536.1065              1551.8023              1564.1183
 Red. masses --      1.0945                 1.0873                 1.0908
 Frc consts  --      1.5216                 1.5426                 1.5723
 IR Inten    --      2.0946                 3.2884                 1.3911

                     76                     77                     78
                      A                      A                      A
 Frequencies --   1581.7493              1701.3505              2930.1955
 Red. masses --      5.6271                 1.0840                 1.0728
 Frc consts  --      8.2948                 1.8487                 5.4272
 IR Inten    --      1.9395                56.5755                68.5412

                     79                     80                     81
                      A                      A                      A
 Frequencies --   2958.3610              3011.3683              3027.4428
 Red. masses --      1.0732                 1.0672                 1.0828
 Frc consts  --      5.5341                 5.7018                 5.8473
 IR Inten    --     72.3975                55.3118                11.2223

                     82                     83                     84
                      A                      A                      A
 Frequencies --   3040.0294              3048.3619              3050.2446
 Red. masses --      1.0359                 1.0725                 1.0677
 Frc consts  --      5.6408                 5.8718                 5.8529
 IR Inten    --     33.8694                13.4347                64.3698

                     85                     86                     87
                      A                      A                      A
 Frequencies --   3061.3475              3063.4844              3064.8823
 Red. masses --      1.0878                 1.0811                 1.0866
 Frc consts  --      6.0067                 5.9778                 6.0139
 IR Inten    --      9.0697                88.3266                31.8802

                     88                     89                     90
                      A                      A                      A
 Frequencies --   3090.8211              3099.8377              3105.1118
 Red. masses --      1.0612                 1.1035                 1.1026
 Frc consts  --      5.9731                 6.2475                 6.2637
 IR Inten    --     29.0916                14.7666                13.6038

                     91                     92                     93
                      A                      A                      A
 Frequencies --   3109.0613              3112.0762              3143.4665
 Red. masses --      1.1024                 1.1031                 1.1072
 Frc consts  --      6.2784                 6.2945                 6.4462
 IR Inten    --     30.3549                66.4678                10.0752

                     94                     95                     96
                      A                      A                      A
 Frequencies --   3294.7855              3466.5279              3556.6702
 Red. masses --      1.0989                 1.0503                 1.0927
 Frc consts  --      7.0285                 7.4362                 8.1439
 IR Inten    --      0.2690                26.7253                 9.5672

 - Thermochemistry -
 -------------------
 Temperature   298.150 Kelvin.  Pressure   1.00000 Atm.
 Atom     1 has atomic number  6 and mass  12.00000

 Molecular mass:   209.16405 amu.
 Principal axes and moments of inertia in atomic units:
                           1         2         3
     Eigenvalues --  1308.482476960.754557183.24514
           X            0.99995  -0.00952   0.00022
           Y            0.00952   0.99927  -0.03691
           Z            0.00013   0.03691   0.99932
 This molecule is an asymmetric top.
 Rotational symmetry number  1.
 Warning -- assumption of classical behavior for rotation
           may cause significant error
 Rotational temperatures (Kelvin)      0.06619     0.01244     0.01206
 Rotational constants (GHZ):           1.37926     0.25927     0.25124
 Zero-point vibrational energy     792257.0 (Joules/Mol)
                                  189.35396 (Kcal/Mol)
 Warning -- explicit consideration of  21 degrees of freedom as
           vibrations may cause significant error
 Vibrational temperatures:     19.53    29.12    49.18    93.51   144.68
          (Kelvin)            193.02   215.12   285.04   303.94   356.88
                              395.70   412.61   470.53   521.35   538.57
                              559.48   582.68   644.58   692.99   788.71
                              870.07   927.51   980.90  1043.81  1104.93
                             1167.50  1183.93  1223.35  1263.51  1293.13
                             1334.45  1339.60  1345.40  1381.14  1409.56
                             1438.72  1452.11  1507.45  1533.32  1559.62
                             1571.38  1637.50  1638.16  1651.85  1668.57
                             1685.12  1708.93  1740.86  1755.65  1771.57
                             1799.48  1834.71  1845.12  1881.60  1910.28
                             1926.90  1956.65  1973.74  1980.72  1997.28
                             2013.31  2014.88  2030.02  2055.85  2072.82
                             2095.61  2148.21  2155.20  2168.81  2184.46
                             2196.66  2202.62  2210.11  2232.70  2250.42
                             2275.78  2447.86  4215.90  4256.42  4332.69
                             4355.81  4373.92  4385.91  4388.62  4404.60
                             4407.67  4409.68  4447.00  4459.98  4467.56
                             4473.25  4477.58  4522.75  4740.46  4987.56
                             5117.26

 Zero-point correction=                           0.301755 (Hartree/Particle)
 Thermal correction to Energy=                    0.316691
 Thermal correction to Enthalpy=                  0.317636
 Thermal correction to Gibbs Free Energy=         0.256715
 Sum of electronic and zero-point Energies=           -665.968098
 Sum of electronic and thermal Energies=              -665.953161
 Sum of electronic and thermal Enthalpies=            -665.952217
 Sum of electronic and thermal Free Energies=         -666.013138

                     E (Thermal)             CV                S
                      KCal/Mol        Cal/Mol-Kelvin    Cal/Mol-Kelvin
 Total                  198.727             55.933            128.218
 Electronic               0.000              0.000              0.000
 Translational            0.889              2.981             41.918
 Rotational               0.889              2.981             32.548
 Vibrational            196.949             49.971             53.752
 Vibration     1          0.593              1.986              7.404
 Vibration     2          0.593              1.986              6.611
 Vibration     3          0.594              1.983              5.571
 Vibration     4          0.597              1.971              4.300
 Vibration     5          0.604              1.949              3.443
 Vibration     6          0.613              1.919              2.886
 Vibration     7          0.618              1.903              2.678
 Vibration     8          0.637              1.843              2.151
 Vibration     9          0.643              1.824              2.033
 Vibration    10          0.662              1.766              1.744
 Vibration    11          0.677              1.720              1.564
 Vibration    12          0.684              1.698              1.493
 Vibration    13          0.711              1.621              1.275
 Vibration    14          0.736              1.550              1.112
 Vibration    15          0.745              1.525              1.062
 Vibration    16          0.757              1.494              1.005
 Vibration    17          0.770              1.459              0.945
 Vibration    18          0.807              1.365              0.802
 Vibration    19          0.838              1.291              0.706
 Vibration    20          0.903              1.144              0.548
 Vibration    21          0.963              1.022              0.442

 Optimization completed.
    -- Stationary point found.
 Normal termination of Gaussian 16 at Thu Dec 10 17:37:41 2020.

 ----------------------------------------------------------------------
 # B3LYP/6-311++G(d,p) empiricaldispersion=gd3bj scf=xqc pop=npa geom=c
 heck
 ----------------------------------------------------------------------

 --------------------------------------
 CID_65944565_JID_5807_Energie_neutraal
 --------------------------------------
 Structure from the checkpoint file:  "JID_5807.chk"
 Charge =  0 Multiplicity = 1

 SCF Done:  E(RB3LYP) =  -666.456296734     A.U. after   14 cycles
 Normal termination of Gaussian 16 at Thu Dec 10 17:42:23 2020.

 ----------------------------------------------------------------------
 # B3LYP/6-311++G(d,p) empiricaldispersion=gd3bj scf=xqc pop=npa geom=c
 heck
 ----------------------------------------------------------------------

 ------------------------------------
 CID_65944565_JID_5807_Energie_kation
 ------------------------------------
 Structure from the checkpoint file:  "JID_5807.chk"
 Charge =  1 Multiplicity = 2

 SCF Done:  E(UB3LYP) =  -666.178004672     A.U. after   26 cycles
 Normal termination of Gaussian 16 at Thu Dec 10 17:55:24 2020.
 Gaussian 16:  ES64L-G16RevA.03 25-Dec-2016

 ----------------------------------------------------------------------
 # B3LYP/6-311++G(d,p) empiricaldispersion=gd3bj scf=xqc pop=npa geom=c
 heck
 ----------------------------------------------------------------------

 -----------------------------------
 CID_65944565_JID_5807_Energie_anion
 -----------------------------------
 Structure from the checkpoint file:  "JID_5807.chk"
 Charge = -1 Multiplicity = 2

                         Standard orientation:
 ---------------------------------------------------------------------
 Center     Atomic      Atomic             Coordinates (Angstroms)
 Number     Number       Type             X           Y           Z
 ---------------------------------------------------------------------
      1          6           0       -4.373332    1.861178    0.263816
      2          6           0       -3.165300    0.951598    0.468344
      3          6           0       -3.466936   -0.361552    1.214714
      4          6           0       -2.292173   -1.245089    0.801075
      5          7           0       -2.153138   -0.943036   -0.620508
      6          6           0       -2.506887    0.472195   -0.846940
      7          6           0       -0.933889   -1.412888   -1.266302
      8          6           0        0.337880   -0.781894   -0.765016
      9          6           0        1.176276   -1.161248    0.265954
     10          7           0        2.112930   -0.182442    0.334514
     11          7           0        1.874657    0.763142   -0.601771
     12          7           0        0.807235    0.402129   -1.265017
     13          6           0        3.272408   -0.082200    1.219572
     14          6           0        4.590728   -0.009757    0.447594
     15          7           0        4.782278    1.327222   -0.106881
     16          1           0       -4.100374    2.770645   -0.284045
     17          1           0       -4.807660    2.166852    1.222909
     18          1           0       -5.152719    1.345135   -0.310496
     19          1           0       -2.407475    1.496470    1.047761
     20          1           0       -3.546848   -0.228144    2.298446
     21          1           0       -4.406267   -0.795991    0.850941
     22          1           0       -2.474912   -2.317847    0.946002
     23          1           0       -1.395522   -0.976820    1.393128
     24          1           0       -3.206367    0.541164   -1.693023
     25          1           0       -1.631321    1.086167   -1.093842
     26          1           0       -0.878681   -2.500696   -1.136011
     27          1           0       -1.017666   -1.217402   -2.340760
     28          1           0        1.184068   -2.017261    0.922836
     29          1           0        3.165007    0.812713    1.839724
     30          1           0        3.247779   -0.965303    1.862534
     31          1           0        5.400960   -0.209325    1.160142
     32          1           0        4.598736   -0.833269   -0.289910
     33          1           0        5.629206    1.348331   -0.671279
     34          1           0        3.999683    1.543418   -0.724274
 ---------------------------------------------------------------------

 SCF Done:  E(UB3LYP) =  -666.446069002     A.U. after   33 cycles
 SCF Done:  E(UB3LYP) =  -666.446069002     a.u. after    1 cycles

 The electronic state is 2-A.
 Alpha  occ. eigenvalues --  -14.30775 -14.27096 -14.23684 -14.20759 -14.19591
 Alpha  occ. eigenvalues --  -10.12219 -10.11658 -10.10998 -10.10412 -10.10132
 Alpha  occ. eigenvalues --  -10.09520 -10.09402 -10.08675 -10.07944 -10.07552
 Alpha  occ. eigenvalues --   -1.00145  -0.84095  -0.82468  -0.78599  -0.72688
 Alpha  occ. eigenvalues --   -0.70093  -0.66033  -0.64643  -0.61292  -0.57420
 Alpha  occ. eigenvalues --   -0.55068  -0.51941  -0.49719  -0.47757  -0.47197
 Alpha  occ. eigenvalues --   -0.43058  -0.41190  -0.40360  -0.39191  -0.38657
 Alpha  occ. eigenvalues --   -0.36891  -0.35911  -0.34615  -0.34449  -0.33187
 Alpha  occ. eigenvalues --   -0.32621  -0.31343  -0.29605  -0.29438  -0.28869
 Alpha  occ. eigenvalues --   -0.27948  -0.27196  -0.27010  -0.24556  -0.23980
 Alpha  occ. eigenvalues --   -0.23838  -0.23190  -0.19551  -0.17984  -0.16507
 Alpha  occ. eigenvalues --   -0.15029  -0.11787   0.04162
 Alpha virt. eigenvalues --    0.05811   0.06796   0.07204   0.07975   0.07996
 Alpha virt. eigenvalues --    0.08579   0.09178   0.09440   0.09963   0.10136
 Alpha virt. eigenvalues --    0.10504   0.11358   0.11561   0.12211   0.12520

  Beta  occ. eigenvalues --  -14.30779 -14.27082 -14.23676 -14.20759 -14.19578
  Beta  occ. eigenvalues --  -10.12182 -10.11625 -10.10993 -10.10380 -10.10134
  Beta  occ. eigenvalues --  -10.09502 -10.09398 -10.08670 -10.07934 -10.07540
  Beta  occ. eigenvalues --   -1.00132  -0.84086  -0.82450  -0.78573  -0.72670
  Beta  occ. eigenvalues --   -0.70073  -0.65984  -0.64616  -0.61274  -0.57394
  Beta  occ. eigenvalues --   -0.55006  -0.51910  -0.49670  -0.47717  -0.47172
  Beta  occ. eigenvalues --   -0.42994  -0.41167  -0.40323  -0.39143  -0.38636
  Beta  occ. eigenvalues --   -0.36835  -0.35879  -0.34594  -0.34427  -0.33170
  Beta  occ. eigenvalues --   -0.32604  -0.31327  -0.29563  -0.29376  -0.28829
  Beta  occ. eigenvalues --   -0.27917  -0.27173  -0.26996  -0.24532  -0.23961
  Beta  occ. eigenvalues --   -0.23819  -0.23172  -0.19526  -0.17970  -0.16485
  Beta  occ. eigenvalues --   -0.15000  -0.11780
  Beta virt. eigenvalues --    0.05933   0.06899   0.07403   0.07540   0.08066
  Beta virt. eigenvalues --    0.08508   0.09053   0.09411   0.09871   0.10264
  Beta virt. eigenvalues --    0.10554   0.10752   0.11419   0.11897   0.12389

 Mulliken charges and spin densities:
               1          2
     1  C    0.036290  -0.764724
     2  C   -0.270518   0.616185
     3  C    0.143232  -0.635954
     4  C   -0.123160  -0.122996
     5  N    0.183715   0.065556
     6  C   -0.368319  -0.257194
     7  C   -0.003446  -0.803271
     8  C    0.505690  -0.307417
     9  C    0.022372  -0.336024
    10  N    0.269215   0.097419
    11  N   -0.431044   0.198828
    12  N    0.049845  -0.023707
    13  C    0.350272  -0.489152
    14  C    0.988384  -1.443596
    15  N   -0.506138   0.143024
    16  H    0.054963   0.079981
    17  H   -0.031374   0.164721
    18  H    0.073619   0.060146
    19  H    0.053300   0.116191
    20  H   -0.174138   0.331202
    21  H    0.142092   0.002476
    22  H   -0.303669   0.465601
    23  H    0.103182   0.027905
    24  H    0.092567   0.064360
    25  H    0.161411   0.002998
    26  H    0.067638   0.118619
    27  H    0.133317   0.049771
    28  H   -1.243214   1.439649
    29  H    0.025891   0.175224
    30  H   -0.596041   0.769353
    31  H   -0.431605   0.607339
    32  H   -0.239462   0.380483
    33  H    0.048081   0.173627
    34  H    0.217051   0.033379
 Sum of Mulliken charges =  -1.00000   1.00000

 Dipole moment (field-independent basis, Debye):
    X=             -6.3752    Y=              3.3350    Z=             -4.4864  Tot=              8.4789
 Quadrupole moment (field-independent basis, Debye-Ang):
   XX=           -179.8148   YY=           -138.3689   ZZ=           -131.8912
   XY=              5.8183   XZ=             -9.6477   YZ=             10.9169

 Summary of Natural Population Analysis:

                                       Natural Population
                Natural  -----------------------------------------------
    Atom  No    Charge         Core      Valence    Rydberg      Total
 -----------------------------------------------------------------------
      C    1   -0.28110      0.99965     2.27670    0.00475     3.28110
      C    2   -0.11977      0.99961     2.10978    0.01038     3.11977
      C    3   -0.19066      0.99962     2.18173    0.00931     3.19066
      C    4   -0.08397      0.99962     2.07287    0.01148     3.08397
      N    5   -0.28075      0.99973     2.76935    0.01167     3.78075
      C    6   -0.08198      0.99961     2.07354    0.00883     3.08198
      C    7   -0.09596      0.99958     2.08423    0.01214     3.09596
      C    8    0.02923      0.99956     1.95722    0.01399     2.97077
      C    9   -0.01419      0.99947     2.00250    0.01221     3.01419
      N   10   -0.10083      0.99966     2.58683    0.01434     3.60083
      N   11   -0.05631      0.99977     2.54144    0.01510     3.55631
      N   12   -0.14266      0.99972     2.62978    0.01316     3.64266
      C   13   -0.08877      0.99959     2.07623    0.01295     3.08877
      C   14   -0.09196      0.99964     2.08140    0.01092     3.09196
      N   15   -0.42909      0.99977     2.91871    0.01061     3.92909
      H   16    0.09819      0.00000     0.40100    0.00081     0.40181
      H   17    0.09861      0.00000     0.40048    0.00091     0.40139
      H   18    0.09533      0.00000     0.40371    0.00096     0.40467
      H   19    0.09676      0.00000     0.40188    0.00135     0.40324
      H   20    0.10175      0.00000     0.39740    0.00085     0.39825
      H   21    0.09423      0.00000     0.40459    0.00118     0.40577
      H   22    0.09538      0.00000     0.40315    0.00147     0.40462
      H   23    0.08417      0.00000     0.41376    0.00207     0.41583
      H   24    0.08575      0.00000     0.41293    0.00132     0.41425
      H   25    0.10042      0.00000     0.39794    0.00165     0.39958
      H   26    0.10147      0.00000     0.39747    0.00106     0.39853
      H   27    0.10234      0.00000     0.39659    0.00107     0.39766
      H   28    0.11778      0.00000     0.37793    0.00429     0.38222
      H   29    0.10543      0.00000     0.39292    0.00166     0.39457
      H   30    0.11286      0.00000     0.38170    0.00544     0.38714
      H   31    0.09717      0.00000     0.40056    0.00227     0.40283
      H   32    0.08285      0.00000     0.41514    0.00200     0.41715
      H   33    0.17263      0.00000     0.32591    0.00146     0.32737
      H   34    0.18565      0.00000     0.31159    0.00276     0.31435
 =======================================================================
   * Total *   -0.00000     14.99459    41.79896    0.20645    57.00000

 Normal termination of Gaussian 16 at Thu Dec 10 18:10:20 2020.
