 Gaussian 16, Revision A.03,

 -----------------------------------------------------------
 # opt freq B3LYP/6-31G(d) empiricaldispersion=gd3bj scf=xqc
 -----------------------------------------------------------

 -------------------------------
 CID_151273513_JID_6494_neutraal
 -------------------------------
 Symbolic Z-matrix:
 Charge =  0 Multiplicity = 1

 SCF Done:  E(RB3LYP) =  -703.118220500     A.U. after   17 cycles
 SCF Done:  E(RB3LYP) =  -703.125035565     A.U. after   14 cycles
 SCF Done:  E(RB3LYP) =  -703.125894313     A.U. after   14 cycles
 SCF Done:  E(RB3LYP) =  -703.126541368     A.U. after   13 cycles
 SCF Done:  E(RB3LYP) =  -703.126828614     A.U. after   14 cycles
 SCF Done:  E(RB3LYP) =  -703.126976531     A.U. after   13 cycles
 SCF Done:  E(RB3LYP) =  -703.127068782     A.U. after   12 cycles
 SCF Done:  E(RB3LYP) =  -703.127125759     A.U. after   11 cycles
 SCF Done:  E(RB3LYP) =  -703.127147129     A.U. after   10 cycles
 SCF Done:  E(RB3LYP) =  -703.127158966     A.U. after   11 cycles
 SCF Done:  E(RB3LYP) =  -703.127161341     A.U. after   10 cycles
 SCF Done:  E(RB3LYP) =  -703.127161810     A.U. after    8 cycles
 SCF Done:  E(RB3LYP) =  -703.127161874     A.U. after    8 cycles
 Optimization completed.
    -- Stationary point found.
 Normal termination of Gaussian 16 at Thu Dec 10 23:15:14 2020.

 --------------------------------------------------------------------
 #N Geom=AllCheck Guess=TCheck SCRF=Check GenChk RB3LYP/6-31G(d) Freq
 --------------------------------------------------------------------

 Structure from the checkpoint file:  "JID_6494.chk"
 -------------------------------
 CID_151273513_JID_6494_neutraal
 -------------------------------
 Charge =  0 Multiplicity = 1

 SCF Done:  E(RB3LYP) =  -703.127161874     A.U. after    1 cycles

  Exact polarizability: 159.656  11.713 190.407  -1.731  -7.422 110.324
 Approx polarizability: 204.306  31.252 310.966  -4.536 -25.421 170.638

                      1                      2                      3
                      A                      A                      A
 Frequencies --     30.0706                36.4355                70.1493
 Red. masses --      6.2894                 3.4044                 2.6216
 Frc consts  --      0.0034                 0.0027                 0.0076
 IR Inten    --      0.5379                 0.9834                 0.4569

                      4                      5                      6
                      A                      A                      A
 Frequencies --     86.5600                98.7041               116.0363
 Red. masses --      5.5824                 3.0925                 3.9716
 Frc consts  --      0.0246                 0.0178                 0.0315
 IR Inten    --      1.9611                 0.2655                 0.1557

                      7                      8                      9
                      A                      A                      A
 Frequencies --    125.2866               185.9138               226.8471
 Red. masses --      4.2681                 3.9939                 2.4592
 Frc consts  --      0.0395                 0.0813                 0.0746
 IR Inten    --      0.3147                 0.3269                 3.4255

                     10                     11                     12
                      A                      A                      A
 Frequencies --    243.9243               261.4453               297.3336
 Red. masses --      2.2626                 2.9471                 3.6561
 Frc consts  --      0.0793                 0.1187                 0.1904
 IR Inten    --      0.9228                 1.0726                 0.7981

                     13                     14                     15
                      A                      A                      A
 Frequencies --    336.2898               337.4370               374.3607
 Red. masses --      5.6829                 3.6791                 2.2216
 Frc consts  --      0.3787                 0.2468                 0.1834
 IR Inten    --      1.5018                 0.0719                 3.9382

                     16                     17                     18
                      A                      A                      A
 Frequencies --    453.3227               460.5597               506.8908
 Red. masses --      2.2751                 2.4208                 3.6606
 Frc consts  --      0.2755                 0.3025                 0.5542
 IR Inten    --      0.3981                 0.8879                 0.0095

                     19                     20                     21
                      A                      A                      A
 Frequencies --    543.7764               549.1858               583.5205
 Red. masses --     11.5585                 3.4908                 2.0604
 Frc consts  --      2.0137                 0.6203                 0.4133
 IR Inten    --      9.3554                 4.5165                 1.1339

                     22                     23                     24
                      A                      A                      A
 Frequencies --    613.2183               637.0726               656.1388
 Red. masses --      5.2059                 4.9667                 2.8828
 Frc consts  --      1.1534                 1.1877                 0.7312
 IR Inten    --     11.1892                31.2875                 6.4670

                     25                     26                     27
                      A                      A                      A
 Frequencies --    694.1008               769.4185               804.8018
 Red. masses --      2.7457                 2.2024                 3.7363
 Frc consts  --      0.7794                 0.7682                 1.4258
 IR Inten    --      5.3999                 1.1914                 7.8768

                     28                     29                     30
                      A                      A                      A
 Frequencies --    831.1944               841.2848               862.8465
 Red. masses --      1.7409                 2.2333                 2.5273
 Frc consts  --      0.7086                 0.9313                 1.1086
 IR Inten    --      5.3094                 2.7309                 1.8899

                     31                     32                     33
                      A                      A                      A
 Frequencies --    870.2286               899.8893               912.5087
 Red. masses --      2.1302                 3.0608                 2.5620
 Frc consts  --      0.9505                 1.4604                 1.2569
 IR Inten    --      1.3855                 5.6061                 0.4697

                     34                     35                     36
                      A                      A                      A
 Frequencies --    928.8943               932.9493               956.7201
 Red. masses --      2.0079                 1.6664                 2.3867
 Frc consts  --      1.0208                 0.8545                 1.2871
 IR Inten    --     25.0901                11.0934                 4.0933

                     37                     38                     39
                      A                      A                      A
 Frequencies --    975.4658               994.4782              1010.5176
 Red. masses --      1.9466                 2.1071                 2.1289
 Frc consts  --      1.0913                 1.2278                 1.2808
 IR Inten    --      5.7449                 3.5905                11.9199

                     40                     41                     42
                      A                      A                      A
 Frequencies --   1027.7772              1045.8768              1050.3591
 Red. masses --      1.7446                 1.8776                 1.8805
 Frc consts  --      1.0858                 1.2101                 1.2224
 IR Inten    --      7.3512                 0.7241                 2.2415

                     43                     44                     45
                      A                      A                      A
 Frequencies --   1093.5595              1122.2878              1164.2180
 Red. masses --      1.6924                 2.0955                 1.8024
 Frc consts  --      1.1924                 1.5551                 1.4393
 IR Inten    --      2.2444                 4.2109                14.4593

                     46                     47                     48
                      A                      A                      A
 Frequencies --   1174.6897              1178.3213              1193.0028
 Red. masses --      1.4347                 1.3450                 1.4643
 Frc consts  --      1.1664                 1.1002                 1.2279
 IR Inten    --      1.5145                 3.1062                 1.6580

                     49                     50                     51
                      A                      A                      A
 Frequencies --   1206.3064              1238.0925              1247.7526
 Red. masses --      3.4076                 3.7802                 1.4297
 Frc consts  --      2.9216                 3.4140                 1.3115
 IR Inten    --     37.8659               111.2470                 3.7605

                     52                     53                     54
                      A                      A                      A
 Frequencies --   1271.9459              1282.6821              1285.8269
 Red. masses --      1.3670                 1.4932                 1.3843
 Frc consts  --      1.3030                 1.4475                 1.3485
 IR Inten    --      4.3873                11.7379                 2.6439

                     55                     56                     57
                      A                      A                      A
 Frequencies --   1320.9255              1325.6971              1340.2002
 Red. masses --      1.3342                 1.5912                 1.3688
 Frc consts  --      1.3716                 1.6477                 1.4485
 IR Inten    --      1.1187                30.6795                 0.9603

                     58                     59                     60
                      A                      A                      A
 Frequencies --   1355.2419              1357.8898              1363.1452
 Red. masses --      1.9567                 1.4518                 1.4141
 Frc consts  --      2.1175                 1.5772                 1.5481
 IR Inten    --      4.4374                 2.5018                 6.4643

                     61                     62                     63
                      A                      A                      A
 Frequencies --   1365.4283              1372.7200              1385.2873
 Red. masses --      1.4275                 1.3052                 1.5336
 Frc consts  --      1.5681                 1.4490                 1.7340
 IR Inten    --      1.1646                 7.4943                 4.0326

                     64                     65                     66
                      A                      A                      A
 Frequencies --   1403.4688              1413.2325              1488.9330
 Red. masses --      1.4589                 1.4277                 1.0812
 Frc consts  --      1.6931                 1.6800                 1.4122
 IR Inten    --      2.1445                12.3640                 4.0630

                     67                     68                     69
                      A                      A                      A
 Frequencies --   1495.1760              1499.4959              1508.0511
 Red. masses --      1.0876                 1.0895                 1.0934
 Frc consts  --      1.4325                 1.4433                 1.4650
 IR Inten    --      5.6170                 4.9881                 6.4023

                     70                     71                     72
                      A                      A                      A
 Frequencies --   1518.1196              1523.2113              1529.9672
 Red. masses --      1.0839                 1.0862                 1.0988
 Frc consts  --      1.4718                 1.4849                 1.5154
 IR Inten    --      5.5271                 3.4835                 5.2616

                     73                     74                     75
                      A                      A                      A
 Frequencies --   1537.8228              1700.8497              1758.8633
 Red. masses --      1.1061                 9.5194                11.8220
 Frc consts  --      1.5412                16.2253                21.5479
 IR Inten    --      0.2936                16.0133               160.8696

                     76                     77                     78
                      A                      A                      A
 Frequencies --   2234.6857              3030.5715              3036.0770
 Red. masses --     13.9908                 1.0718                 1.0657
 Frc consts  --     41.1648                 5.7996                 5.7877
 IR Inten    --    888.7219                11.8538                19.0270

                     79                     80                     81
                      A                      A                      A
 Frequencies --   3037.9762              3049.1438              3051.5546
 Red. masses --      1.0660                 1.0706                 1.0672
 Frc consts  --      5.7964                 5.8644                 5.8551
 IR Inten    --     20.8709                24.6524                11.1184

                     82                     83                     84
                      A                      A                      A
 Frequencies --   3054.9895              3055.7671              3056.6054
 Red. masses --      1.0725                 1.0637                 1.0690
 Frc consts  --      5.8976                 5.8521                 5.8846
 IR Inten    --     39.4032                35.7052                25.5972

                     85                     86                     87
                      A                      A                      A
 Frequencies --   3062.3465              3085.4113              3088.6880
 Red. masses --      1.0647                 1.0984                 1.0999
 Frc consts  --      5.8829                 6.1607                 6.1824
 IR Inten    --     13.2119                45.4243                32.4833

                     88                     89                     90
                      A                      A                      A
 Frequencies --   3096.0131              3103.7078              3110.6843
 Red. masses --      1.0986                 1.1032                 1.0960
 Frc consts  --      6.2043                 6.2616                 6.2483
 IR Inten    --     12.9309                48.9561                38.0591

                     91                     92                     93
                      A                      A                      A
 Frequencies --   3116.4314              3126.1730              3141.3070
 Red. masses --      1.1024                 1.0941                 1.0944
 Frc consts  --      6.3079                 6.3000                 6.3625
 IR Inten    --     38.6436                17.0537                11.7111

 - Thermochemistry -
 -------------------
 Temperature   298.150 Kelvin.  Pressure   1.00000 Atm.
 Atom     1 has atomic number  6 and mass  12.00000

 Molecular mass:   219.14840 amu.
 Principal axes and moments of inertia in atomic units:
                           1         2         3
     Eigenvalues --  3236.553664460.962986867.29666
           X            0.99099  -0.13394   0.00036
           Y            0.13394   0.99099  -0.00128
           Z           -0.00018   0.00131   1.00000
 This molecule is an asymmetric top.
 Rotational symmetry number  1.
 Warning -- assumption of classical behavior for rotation
           may cause significant error
 Rotational temperatures (Kelvin)      0.02676     0.01942     0.01261
 Rotational constants (GHZ):           0.55761     0.40456     0.26280
 Zero-point vibrational energy     740490.5 (Joules/Mol)
                                  176.98147 (Kcal/Mol)
 Warning -- explicit consideration of  22 degrees of freedom as
           vibrations may cause significant error
 Vibrational temperatures:     43.26    52.42   100.93   124.54   142.01
          (Kelvin)            166.95   180.26   267.49   326.38   350.95
                              376.16   427.80   483.85   485.50   538.62
                              652.23   662.64   729.30   782.37   790.16
                              839.56   882.28   916.61   944.04   998.66
                             1107.02  1157.93  1195.90  1210.42  1241.44
                             1252.06  1294.74  1312.90  1336.47  1342.31
                             1376.51  1403.48  1430.83  1453.91  1478.74
                             1504.78  1511.23  1573.39  1614.72  1675.05
                             1690.12  1695.34  1716.46  1735.61  1781.34
                             1795.24  1830.05  1845.49  1850.02  1900.52
                             1907.38  1928.25  1949.89  1953.70  1961.26
                             1964.55  1975.04  1993.12  2019.28  2033.33
                             2142.24  2151.22  2157.44  2169.75  2184.24
                             2191.56  2201.28  2212.58  2447.14  2530.61
                             3215.21  4360.32  4368.24  4370.97  4387.04
                             4390.51  4395.45  4396.57  4397.77  4406.03
                             4439.22  4443.93  4454.47  4465.54  4475.58
                             4483.85  4497.87  4519.64

 Zero-point correction=                           0.282038 (Hartree/Particle)
 Thermal correction to Energy=                    0.296919
 Thermal correction to Enthalpy=                  0.297863
 Thermal correction to Gibbs Free Energy=         0.238590
 Sum of electronic and zero-point Energies=           -702.845124
 Sum of electronic and thermal Energies=              -702.830243
 Sum of electronic and thermal Enthalpies=            -702.829299
 Sum of electronic and thermal Free Energies=         -702.888572

                     E (Thermal)             CV                S
                      KCal/Mol        Cal/Mol-Kelvin    Cal/Mol-Kelvin
 Total                  186.319             56.791            124.751
 Electronic               0.000              0.000              0.000
 Translational            0.889              2.981             42.057
 Rotational               0.889              2.981             32.961
 Vibrational            184.542             50.830             49.733
 Vibration     1          0.594              1.984              5.825
 Vibration     2          0.594              1.982              5.444
 Vibration     3          0.598              1.968              4.149
 Vibration     4          0.601              1.959              3.736
 Vibration     5          0.604              1.950              3.480
 Vibration     6          0.608              1.936              3.165
 Vibration     7          0.610              1.928              3.017
 Vibration     8          0.632              1.859              2.268
 Vibration     9          0.651              1.800              1.904
 Vibration    10          0.659              1.773              1.774
 Vibration    11          0.669              1.743              1.652
 Vibration    12          0.691              1.679              1.432
 Vibration    13          0.717              1.603              1.230
 Vibration    14          0.718              1.601              1.224
 Vibration    15          0.745              1.525              1.062
 Vibration    16          0.812              1.354              0.786
 Vibration    17          0.818              1.338              0.764
 Vibration    18          0.862              1.235              0.641
 Vibration    19          0.899              1.153              0.557
 Vibration    20          0.904              1.141              0.546
 Vibration    21          0.940              1.067              0.479
 Vibration    22          0.973              1.004              0.427

 Optimization completed.
    -- Stationary point found.
 Normal termination of Gaussian 16 at Thu Dec 10 23:25:59 2020.

 ----------------------------------------------------------------------
 # B3LYP/6-311++G(d,p) empiricaldispersion=gd3bj scf=xqc pop=npa geom=c
 heck
 ----------------------------------------------------------------------

 ---------------------------------------
 CID_151273513_JID_6494_Energie_neutraal
 ---------------------------------------
 Structure from the checkpoint file:  "JID_6494.chk"
 Charge =  0 Multiplicity = 1

 SCF Done:  E(RB3LYP) =  -703.313086372     A.U. after   16 cycles
 Normal termination of Gaussian 16 at Thu Dec 10 23:30:46 2020.

 ----------------------------------------------------------------------
 # B3LYP/6-311++G(d,p) empiricaldispersion=gd3bj scf=xqc pop=npa geom=c
 heck
 ----------------------------------------------------------------------

 -------------------------------------
 CID_151273513_JID_6494_Energie_kation
 -------------------------------------
 Structure from the checkpoint file:  "JID_6494.chk"
 Charge =  1 Multiplicity = 2

 SCF Done:  E(UB3LYP) =  -703.011276301     A.U. after   26 cycles
 Normal termination of Gaussian 16 at Thu Dec 10 23:41:03 2020.
 Gaussian 16:  ES64L-G16RevA.03 25-Dec-2016

 ----------------------------------------------------------------------
 # B3LYP/6-311++G(d,p) empiricaldispersion=gd3bj scf=xqc pop=npa geom=c
 heck
 ----------------------------------------------------------------------

 ------------------------------------
 CID_151273513_JID_6494_Energie_anion
 ------------------------------------
 Structure from the checkpoint file:  "JID_6494.chk"
 Charge = -1 Multiplicity = 2

                         Standard orientation:
 ---------------------------------------------------------------------
 Center     Atomic      Atomic             Coordinates (Angstroms)
 Number     Number       Type             X           Y           Z
 ---------------------------------------------------------------------
      1          6           0        1.327749   -3.103077   -0.080627
      2          6           0        2.358676   -2.271180    0.691340
      3          6           0        1.766050   -0.922103    1.149649
      4          6           0        1.156179   -0.192624   -0.015897
      5          7           0        1.367309    1.019881   -0.388270
      6          7           0        2.289071    1.708111    0.449999
      7          7           0        2.479694    2.872897    0.051925
      8          7           0        2.757876    3.955167   -0.177965
      9          6           0        0.163926   -0.976978   -0.854687
     10          6           0        0.779082   -2.323376   -1.280554
     11          7           0       -1.021088   -1.235171   -0.022275
     12          6           0       -1.973585   -0.391142   -0.042615
     13          6           0       -3.221587   -0.571693    0.806971
     14          6           0       -3.813801    0.843182    0.906851
     15          6           0       -3.496875    1.457813   -0.470804
     16          6           0       -2.089595    0.928030   -0.807330
     17          1           0        1.779502   -4.043025   -0.419588
     18          1           0        0.494196   -3.360995    0.582522
     19          1           0        3.231555   -2.078917    0.052419
     20          1           0        2.721833   -2.820761    1.567482
     21          1           0        2.517403   -0.299841    1.639199
     22          1           0        0.961613   -1.116432    1.871544
     23          1           0       -0.069377   -0.378404   -1.743438
     24          1           0        1.586184   -2.123543   -1.998629
     25          1           0        0.011705   -2.905238   -1.803951
     26          1           0       -3.917711   -1.233419    0.270753
     27          1           0       -2.991382   -1.048728    1.762977
     28          1           0       -3.297493    1.407893    1.693897
     29          1           0       -4.882113    0.848864    1.142874
     30          1           0       -3.550999    2.550479   -0.475410
     31          1           0       -4.220162    1.091406   -1.210298
     32          1           0       -1.301867    1.607307   -0.458308
     33          1           0       -1.920225    0.796054   -1.881719
 ---------------------------------------------------------------------

 SCF Done:  E(UB3LYP) =  -703.308861841     A.U. after   33 cycles
 SCF Done:  E(UB3LYP) =  -703.308861841     a.u. after    1 cycles

 The electronic state is 2-A.
 Alpha  occ. eigenvalues --  -14.31667 -14.24297 -14.23321 -14.22265 -14.18818
 Alpha  occ. eigenvalues --  -10.10650 -10.09585 -10.09423 -10.07178 -10.06988
 Alpha  occ. eigenvalues --  -10.06962 -10.06742 -10.06737 -10.06677 -10.06584
 Alpha  occ. eigenvalues --  -10.06477  -0.99931  -0.87737  -0.82095  -0.77090
 Alpha  occ. eigenvalues --   -0.72918  -0.70805  -0.64565  -0.62003  -0.61158
 Alpha  occ. eigenvalues --   -0.56673  -0.52445  -0.49865  -0.48128  -0.46524
 Alpha  occ. eigenvalues --   -0.41759  -0.40336  -0.38873  -0.38427  -0.37729
 Alpha  occ. eigenvalues --   -0.37068  -0.35818  -0.33735  -0.32317  -0.32019
 Alpha  occ. eigenvalues --   -0.31736  -0.30650  -0.29971  -0.29386  -0.28516
 Alpha  occ. eigenvalues --   -0.27664  -0.26328  -0.25173  -0.24534  -0.24379
 Alpha  occ. eigenvalues --   -0.24045  -0.23173  -0.22607  -0.22041  -0.21335
 Alpha  occ. eigenvalues --   -0.17743  -0.14444  -0.13483  -0.10726   0.04470
 Alpha virt. eigenvalues --    0.06097   0.06729   0.07839   0.08373   0.08749
 Alpha virt. eigenvalues --    0.08936   0.09191   0.09552   0.10786   0.10885
 Alpha virt. eigenvalues --    0.11130   0.11511   0.11717   0.12426   0.12667

  Beta  occ. eigenvalues --  -14.31278 -14.24355 -14.22823 -14.22120 -14.18798
  Beta  occ. eigenvalues --  -10.10590 -10.09568 -10.09417 -10.07170 -10.06969
  Beta  occ. eigenvalues --  -10.06942 -10.06737 -10.06730 -10.06668 -10.06578
  Beta  occ. eigenvalues --  -10.06470  -0.99220  -0.87412  -0.82008  -0.76841
  Beta  occ. eigenvalues --   -0.72834  -0.70758  -0.64535  -0.61950  -0.61062
  Beta  occ. eigenvalues --   -0.56592  -0.52353  -0.49712  -0.48060  -0.46389
  Beta  occ. eigenvalues --   -0.41613  -0.40267  -0.38480  -0.38321  -0.37257
  Beta  occ. eigenvalues --   -0.36690  -0.35375  -0.33536  -0.32207  -0.31938
  Beta  occ. eigenvalues --   -0.30972  -0.30444  -0.29830  -0.29330  -0.28191
  Beta  occ. eigenvalues --   -0.27581  -0.25988  -0.25135  -0.24475  -0.24196
  Beta  occ. eigenvalues --   -0.23854  -0.23129  -0.22424  -0.21970  -0.21099
  Beta  occ. eigenvalues --   -0.17566  -0.14286  -0.13243  -0.10527
  Beta virt. eigenvalues --    0.06585   0.07097   0.08003   0.08605   0.08940
  Beta virt. eigenvalues --    0.09113   0.09393   0.09534   0.10365   0.10937
  Beta virt. eigenvalues --    0.11207   0.11352   0.11601   0.11835   0.12524

 Mulliken charges and spin densities:
               1          2
     1  C   -0.085254  -0.237624
     2  C   -0.195169  -0.259639
     3  C   -0.269028   0.083631
     4  C   -0.189513  -0.355839
     5  N    0.004292  -0.001078
     6  N   -0.489086   0.502899
     7  N    0.586898  -0.161006
     8  N   -0.167679   0.005264
     9  C   -0.263371   0.526728
    10  C   -0.529962  -0.057916
    11  N    0.167309   0.081780
    12  C    0.174583  -0.149447
    13  C    0.006276  -0.497160
    14  C   -0.303857   0.140932
    15  C    0.331618  -0.958398
    16  C   -0.114279  -0.054208
    17  H    0.021457   0.130087
    18  H    0.100412   0.045173
    19  H    0.097407   0.037473
    20  H   -0.021454   0.174851
    21  H    0.060031   0.134912
    22  H    0.091113   0.066910
    23  H    0.130750   0.127463
    24  H    0.050686   0.067791
    25  H    0.025403   0.146889
    26  H   -0.221007   0.402599
    27  H    0.106907   0.031613
    28  H    0.100014   0.018414
    29  H   -0.326587   0.497228
    30  H    0.025279   0.131199
    31  H   -0.200300   0.347494
    32  H    0.255288  -0.065119
    33  H    0.040824   0.096106
 Sum of Mulliken charges =  -1.00000   1.00000

 Dipole moment (field-independent basis, Debye):
    X=              1.2222    Y=             -3.7912    Z=              0.3137  Tot=              3.9957
 Quadrupole moment (field-independent basis, Debye-Ang):
   XX=           -168.0413   YY=           -148.2962   ZZ=           -114.6706
   XY=            -15.5937   XZ=             -1.9721   YZ=              2.0424

 Summary of Natural Population Analysis:

                                       Natural Population
                Natural  -----------------------------------------------
    Atom  No    Charge         Core      Valence    Rydberg      Total
 -----------------------------------------------------------------------
      C    1   -0.19373      0.99963     2.18696    0.00714     3.19373
      C    2   -0.18388      0.99963     2.17731    0.00695     3.18388
      C    3   -0.22519      0.99957     2.21736    0.00825     3.22519
      C    4    0.13446      0.99956     1.84749    0.01849     2.86554
      N    5   -0.14424      0.99960     2.63178    0.01286     3.64424
      N    6   -0.15562      0.99970     2.63938    0.01654     3.65562
      N    7    0.14820      0.99972     2.33636    0.01572     3.35180
      N    8    0.01617      0.99982     2.47010    0.01392     3.48383
      C    9   -0.04085      0.99952     2.02578    0.01556     3.04085
      C   10   -0.18435      0.99961     2.17665    0.00809     3.18435
      N   11   -0.25257      0.99963     2.74075    0.01219     3.75257
      C   12    0.17780      0.99959     1.80786    0.01476     2.82220
      C   13   -0.21489      0.99960     2.20602    0.00927     3.21489
      C   14   -0.18978      0.99964     2.18214    0.00799     3.18978
      C   15   -0.19043      0.99965     2.18269    0.00810     3.19043
      C   16   -0.23577      0.99959     2.22864    0.00754     3.23577
      H   17    0.09416      0.00000     0.40467    0.00117     0.40584
      H   18    0.10300      0.00000     0.39536    0.00163     0.39700
      H   19    0.09195      0.00000     0.40646    0.00159     0.40805
      H   20    0.09569      0.00000     0.40314    0.00117     0.40431
      H   21    0.11567      0.00000     0.38255    0.00178     0.38433
      H   22    0.10879      0.00000     0.38951    0.00170     0.39121
      H   23    0.09842      0.00000     0.39919    0.00239     0.40158
      H   24    0.09498      0.00000     0.40388    0.00114     0.40502
      H   25    0.10034      0.00000     0.39857    0.00109     0.39966
      H   26    0.10710      0.00000     0.39077    0.00213     0.39290
      H   27    0.10728      0.00000     0.39173    0.00099     0.39272
      H   28    0.09298      0.00000     0.40580    0.00121     0.40702
      H   29    0.10130      0.00000     0.39722    0.00148     0.39870
      H   30    0.09831      0.00000     0.40091    0.00078     0.40169
      H   31    0.09535      0.00000     0.40303    0.00162     0.40465
      H   32    0.11961      0.00000     0.37882    0.00157     0.38039
      H   33    0.10977      0.00000     0.38911    0.00113     0.39023
 =======================================================================
   * Total *   -0.00000     15.99405    42.79799    0.20795    59.00000

 Normal termination of Gaussian 16 at Thu Dec 10 23:55:05 2020.
