 Gaussian 16, Revision A.03,

 -----------------------------------------------------------
 # opt freq B3LYP/6-31G(d) empiricaldispersion=gd3bj scf=xqc
 -----------------------------------------------------------

 -------------------------------
 CID_113310263_JID_8805_neutraal
 -------------------------------
 Symbolic Z-matrix:
 Charge =  0 Multiplicity = 1

 SCF Done:  E(RB3LYP) =  -845.071354148     A.U. after   14 cycles
 SCF Done:  E(RB3LYP) =  -845.076594221     A.U. after   12 cycles
 SCF Done:  E(RB3LYP) =  -845.077781432     A.U. after   12 cycles
 SCF Done:  E(RB3LYP) =  -845.078321083     A.U. after   12 cycles
 SCF Done:  E(RB3LYP) =  -845.080294797     A.U. after   12 cycles
 SCF Done:  E(RB3LYP) =  -845.081611756     A.U. after   13 cycles
 SCF Done:  E(RB3LYP) =  -845.081524180     A.U. after   12 cycles
 SCF Done:  E(RB3LYP) =  -845.082045398     A.U. after   12 cycles
 SCF Done:  E(RB3LYP) =  -845.082099965     A.U. after   10 cycles
 SCF Done:  E(RB3LYP) =  -845.082113851     A.U. after    9 cycles
 SCF Done:  E(RB3LYP) =  -845.082121326     A.U. after   10 cycles
 SCF Done:  E(RB3LYP) =  -845.082122788     A.U. after    8 cycles
 SCF Done:  E(RB3LYP) =  -845.082123315     A.U. after    7 cycles
 SCF Done:  E(RB3LYP) =  -845.082123384     A.U. after    6 cycles
 SCF Done:  E(RB3LYP) =  -845.082123374     A.U. after    6 cycles
 Optimization completed.
    -- Stationary point found.
 Normal termination of Gaussian 16 at Fri Dec 11 22:16:44 2020.

 --------------------------------------------------------------------
 #N Geom=AllCheck Guess=TCheck SCRF=Check GenChk RB3LYP/6-31G(d) Freq
 --------------------------------------------------------------------

 Structure from the checkpoint file:  "JID_8805.chk"
 -------------------------------
 CID_113310263_JID_8805_neutraal
 -------------------------------
 Charge =  0 Multiplicity = 1

 SCF Done:  E(RB3LYP) =  -845.082123374     A.U. after    1 cycles

  Exact polarizability: 174.523   6.179 145.618  -0.813   0.474 139.454
 Approx polarizability: 216.190   5.994 219.650   1.386   5.792 204.617

                      1                      2                      3
                      A                      A                      A
 Frequencies --     25.7393                45.2686                49.4562
 Red. masses --      3.7407                 3.8967                 4.2904
 Frc consts  --      0.0015                 0.0047                 0.0062
 IR Inten    --      0.2651                 0.0531                 0.9881

                      4                      5                      6
                      A                      A                      A
 Frequencies --     86.6684               101.4559               122.4476
 Red. masses --      3.5652                 4.3388                 3.8795
 Frc consts  --      0.0158                 0.0263                 0.0343
 IR Inten    --      2.1874                 0.0145                 0.2779

                      7                      8                      9
                      A                      A                      A
 Frequencies --    138.7171               175.2636               199.4993
 Red. masses --      4.2958                 2.9841                 3.1447
 Frc consts  --      0.0487                 0.0540                 0.0737
 IR Inten    --      3.6283                 0.9362                 3.7948

                     10                     11                     12
                      A                      A                      A
 Frequencies --    210.2734               235.9405               252.5755
 Red. masses --      1.7102                 1.4740                 4.8596
 Frc consts  --      0.0446                 0.0483                 0.1827
 IR Inten    --     10.9470                13.9994                 7.7199

                     13                     14                     15
                      A                      A                      A
 Frequencies --    261.8016               266.4554               284.3084
 Red. masses --      1.3904                 2.0961                 1.9457
 Frc consts  --      0.0561                 0.0877                 0.0927
 IR Inten    --      3.0530                 2.9031                 5.3370

                     16                     17                     18
                      A                      A                      A
 Frequencies --    320.7369               343.7353               358.0772
 Red. masses --      3.3806                 2.2746                 2.8623
 Frc consts  --      0.2049                 0.1583                 0.2162
 IR Inten    --      2.2556                 2.8475                10.1396

                     19                     20                     21
                      A                      A                      A
 Frequencies --    368.4483               391.1310               405.5909
 Red. masses --      2.1422                 2.0834                 1.9325
 Frc consts  --      0.1713                 0.1878                 0.1873
 IR Inten    --      0.9402                 0.2220                 3.1445

                     22                     23                     24
                      A                      A                      A
 Frequencies --    426.0670               463.2336               471.1088
 Red. masses --      2.6374                 2.7754                 3.9842
 Frc consts  --      0.2821                 0.3509                 0.5210
 IR Inten    --      3.8657                11.0120                 1.3072

                     25                     26                     27
                      A                      A                      A
 Frequencies --    509.0234               512.6336               524.6892
 Red. masses --      3.2771                 3.3578                 3.1461
 Frc consts  --      0.5003                 0.5199                 0.5103
 IR Inten    --      3.6631                 1.7890                 5.2372

                     28                     29                     30
                      A                      A                      A
 Frequencies --    569.6702               660.7260               695.8854
 Red. masses --      2.9163                 2.2675                 2.8333
 Frc consts  --      0.5576                 0.5832                 0.8084
 IR Inten    --     13.8749                 2.2783                 0.5193

                     31                     32                     33
                      A                      A                      A
 Frequencies --    768.0962               790.0993               799.1261
 Red. masses --      5.8617                 3.1204                 3.0577
 Frc consts  --      2.0375                 1.1477                 1.1505
 IR Inten    --      6.1119                11.8020                 1.5920

                     34                     35                     36
                      A                      A                      A
 Frequencies --    824.2124               832.8752               852.0100
 Red. masses --      1.5648                 1.5834                 1.7493
 Frc consts  --      0.6263                 0.6472                 0.7482
 IR Inten    --      0.2360                 1.0034                34.8456

                     37                     38                     39
                      A                      A                      A
 Frequencies --    867.4117               880.6188               911.0468
 Red. masses --      2.1523                 2.6697                 2.6992
 Frc consts  --      0.9541                 1.2198                 1.3200
 IR Inten    --     74.6853                22.8756                 7.0676

                     40                     41                     42
                      A                      A                      A
 Frequencies --    923.6542               938.9643               954.4576
 Red. masses --      2.4397                 2.2595                 2.6840
 Frc consts  --      1.2263                 1.1737                 1.4406
 IR Inten    --      5.5280                 6.8510                25.7080

                     43                     44                     45
                      A                      A                      A
 Frequencies --    968.7692              1017.3418              1025.0462
 Red. masses --      2.4239                 2.3062                 1.9990
 Frc consts  --      1.3403                 1.4063                 1.2375
 IR Inten    --     14.0823                 8.7069                 6.8877

                     46                     47                     48
                      A                      A                      A
 Frequencies --   1031.0293              1032.4119              1062.7877
 Red. masses --      1.4715                 2.2056                 1.6542
 Frc consts  --      0.9216                 1.3851                 1.1009
 IR Inten    --      0.2802                11.4043                13.7149

                     49                     50                     51
                      A                      A                      A
 Frequencies --   1064.2148              1072.0980              1092.2146
 Red. masses --      2.0792                 1.7906                 2.4688
 Frc consts  --      1.3874                 1.2126                 1.7352
 IR Inten    --     43.0440                20.3458                10.9253

                     52                     53                     54
                      A                      A                      A
 Frequencies --   1107.4740              1122.9724              1129.7612
 Red. masses --      2.1973                 1.8710                 3.1734
 Frc consts  --      1.5879                 1.3901                 2.3864
 IR Inten    --     16.9647                22.2848                11.0659

                     55                     56                     57
                      A                      A                      A
 Frequencies --   1138.6071              1162.7506              1180.3178
 Red. masses --      1.5520                 3.1892                 1.6201
 Frc consts  --      1.1854                 2.5404                 1.3298
 IR Inten    --      0.6774                92.1499                69.6810

                     58                     59                     60
                      A                      A                      A
 Frequencies --   1184.7088              1185.2092              1191.1045
 Red. masses --      2.6572                 1.6068                 2.6836
 Frc consts  --      2.1973                 1.3299                 2.2432
 IR Inten    --     32.3613                 2.6987                66.7454

                     61                     62                     63
                      A                      A                      A
 Frequencies --   1217.8865              1230.1820              1262.8377
 Red. masses --      1.3311                 1.1632                 1.4837
 Frc consts  --      1.1632                 1.0372                 1.3941
 IR Inten    --      4.3981                 4.2629                48.1972

                     64                     65                     66
                      A                      A                      A
 Frequencies --   1280.3786              1287.1721              1291.6744
 Red. masses --      1.3734                 1.4121                 2.3656
 Frc consts  --      1.3265                 1.3784                 2.3254
 IR Inten    --     56.1589                 3.2068               290.5125

                     67                     68                     69
                      A                      A                      A
 Frequencies --   1321.6449              1327.5783              1337.3888
 Red. masses --      2.3260                 1.5887                 1.2756
 Frc consts  --      2.3938                 1.6497                 1.3443
 IR Inten    --     28.3335                24.2518                 8.5491

                     70                     71                     72
                      A                      A                      A
 Frequencies --   1345.1171              1360.5577              1373.4799
 Red. masses --      1.3024                 1.2328                 1.4343
 Frc consts  --      1.3884                 1.3445                 1.5941
 IR Inten    --     28.6959                36.9935                 2.0086

                     73                     74                     75
                      A                      A                      A
 Frequencies --   1375.7563              1382.3047              1395.2840
 Red. masses --      1.3993                 1.4588                 1.4688
 Frc consts  --      1.5604                 1.6423                 1.6848
 IR Inten    --      1.1414                 2.8016                17.4024

                     76                     77                     78
                      A                      A                      A
 Frequencies --   1401.8404              1409.9889              1411.4289
 Red. masses --      1.2594                 1.5702                 1.5277
 Frc consts  --      1.4581                 1.8392                 1.7931
 IR Inten    --      7.2720                10.4992                 1.9274

                     79                     80                     81
                      A                      A                      A
 Frequencies --   1418.5414              1434.0450              1441.2680
 Red. masses --      1.4371                 1.3679                 1.4341
 Frc consts  --      1.7038                 1.6575                 1.7551
 IR Inten    --      4.6431                13.7449                11.3002

                     82                     83                     84
                      A                      A                      A
 Frequencies --   1446.9813              1485.3082              1495.6609
 Red. masses --      1.3510                 1.2058                 1.0961
 Frc consts  --      1.6665                 1.5674                 1.4446
 IR Inten    --      8.1776                 0.9099                 5.8534

                     85                     86                     87
                      A                      A                      A
 Frequencies --   1503.1634              1510.8186              1516.0872
 Red. masses --      1.0859                 1.0967                 1.0527
 Frc consts  --      1.4456                 1.4748                 1.4256
 IR Inten    --      3.7935                10.2455                21.7150

                     88                     89                     90
                      A                      A                      A
 Frequencies --   1517.4573              1523.7659              1524.7226
 Red. masses --      1.0894                 1.0821                 1.0818
 Frc consts  --      1.4780                 1.4803                 1.4817
 IR Inten    --      5.1894                 0.4425                 3.9470

                     91                     92                     93
                      A                      A                      A
 Frequencies --   1533.7032              1537.9269              1542.4288
 Red. masses --      1.0895                 1.0548                 1.0914
 Frc consts  --      1.5099                 1.4699                 1.5298
 IR Inten    --      2.3684                 1.7381                 5.2383

                     94                     95                     96
                      A                      A                      A
 Frequencies --   1547.0078              1698.2997              1800.2125
 Red. masses --      1.1049                 1.0884                12.0964
 Frc consts  --      1.5579                 1.8496                23.0969
 IR Inten    --      8.1430                29.1412               179.8883

                     97                     98                     99
                      A                      A                      A
 Frequencies --   2924.5381              2935.4888              2962.8919
 Red. masses --      1.0643                 1.0709                 1.0714
 Frc consts  --      5.3632                 5.4369                 5.5415
 IR Inten    --     42.3942                90.7709                65.3647

                    100                    101                    102
                      A                      A                      A
 Frequencies --   2972.1130              2985.9605              3016.4015
 Red. masses --      1.0727                 1.0723                 1.0698
 Frc consts  --      5.5827                 5.6328                 5.7349
 IR Inten    --     48.4124                31.6615               120.7555

                    103                    104                    105
                      A                      A                      A
 Frequencies --   3057.5888              3058.8365              3062.4168
 Red. masses --      1.0629                 1.0652                 1.0701
 Frc consts  --      5.8545                 5.8723                 5.9127
 IR Inten    --     14.7830                 3.3674                21.1437

                    106                    107                    108
                      A                      A                      A
 Frequencies --   3071.6388              3073.6434              3073.7783
 Red. masses --      1.0714                 1.0657                 1.0803
 Frc consts  --      5.9559                 5.9317                 6.0136
 IR Inten    --     21.9818                37.1992                44.1765

                    109                    110                    111
                      A                      A                      A
 Frequencies --   3078.1163              3105.6080              3106.6771
 Red. masses --      1.0821                 1.0911                 1.1042
 Frc consts  --      6.0406                 6.2002                 6.2793
 IR Inten    --     73.1629                60.3971                31.2438

                    112                    113                    114
                      A                      A                      A
 Frequencies --   3107.0077              3109.2306              3111.0174
 Red. masses --      1.0955                 1.0980                 1.0868
 Frc consts  --      6.2307                 6.2538                 6.1971
 IR Inten    --      6.5150                24.1738                27.3473

                    115                    116                    117
                      A                      A                      A
 Frequencies --   3113.1775              3114.7580              3116.9662
 Red. masses --      1.0938                 1.1022                 1.1040
 Frc consts  --      6.2461                 6.3001                 6.3193
 IR Inten    --     25.6074                27.0492                36.8512

                    118                    119                    120
                      A                      A                      A
 Frequencies --   3132.6702              3487.5792              3570.2059
 Red. masses --      1.0977                 1.0499                 1.0929
 Frc consts  --      6.3470                 7.5238                 8.2075
 IR Inten    --     15.6688                 0.4389                 0.2313

 - Thermochemistry -
 -------------------
 Temperature   298.150 Kelvin.  Pressure   1.00000 Atm.
 Atom     1 has atomic number  6 and mass  12.00000

 Molecular mass:   256.17869 amu.
 Principal axes and moments of inertia in atomic units:
                           1         2         3
     Eigenvalues --  2377.387197560.564517870.22573
           X            0.99994   0.00986   0.00380
           Y           -0.00968   0.99896  -0.04467
           Z           -0.00424   0.04463   0.99899
 This molecule is an asymmetric top.
 Rotational symmetry number  1.
 Warning -- assumption of classical behavior for rotation
           may cause significant error
 Rotational temperatures (Kelvin)      0.03643     0.01146     0.01101
 Rotational constants (GHZ):           0.75913     0.23870     0.22931
 Zero-point vibrational energy     989468.6 (Joules/Mol)
                                  236.48867 (Kcal/Mol)
 Warning -- explicit consideration of  28 degrees of freedom as
           vibrations may cause significant error
 Vibrational temperatures:     37.03    65.13    71.16   124.70   145.97
          (Kelvin)            176.17   199.58   252.17   287.04   302.54
                              339.47   363.40   376.67   383.37   409.06
                              461.47   494.56   515.19   530.11   562.75
                              583.55   613.02   666.49   677.82   732.37
                              737.57   754.91   819.63   950.64  1001.22
                             1105.12  1136.78  1149.76  1185.86  1198.32
                             1225.85  1248.01  1267.01  1310.79  1328.93
                             1350.96  1373.25  1393.84  1463.73  1474.81
                             1483.42  1485.41  1529.11  1531.17  1542.51
                             1571.45  1593.41  1615.71  1625.47  1638.20
                             1672.94  1698.21  1704.53  1705.25  1713.73
                             1752.27  1769.96  1816.94  1842.18  1851.95
                             1858.43  1901.55  1910.09  1924.20  1935.32
                             1957.54  1976.13  1979.41  1988.83  2007.50
                             2016.94  2028.66  2030.73  2040.96  2063.27
                             2073.66  2081.88  2137.03  2151.92  2162.72
                             2173.73  2181.31  2183.28  2192.36  2193.74
                             2206.66  2212.73  2219.21  2225.80  2443.47
                             2590.10  4207.76  4223.51  4262.94  4276.21
                             4296.13  4339.93  4399.19  4400.98  4406.13
                             4419.40  4422.29  4422.48  4428.72  4468.28
                             4469.82  4470.29  4473.49  4476.06  4479.17
                             4481.44  4484.62  4507.21  5017.85  5136.73

 Zero-point correction=                           0.376869 (Hartree/Particle)
 Thermal correction to Energy=                    0.394606
 Thermal correction to Enthalpy=                  0.395550
 Thermal correction to Gibbs Free Energy=         0.331118
 Sum of electronic and zero-point Energies=           -844.705255
 Sum of electronic and thermal Energies=              -844.687517
 Sum of electronic and thermal Enthalpies=            -844.686573
 Sum of electronic and thermal Free Energies=         -844.751006

                     E (Thermal)             CV                S
                      KCal/Mol        Cal/Mol-Kelvin    Cal/Mol-Kelvin
 Total                  247.619             69.296            135.610
 Electronic               0.000              0.000              0.000
 Translational            0.889              2.981             42.522
 Rotational               0.889              2.981             33.314
 Vibrational            245.842             63.334             59.774
 Vibration     1          0.593              1.985              6.133
 Vibration     2          0.595              1.979              5.014
 Vibration     3          0.595              1.978              4.839
 Vibration     4          0.601              1.958              3.734
 Vibration     5          0.604              1.948              3.426
 Vibration     6          0.610              1.930              3.061
 Vibration     7          0.614              1.915              2.821
 Vibration     8          0.627              1.873              2.378
 Vibration     9          0.638              1.841              2.138
 Vibration    10          0.642              1.825              2.041
 Vibration    11          0.655              1.786              1.833
 Vibration    12          0.664              1.758              1.713
 Vibration    13          0.669              1.743              1.650
 Vibration    14          0.672              1.735              1.619
 Vibration    15          0.683              1.703              1.508
 Vibration    16          0.706              1.634              1.306
 Vibration    17          0.722              1.588              1.195
 Vibration    18          0.733              1.559              1.130
 Vibration    19          0.741              1.537              1.086
 Vibration    20          0.759              1.489              0.996
 Vibration    21          0.771              1.458              0.942
 Vibration    22          0.788              1.414              0.872
 Vibration    23          0.821              1.332              0.757
 Vibration    24          0.828              1.314              0.734
 Vibration    25          0.864              1.230              0.636
 Vibration    26          0.868              1.222              0.627
 Vibration    27          0.880              1.195              0.599
 Vibration    28          0.926              1.097              0.505

 Optimization completed.
    -- Stationary point found.
 Normal termination of Gaussian 16 at Fri Dec 11 22:37:00 2020.

 ----------------------------------------------------------------------
 # B3LYP/6-311++G(d,p) empiricaldispersion=gd3bj scf=xqc pop=npa geom=c
 heck
 ----------------------------------------------------------------------

 ---------------------------------------
 CID_113310263_JID_8805_Energie_neutraal
 ---------------------------------------
 Structure from the checkpoint file:  "JID_8805.chk"
 Charge =  0 Multiplicity = 1

 SCF Done:  E(RB3LYP) =  -845.327703283     A.U. after   15 cycles
 Normal termination of Gaussian 16 at Fri Dec 11 22:45:29 2020.

 ----------------------------------------------------------------------
 # B3LYP/6-311++G(d,p) empiricaldispersion=gd3bj scf=xqc pop=npa geom=c
 heck
 ----------------------------------------------------------------------

 -------------------------------------
 CID_113310263_JID_8805_Energie_kation
 -------------------------------------
 Structure from the checkpoint file:  "JID_8805.chk"
 Charge =  1 Multiplicity = 2

 SCF Done:  E(UB3LYP) =  -845.040503979     A.U. after   24 cycles
 Normal termination of Gaussian 16 at Fri Dec 11 23:03:57 2020.
 Gaussian 16:  ES64L-G16RevA.03 25-Dec-2016

 ----------------------------------------------------------------------
 # B3LYP/6-311++G(d,p) empiricaldispersion=gd3bj scf=xqc pop=npa geom=c
 heck
 ----------------------------------------------------------------------

 ------------------------------------
 CID_113310263_JID_8805_Energie_anion
 ------------------------------------
 Structure from the checkpoint file:  "JID_8805.chk"
 Charge = -1 Multiplicity = 2

                         Standard orientation:
 ---------------------------------------------------------------------
 Center     Atomic      Atomic             Coordinates (Angstroms)
 Number     Number       Type             X           Y           Z
 ---------------------------------------------------------------------
      1          6           0        4.237289    1.869569   -0.623919
      2          7           0        3.717606    0.634623   -0.063747
      3          6           0        2.997260    0.883764    1.183641
      4          6           0        2.546116   -0.430143    1.826124
      5          6           0        1.706588   -1.260246    0.862579
      6          6           0        2.419665   -1.422136   -0.479423
      7          6           0        2.874921   -0.072090   -1.031622
      8          8           0        0.469298   -0.516187    0.669782
      9          6           0       -0.570973   -1.183892    0.146157
     10          8           0       -0.574505   -2.380058   -0.066839
     11          6           0       -1.766705   -0.282492   -0.168199
     12          6           0       -1.587424    1.159518    0.349599
     13          6           0       -2.887083    1.959243    0.247138
     14          8           0       -3.950281    1.328740    0.947019
     15          6           0       -4.229428    0.038097    0.422384
     16          6           0       -3.016887   -0.889892    0.514949
     17          6           0       -1.909790   -0.342755   -1.708947
     18          7           0       -0.693376    0.149204   -2.366731
     19          1           0        3.441982    2.593441   -0.894227
     20          1           0        4.903203    2.353866    0.098901
     21          1           0        4.815547    1.650586   -1.528277
     22          1           0        3.668555    1.416268    1.867462
     23          1           0        2.115699    1.534724    1.020092
     24          1           0        1.975955   -0.227878    2.739648
     25          1           0        3.429284   -1.018228    2.101569
     26          1           0        1.446236   -2.234505    1.283333
     27          1           0        1.756298   -1.919836   -1.191238
     28          1           0        3.293581   -2.065712   -0.320948
     29          1           0        1.985679    0.521577   -1.314586
     30          1           0        3.462614   -0.228509   -1.943759
     31          1           0       -1.287535    1.124269    1.401560
     32          1           0       -0.779150    1.670439   -0.184611
     33          1           0       -2.766602    2.945385    0.705120
     34          1           0       -3.173504    2.114970   -0.807797
     35          1           0       -4.578879    0.125763   -0.619902
     36          1           0       -5.058359   -0.357238    1.016785
     37          1           0       -3.244904   -1.868016    0.078239
     38          1           0       -2.793054   -1.054273    1.575936
     39          1           0       -2.031848   -1.395060   -1.980578
     40          1           0       -2.823950    0.183943   -2.020960
     41          1           0       -0.687766   -0.138429   -3.342402
     42          1           0       -0.676084    1.166438   -2.368471
 ---------------------------------------------------------------------

 SCF Done:  E(UB3LYP) =  -845.317115127     A.U. after   33 cycles
 SCF Done:  E(UB3LYP) =  -845.317115128     a.u. after    1 cycles

 The electronic state is 2-A.
 Alpha  occ. eigenvalues --  -19.07068 -19.03212 -19.01341 -14.20923 -14.19149
 Alpha  occ. eigenvalues --  -10.20328 -10.14021 -10.12797 -10.11896 -10.10101
 Alpha  occ. eigenvalues --  -10.09839 -10.09772 -10.09066 -10.09042 -10.08331
 Alpha  occ. eigenvalues --  -10.08299 -10.07404 -10.07157  -1.01255  -0.94727
 Alpha  occ. eigenvalues --   -0.92520  -0.83441  -0.78929  -0.72841  -0.70868
 Alpha  occ. eigenvalues --   -0.67438  -0.66524  -0.61168  -0.59425  -0.56003
 Alpha  occ. eigenvalues --   -0.54855  -0.54264  -0.52473  -0.49900  -0.46013
 Alpha  occ. eigenvalues --   -0.43420  -0.42982  -0.40486  -0.40000  -0.38870
 Alpha  occ. eigenvalues --   -0.38612  -0.37485  -0.37153  -0.36770  -0.36384
 Alpha  occ. eigenvalues --   -0.35653  -0.34365  -0.34223  -0.32951  -0.32168
 Alpha  occ. eigenvalues --   -0.30995  -0.30754  -0.30307  -0.29750  -0.28264
 Alpha  occ. eigenvalues --   -0.28091  -0.27163  -0.26825  -0.26138  -0.25095
 Alpha  occ. eigenvalues --   -0.24859  -0.23936  -0.22950  -0.22693  -0.21827
 Alpha  occ. eigenvalues --   -0.20622  -0.18562  -0.16576  -0.14671  -0.12453
 Alpha  occ. eigenvalues --    0.04182
 Alpha virt. eigenvalues --    0.06105   0.06760   0.07280   0.07663   0.08103
 Alpha virt. eigenvalues --    0.08591   0.09373   0.09568   0.09847   0.10235
 Alpha virt. eigenvalues --    0.10447   0.11014   0.11152   0.11496   0.12563

  Beta  occ. eigenvalues --  -19.07065 -19.03207 -19.01334 -14.20914 -14.19091
  Beta  occ. eigenvalues --  -10.20324 -10.14021 -10.12788 -10.11869 -10.10102
  Beta  occ. eigenvalues --  -10.09825 -10.09748 -10.09054 -10.09017 -10.08328
  Beta  occ. eigenvalues --  -10.08292 -10.07400 -10.07140  -1.01247  -0.94715
  Beta  occ. eigenvalues --   -0.92510  -0.83422  -0.78849  -0.72807  -0.70847
  Beta  occ. eigenvalues --   -0.67410  -0.66505  -0.61140  -0.59370  -0.55953
  Beta  occ. eigenvalues --   -0.54818  -0.54237  -0.52426  -0.49863  -0.45973
  Beta  occ. eigenvalues --   -0.43395  -0.42954  -0.40459  -0.39955  -0.38847
  Beta  occ. eigenvalues --   -0.38579  -0.37456  -0.37129  -0.36734  -0.36359
  Beta  occ. eigenvalues --   -0.35608  -0.34338  -0.34185  -0.32923  -0.32150
  Beta  occ. eigenvalues --   -0.30955  -0.30730  -0.30281  -0.29726  -0.28228
  Beta  occ. eigenvalues --   -0.28071  -0.27138  -0.26799  -0.26118  -0.25080
  Beta  occ. eigenvalues --   -0.24834  -0.23915  -0.22929  -0.22674  -0.21807
  Beta  occ. eigenvalues --   -0.20603  -0.18546  -0.16548  -0.14617  -0.12399
  Beta virt. eigenvalues --    0.06175   0.06801   0.07181   0.07702   0.08063
  Beta virt. eigenvalues --    0.08438   0.08892   0.09511   0.09783   0.10305
  Beta virt. eigenvalues --    0.10413   0.10786   0.11123   0.11368   0.11633

 Mulliken charges and spin densities:
               1          2
     1  C    0.607431  -0.852126
     2  N    0.020080   0.056780
     3  C   -0.082313  -0.210799
     4  C   -0.480912  -0.155032
     5  C    0.058187   0.130801
     6  C   -0.201253  -0.087290
     7  C   -0.581240   0.132367
     8  O    0.229918   0.019079
     9  C   -1.264690   0.537051
    10  O   -0.173735   0.012963
    11  C    0.405054   0.110567
    12  C   -0.865110   0.841074
    13  C    0.792443  -1.501017
    14  O   -0.144035   0.044807
    15  C    0.120880  -0.530127
    16  C   -0.243486  -0.037127
    17  C    1.405918  -1.988036
    18  N   -0.612548   0.320140
    19  H   -0.294491   0.419178
    20  H   -0.130360   0.249534
    21  H   -0.103275   0.225887
    22  H   -0.195469   0.375681
    23  H    0.107908   0.025597
    24  H    0.046413   0.115570
    25  H    0.086255   0.054355
    26  H    0.174378   0.051977
    27  H    0.141756   0.052570
    28  H    0.114597   0.040534
    29  H    0.711129  -0.530462
    30  H   -0.090471   0.250836
    31  H    0.109009   0.101555
    32  H    0.140391  -0.001359
    33  H   -0.229216   0.426715
    34  H   -0.218566   0.400868
    35  H    0.006847   0.125717
    36  H    0.137702   0.061339
    37  H    0.100311   0.052842
    38  H    0.141672   0.040777
    39  H    0.121809   0.106889
    40  H   -0.259620   0.405966
    41  H   -0.250513   0.520448
    42  H   -0.358786   0.582906
 Sum of Mulliken charges =  -1.00000   1.00000

 Dipole moment (field-independent basis, Debye):
    X=              0.1461    Y=             -5.0011    Z=              5.2052  Tot=              7.2199
 Quadrupole moment (field-independent basis, Debye-Ang):
   XX=           -181.1124   YY=           -158.7182   ZZ=           -159.9635
   XY=             -0.0253   XZ=             -3.6663   YZ=              2.7321

 Summary of Natural Population Analysis:

                                       Natural Population
                Natural  -----------------------------------------------
    Atom  No    Charge         Core      Valence    Rydberg      Total
 -----------------------------------------------------------------------
      C    1   -0.17527      0.99965     2.16714    0.00848     3.17527
      N    2   -0.28225      0.99972     2.76999    0.01255     3.78225
      C    3   -0.08612      0.99961     2.07493    0.01158     3.08612
      C    4   -0.20041      0.99960     2.19101    0.00980     3.20041
      C    5    0.06381      0.99952     1.92490    0.01176     2.93619
      C    6   -0.20607      0.99960     2.19795    0.00853     3.20607
      C    7   -0.09018      0.99961     2.07856    0.01201     3.09018
      O    8   -0.28700      0.99985     3.27742    0.00973     4.28700
      C    9    0.43254      0.99960     1.54026    0.02760     2.56746
      O   10   -0.31830      0.99987     3.31348    0.00495     4.31830
      C   11   -0.08053      0.99950     2.06661    0.01442     3.08053
      C   12   -0.20829      0.99959     2.19698    0.01172     3.20829
      C   13   -0.01095      0.99957     1.99732    0.01406     3.01095
      O   14   -0.30106      0.99989     3.29222    0.00896     4.30106
      C   15   -0.00834      0.99958     1.99737    0.01139     3.00834
      C   16   -0.19922      0.99959     2.19142    0.00821     3.19922
      C   17   -0.08767      0.99958     2.07430    0.01379     3.08767
      N   18   -0.42726      0.99977     2.91569    0.01181     3.92726
      H   19    0.08374      0.00000     0.41471    0.00154     0.41626
      H   20    0.09323      0.00000     0.40554    0.00123     0.40677
      H   21    0.09424      0.00000     0.40461    0.00115     0.40576
      H   22    0.09573      0.00000     0.40301    0.00126     0.40427
      H   23    0.08616      0.00000     0.41196    0.00189     0.41384
      H   24    0.10333      0.00000     0.39575    0.00092     0.39667
      H   25    0.10132      0.00000     0.39742    0.00126     0.39868
      H   26    0.09836      0.00000     0.40000    0.00163     0.40164
      H   27    0.11397      0.00000     0.38509    0.00094     0.38603
      H   28    0.09953      0.00000     0.39924    0.00123     0.40047
      H   29    0.09401      0.00000     0.40356    0.00243     0.40599
      H   30    0.09577      0.00000     0.40304    0.00119     0.40423
      H   31    0.10444      0.00000     0.39402    0.00154     0.39556
      H   32    0.11152      0.00000     0.38634    0.00213     0.38848
      H   33    0.09308      0.00000     0.40567    0.00125     0.40692
      H   34    0.08026      0.00000     0.41782    0.00192     0.41974
      H   35    0.07903      0.00000     0.41946    0.00151     0.42097
      H   36    0.08926      0.00000     0.40963    0.00110     0.41074
      H   37    0.10875      0.00000     0.39023    0.00102     0.39125
      H   38    0.10018      0.00000     0.39872    0.00110     0.39982
      H   39    0.09951      0.00000     0.39918    0.00130     0.40049
      H   40    0.08630      0.00000     0.41131    0.00239     0.41370
      H   41    0.18174      0.00000     0.31491    0.00335     0.31826
      H   42    0.17912      0.00000     0.31556    0.00532     0.32088
 =======================================================================
   * Total *   -0.00000     17.99370    51.75434    0.25196    70.00000

 Normal termination of Gaussian 16 at Fri Dec 11 23:28:55 2020.
