 Gaussian 16, Revision A.03,

 -----------------------------------------------------------
 # opt freq B3LYP/6-31G(d) empiricaldispersion=gd3bj scf=xqc
 -----------------------------------------------------------

 ----------------------------
 CID_14320742_JID_45_neutraal
 ----------------------------
 Symbolic Z-matrix:
 Charge =  0 Multiplicity = 1

 SCF Done:  E(RB3LYP) =  -463.757746521     A.U. after   14 cycles
 SCF Done:  E(RB3LYP) =  -463.763385069     A.U. after   13 cycles
 SCF Done:  E(RB3LYP) =  -463.764010406     A.U. after   11 cycles
 SCF Done:  E(RB3LYP) =  -463.764128473     A.U. after   11 cycles
 SCF Done:  E(RB3LYP) =  -463.764140892     A.U. after   10 cycles
 SCF Done:  E(RB3LYP) =  -463.764145953     A.U. after    9 cycles
 SCF Done:  E(RB3LYP) =  -463.764147457     A.U. after    8 cycles
 SCF Done:  E(RB3LYP) =  -463.764148230     A.U. after    8 cycles
 SCF Done:  E(RB3LYP) =  -463.764148716     A.U. after    8 cycles
 SCF Done:  E(RB3LYP) =  -463.764148843     A.U. after    8 cycles
 SCF Done:  E(RB3LYP) =  -463.764148868     A.U. after    7 cycles
 Optimization completed.
    -- Stationary point found.

 1\1\GINC-NODE319\FOpt\RB3LYP\6-31G(d)\C8H14O2\VSC10255\08-Dec-2020\0\\
 # opt freq B3LYP/6-31G(d) empiricaldispersion=gd3bj scf=xqc\\CID_14320
 742_JID_45_neutraal\\0,1\C,1.0682734685,-0.0633984558,0.052974344\C,0.
 4573610844,-0.7832489411,1.2591340754\C,0.8170516535,-0.168466567,2.61
 80036561\C,0.2299347579,1.2154480057,2.8712475994\C,0.3734526212,1.672
 2731373,4.3303143321\O,0.0961044028,1.0125081336,5.3055756611\C,0.9294
 255279,3.0917669799,4.2929848812\C,0.7698140558,3.4743223131,2.8170248
 893\O,0.8869430817,2.225685767,2.1117136724\C,1.8066567354,4.431233471

 Normal termination of Gaussian 16 at Tue Dec  8 10:16:17 2020.

 --------------------------------------------------------------------
 #N Geom=AllCheck Guess=TCheck SCRF=Check GenChk RB3LYP/6-31G(d) Freq
 --------------------------------------------------------------------

 Structure from the checkpoint file:  "JID_45.chk"
 ----------------------------
 CID_14320742_JID_45_neutraal
 ----------------------------
 Charge =  0 Multiplicity = 1

 SCF Done:  E(RB3LYP) =  -463.764148868     A.U. after    1 cycles

  Exact polarizability:  98.914  -2.747  90.944   0.806  -0.040  71.585
 Approx polarizability: 120.185  -2.535 128.647   0.759  -0.046 108.722

                      1                      2                      3
                      A                      A                      A
 Frequencies --     47.7896                72.3150                99.3493
 Red. masses --      2.7696                 2.7217                 2.8339
 Frc consts  --      0.0037                 0.0084                 0.0165
 IR Inten    --      0.0132                 4.4752                 1.3108

                      4                      5                      6
                      A                      A                      A
 Frequencies --    117.0534               171.8608               238.8183
 Red. masses --      3.5999                 1.9784                 1.3372
 Frc consts  --      0.0291                 0.0344                 0.0449
 IR Inten    --      0.9084                 1.3790                 1.9220

                      7                      8                      9
                      A                      A                      A
 Frequencies --    242.3084               286.3338               296.0333
 Red. masses --      1.4681                 2.0392                 2.1354
 Frc consts  --      0.0508                 0.0985                 0.1103
 IR Inten    --      1.8567                 0.1535                 1.3284

                     10                     11                     12
                      A                      A                      A
 Frequencies --    377.4027               421.1081               457.1938
 Red. masses --      3.1069                 2.3044                 2.4262
 Frc consts  --      0.2607                 0.2408                 0.2988
 IR Inten    --      3.0937                 3.5118                 1.9385

                     13                     14                     15
                      A                      A                      A
 Frequencies --    509.9265               535.1684               591.8073
 Red. masses --      2.3443                 2.8919                 6.4914
 Frc consts  --      0.3592                 0.4880                 1.3395
 IR Inten    --      4.7533                 6.0683                 1.0815

                     16                     17                     18
                      A                      A                      A
 Frequencies --    654.2193               761.4916               812.3754
 Red. masses --      4.0428                 1.7212                 1.6832
 Frc consts  --      1.0195                 0.5880                 0.6545
 IR Inten    --      8.5701                 3.5472                 2.9770

                     19                     20                     21
                      A                      A                      A
 Frequencies --    830.9111               875.9636               899.3558
 Red. masses --      2.0744                 3.0171                 1.7684
 Frc consts  --      0.8438                 1.3640                 0.8427
 IR Inten    --      8.9883                 8.5927                 1.9442

                     22                     23                     24
                      A                      A                      A
 Frequencies --    936.6073               943.8613               981.3619
 Red. masses --      1.6403                 1.8463                 2.3015
 Frc consts  --      0.8478                 0.9691                 1.3060
 IR Inten    --      4.0198                21.9509                 3.2864

                     25                     26                     27
                      A                      A                      A
 Frequencies --   1051.4809              1067.4123              1084.8727
 Red. masses --      1.6115                 1.6701                 2.8201
 Frc consts  --      1.0497                 1.1212                 1.9556
 IR Inten    --      6.3006                24.5204                 8.3920

                     28                     29                     30
                      A                      A                      A
 Frequencies --   1111.4591              1138.5470              1160.8318
 Red. masses --      2.4368                 2.1247                 2.3242
 Frc consts  --      1.7736                 1.6227                 1.8453
 IR Inten    --     26.0504                13.8342                23.1964

                     31                     32                     33
                      A                      A                      A
 Frequencies --   1185.1833              1186.8056              1225.0322
 Red. masses --      2.6290                 2.2376                 1.6091
 Frc consts  --      2.1758                 1.8569                 1.4227
 IR Inten    --     85.2852                42.3968                 6.1427

                     34                     35                     36
                      A                      A                      A
 Frequencies --   1267.4740              1275.3186              1291.5652
 Red. masses --      1.4209                 1.3546                 1.3713
 Frc consts  --      1.3449                 1.2981                 1.3477
 IR Inten    --      6.9030                 1.6677                 6.3572

                     37                     38                     39
                      A                      A                      A
 Frequencies --   1334.8922              1345.2768              1392.4734
 Red. masses --      1.2701                 1.1828                 1.3469
 Frc consts  --      1.3334                 1.2612                 1.5387
 IR Inten    --      0.5053                19.1974                21.2469

                     40                     41                     42
                      A                      A                      A
 Frequencies --   1399.0795              1404.8919              1419.8228
 Red. masses --      1.3584                 1.4326                 1.4367
 Frc consts  --      1.5666                 1.6660                 1.7064
 IR Inten    --      5.9996                10.7918                 4.4399

                     43                     44                     45
                      A                      A                      A
 Frequencies --   1445.3786              1447.8499              1475.7496
 Red. masses --      1.4394                 1.2590                 1.1255
 Frc consts  --      1.7717                 1.5550                 1.4442
 IR Inten    --     24.7128                 4.9577                 5.7230

                     46                     47                     48
                      A                      A                      A
 Frequencies --   1502.1985              1514.4415              1517.8608
 Red. masses --      1.0877                 1.0496                 1.0681
 Frc consts  --      1.4461                 1.4184                 1.4498
 IR Inten    --      2.5189                 3.9884                 0.8392

                     49                     50                     51
                      A                      A                      A
 Frequencies --   1528.5246              1529.7975              1539.4585
 Red. masses --      1.0472                 1.0430                 1.0661
 Frc consts  --      1.4415                 1.4382                 1.4887
 IR Inten    --      5.3487                 4.6062                 6.1008

                     52                     53                     54
                      A                      A                      A
 Frequencies --   1855.7002              2945.1485              2980.2509
 Red. masses --     12.7549                 1.0802                 1.0840
 Frc consts  --     25.8788                 5.5206                 5.6724
 IR Inten    --    183.2552                30.9491                60.8393

                     55                     56                     57
                      A                      A                      A
 Frequencies --   3028.1282              3044.1210              3050.2695
 Red. masses --      1.0628                 1.0649                 1.0410
 Frc consts  --      5.7417                 5.8143                 5.7065
 IR Inten    --     32.4129                 8.2963                25.6366

                     58                     59                     60
                      A                      A                      A
 Frequencies --   3052.6448              3058.7204              3065.9965
 Red. masses --      1.0665                 1.0363                 1.0929
 Frc consts  --      5.8553                 5.7121                 6.0532
 IR Inten    --      8.0912                15.9872                45.5689

                     61                     62                     63
                      A                      A                      A
 Frequencies --   3093.0789              3110.0514              3130.3402
 Red. masses --      1.1026                 1.1022                 1.1023
 Frc consts  --      6.2151                 6.2811                 6.3638
 IR Inten    --     20.4950                51.1588                15.8358

                     64                     65                     66
                      A                      A                      A
 Frequencies --   3134.5136              3136.5019              3145.3655
 Red. masses --      1.0975                 1.1021                 1.0997
 Frc consts  --      6.3533                 6.3882                 6.4103
 IR Inten    --     21.8198                17.5685                24.9658

 - Thermochemistry -
 -------------------
 Temperature   298.150 Kelvin.  Pressure   1.00000 Atm.
 Atom     1 has atomic number  6 and mass  12.00000

 Molecular mass:   142.09938 amu.
 Principal axes and moments of inertia in atomic units:
                           1         2         3
     Eigenvalues --  1056.634941764.921442672.74885
           X            0.99939  -0.03477   0.00207
           Y            0.03478   0.99938  -0.00462
           Z           -0.00191   0.00469   0.99999
 This molecule is an asymmetric top.
 Rotational symmetry number  1.
 Warning -- assumption of classical behavior for rotation
           may cause significant error
 Rotational temperatures (Kelvin)      0.08197     0.04908     0.03241
 Rotational constants (GHZ):           1.70801     1.02256     0.67524
 Zero-point vibrational energy     555277.4 (Joules/Mol)
                                  132.71448 (Kcal/Mol)
 Warning -- explicit consideration of  15 degrees of freedom as
           vibrations may cause significant error
 Vibrational temperatures:     68.76   104.05   142.94   168.41   247.27
          (Kelvin)            343.61   348.63   411.97   425.93   543.00
                              605.88   657.80   733.67   769.99   851.48
                              941.28  1095.62  1168.83  1195.50  1260.32
                             1293.97  1347.57  1358.01  1411.96  1512.85
                             1535.77  1560.89  1599.14  1638.12  1670.18
                             1705.21  1707.55  1762.55  1823.61  1834.90
                             1858.27  1920.61  1935.55  2003.46  2012.96
                             2021.33  2042.81  2079.58  2083.13  2123.27
                             2161.33  2178.94  2183.86  2199.21  2201.04
                             2214.94  2669.94  4237.41  4287.92  4356.80
                             4379.81  4388.66  4392.07  4400.82  4411.29
                             4450.25  4474.67  4503.86  4509.87  4512.73
                             4525.48

 Zero-point correction=                           0.211494 (Hartree/Particle)
 Thermal correction to Energy=                    0.222266
 Thermal correction to Enthalpy=                  0.223210
 Thermal correction to Gibbs Free Energy=         0.174683
 Sum of electronic and zero-point Energies=           -463.552655
 Sum of electronic and thermal Energies=              -463.541883
 Sum of electronic and thermal Enthalpies=            -463.540939
 Sum of electronic and thermal Free Energies=         -463.589466

                     E (Thermal)             CV                S
                      KCal/Mol        Cal/Mol-Kelvin    Cal/Mol-Kelvin
 Total                  139.474             39.688            102.135
 Electronic               0.000              0.000              0.000
 Translational            0.889              2.981             40.765
 Rotational               0.889              2.981             29.990
 Vibrational            137.697             33.726             31.380
 Vibration     1          0.595              1.978              4.907
 Vibration     2          0.598              1.967              4.089
 Vibration     3          0.604              1.950              3.467
 Vibration     4          0.608              1.935              3.148
 Vibration     5          0.626              1.877              2.415
 Vibration     6          0.657              1.781              1.812
 Vibration     7          0.659              1.775              1.786
 Vibration     8          0.684              1.699              1.496
 Vibration     9          0.690              1.681              1.439
 Vibration    10          0.748              1.518              1.050
 Vibration    11          0.784              1.424              0.888
 Vibration    12          0.815              1.345              0.774
 Vibration    13          0.865              1.228              0.634
 Vibration    14          0.890              1.172              0.576
 Vibration    15          0.949              1.049              0.464

 Optimization completed.
    -- Stationary point found.

 1\1\GINC-NODE319\Freq\RB3LYP\6-31G(d)\C8H14O2\VSC10255\08-Dec-2020\0\\
 #N Geom=AllCheck Guess=TCheck SCRF=Check GenChk RB3LYP/6-31G(d) Freq\\
 CID_14320742_JID_45_neutraal\\0,1\C,1.0682734685,-0.0633984558,0.05297
 4344\C,0.4573610844,-0.7832489411,1.2591340754\C,0.8170516535,-0.16846
 6567,2.6180036561\C,0.2299347579,1.2154480057,2.8712475994\C,0.3734526
 212,1.6722731373,4.3303143321\O,0.0961044028,1.0125081336,5.3055756611
 \C,0.9294255279,3.0917669799,4.2929848812\C,0.7698140558,3.4743223131,
 2.8170248893\O,0.8869430817,2.225685767,2.1117136724\C,1.8066567354,4.

 Normal termination of Gaussian 16 at Tue Dec  8 10:20:28 2020.

 ----------------------------------------------------------------------
 # B3LYP/6-311++G(d,p) empiricaldispersion=gd3bj scf=xqc pop=npa geom=c
 heck
 ----------------------------------------------------------------------

 ------------------------------------
 CID_14320742_JID_45_Energie_neutraal
 ------------------------------------
 Structure from the checkpoint file:  "JID_45.chk"
 Charge =  0 Multiplicity = 1

 SCF Done:  E(RB3LYP) =  -463.899215341     A.U. after   13 cycles
 Normal termination of Gaussian 16 at Tue Dec  8 10:21:56 2020.

 ----------------------------------------------------------------------
 # B3LYP/6-311++G(d,p) empiricaldispersion=gd3bj scf=xqc pop=npa geom=c
 heck
 ----------------------------------------------------------------------

 ----------------------------------
 CID_14320742_JID_45_Energie_kation
 ----------------------------------
 Structure from the checkpoint file:  "JID_45.chk"
 Charge =  1 Multiplicity = 2

 SCF Done:  E(UB3LYP) =  -463.567847129     A.U. after   19 cycles
 Normal termination of Gaussian 16 at Tue Dec  8 10:24:35 2020.
 Gaussian 16:  ES64L-G16RevA.03 25-Dec-2016

 ---------------------------------
 CID_14320742_JID_45_Energie_anion
 ---------------------------------
 Structure from the checkpoint file:  "JID_45.chk"
 Charge = -1 Multiplicity = 2

                         Standard orientation:
 ---------------------------------------------------------------------
 Center     Atomic      Atomic             Coordinates (Angstroms)
 Number     Number       Type             X           Y           Z
 ---------------------------------------------------------------------
      1          6           0       -2.849359   -1.355436    0.069096
      2          6           0       -2.812947    0.167457   -0.091192
      3          6           0       -1.524515    0.831005    0.412302
      4          6           0       -0.274400    0.498166   -0.394227
      5          6           0        0.925269    1.388882   -0.039852
      6          8           0        0.904057    2.594771    0.053586
      7          6           0        2.115531    0.458897    0.169585
      8          6           0        1.600729   -0.873247   -0.387778
      9          8           0        0.181256   -0.830349   -0.156407
     10          6           0        2.151163   -2.123739    0.267949
     11          1           0       -2.042449   -1.834392   -0.491533
     12          1           0       -3.805803   -1.761089   -0.279817
     13          1           0       -2.727502   -1.638919    1.121476
     14          1           0       -2.957465    0.431814   -1.148482
     15          1           0       -3.659177    0.609931    0.450620
     16          1           0       -1.630483    1.922324    0.380300
     17          1           0       -1.337777    0.555194    1.458486
     18          1           0       -0.479532    0.643788   -1.472102
     19          1           0        2.304810    0.380395    1.248940
     20          1           0        3.019426    0.846065   -0.307455
     21          1           0        1.783204   -0.906985   -1.475292
     22          1           0        1.660475   -3.013826   -0.137708
     23          1           0        3.228740   -2.208777    0.091838
     24          1           0        1.972209   -2.092808    1.347997
 ---------------------------------------------------------------------

 SCF Done:  E(UB3LYP) =  -463.884990724     A.U. after   31 cycles

 The electronic state is 2-A.
 Alpha  occ. eigenvalues --  -19.00985 -18.98586 -10.12063 -10.11144 -10.10531
 Alpha  occ. eigenvalues --  -10.05924 -10.05848 -10.05794 -10.05157 -10.04462
 Alpha  occ. eigenvalues --   -0.93518  -0.91517  -0.69379  -0.66604  -0.63351
 Alpha  occ. eigenvalues --   -0.59570  -0.53584  -0.47789  -0.47243  -0.43283
 Alpha  occ. eigenvalues --   -0.37888  -0.37484  -0.34514  -0.33231  -0.32851
 Alpha  occ. eigenvalues --   -0.31257  -0.30363  -0.29037  -0.27954  -0.27158
 Alpha  occ. eigenvalues --   -0.26718  -0.25689  -0.23191  -0.22896  -0.22688
 Alpha  occ. eigenvalues --   -0.22432  -0.21323  -0.15749  -0.12018   0.05149
 Alpha virt. eigenvalues --    0.07230   0.07662   0.08968   0.09149   0.10026
 Alpha virt. eigenvalues --    0.10295   0.10539   0.12029   0.12504   0.12786
 Alpha virt. eigenvalues --    0.13492   0.13934   0.14401   0.15242   0.17116

  Beta  occ. eigenvalues --  -19.00967 -18.98412 -10.11809 -10.11128 -10.10543
  Beta  occ. eigenvalues --  -10.05903 -10.05831 -10.05803 -10.05122 -10.04443
  Beta  occ. eigenvalues --   -0.93394  -0.91238  -0.69345  -0.66516  -0.63142
  Beta  occ. eigenvalues --   -0.59504  -0.53484  -0.47691  -0.47113  -0.43012
  Beta  occ. eigenvalues --   -0.37777  -0.37342  -0.34341  -0.33124  -0.32769
  Beta  occ. eigenvalues --   -0.31034  -0.30139  -0.28929  -0.27869  -0.27051
  Beta  occ. eigenvalues --   -0.26573  -0.25479  -0.23128  -0.22653  -0.22466
  Beta  occ. eigenvalues --   -0.22349  -0.21091  -0.15644  -0.11889
  Beta virt. eigenvalues --    0.07470   0.08319   0.08960   0.09485   0.10120
  Beta virt. eigenvalues --    0.10542   0.10812   0.11039   0.12335   0.12738
  Beta virt. eigenvalues --    0.13164   0.13699   0.14181   0.14494   0.15294

 Mulliken charges and spin densities:
               1          2
     1  C    0.433976  -1.030015
     2  C   -0.447826   0.341748
     3  C   -0.459662   0.256794
     4  C    0.610688  -0.722827
     5  C   -0.081114   0.223802
     6  O   -0.356003   0.074598
     7  C    0.044705  -0.524120
     8  C   -0.507185   0.633950
     9  O   -0.069018   0.070983
    10  C    1.399588  -2.002560
    11  H    0.026573   0.154033
    12  H   -0.294915   0.413438
    13  H    0.021506   0.100385
    14  H   -0.089103   0.200340
    15  H   -0.198351   0.336162
    16  H    0.180440  -0.026271
    17  H    0.022174   0.135110
    18  H   -0.143429   0.328128
    19  H    0.195861  -0.039721
    20  H   -0.285348   0.472349
    21  H   -0.274032   0.446788
    22  H   -0.290474   0.438097
    23  H   -0.456614   0.604087
    24  H    0.017561   0.114722
 Sum of Mulliken charges =  -1.00000   1.00000

 Dipole moment (field-independent basis, Debye):
    X=             -2.2364    Y=              1.4924    Z=              2.8596  Tot=              3.9251
 Quadrupole moment (field-independent basis, Debye-Ang):
   XX=           -119.8165   YY=           -107.0879   ZZ=            -84.0368
   XY=              0.5042   XZ=              4.2583   YZ=             -2.2611

 Summary of Natural Population Analysis:

                                       Natural Population
                Natural  -----------------------------------------------
    Atom  No    Charge         Core      Valence    Rydberg      Total
 -----------------------------------------------------------------------
      C    1   -0.28684      0.99966     2.28234    0.00483     3.28684
      C    2   -0.18747      0.99964     2.17930    0.00853     3.18747
      C    3   -0.19309      0.99960     2.18558    0.00791     3.19309
      C    4    0.02134      0.99951     1.96442    0.01473     2.97866
      C    5    0.32390      0.99966     1.65427    0.02217     2.67610
      O    6   -0.27872      0.99987     3.27253    0.00632     4.27872
      C    7   -0.25061      0.99957     2.24240    0.00864     3.25061
      C    8    0.06524      0.99958     1.92054    0.01464     2.93476
      O    9   -0.30835      0.99988     3.29786    0.01060     4.30835
      C   10   -0.28871      0.99964     2.28271    0.00636     3.28871
      H   11    0.10787      0.00000     0.39023    0.00190     0.39213
      H   12    0.09276      0.00000     0.40601    0.00123     0.40724
      H   13    0.09286      0.00000     0.40579    0.00135     0.40714
      H   14    0.09353      0.00000     0.40516    0.00131     0.40647
      H   15    0.09079      0.00000     0.40820    0.00101     0.40921
      H   16    0.10711      0.00000     0.39173    0.00116     0.39289
      H   17    0.09682      0.00000     0.40187    0.00131     0.40318
      H   18    0.09126      0.00000     0.40660    0.00214     0.40874
      H   19    0.10950      0.00000     0.38938    0.00111     0.39050
      H   20    0.11640      0.00000     0.38165    0.00194     0.38360
      H   21    0.08057      0.00000     0.41643    0.00299     0.41943
      H   22    0.10394      0.00000     0.39473    0.00132     0.39606
      H   23    0.10329      0.00000     0.39489    0.00182     0.39671
      H   24    0.09658      0.00000     0.40226    0.00116     0.40342
 =======================================================================
   * Total *    0.00000      9.99662    28.87688    0.12650    39.00000

 Normal termination of Gaussian 16 at Tue Dec  8 10:28:54 2020.
