 Gaussian 16, Revision A.03,

 -----------------------------------------------------------
 # opt freq B3LYP/6-31G(d) empiricaldispersion=gd3bj scf=xqc
 -----------------------------------------------------------

 ------------------------------
 CID_88647256_JID_1792_neutraal
 ------------------------------
 Symbolic Z-matrix:
 Charge =  0 Multiplicity = 1

 SCF Done:  E(RB3LYP) =  -522.701628121     A.U. after   12 cycles
 SCF Done:  E(RB3LYP) =  -522.706716700     A.U. after   12 cycles
 SCF Done:  E(RB3LYP) =  -522.707434216     A.U. after   13 cycles
 SCF Done:  E(RB3LYP) =  -522.707161622     A.U. after   12 cycles
 SCF Done:  E(RB3LYP) =  -522.708116645     A.U. after   10 cycles
 SCF Done:  E(RB3LYP) =  -522.708149314     A.U. after   10 cycles
 SCF Done:  E(RB3LYP) =  -522.708519673     A.U. after   10 cycles
 SCF Done:  E(RB3LYP) =  -522.708652716     A.U. after   10 cycles
 SCF Done:  E(RB3LYP) =  -522.708736846     A.U. after   10 cycles
 SCF Done:  E(RB3LYP) =  -522.708830435     A.U. after   10 cycles
 SCF Done:  E(RB3LYP) =  -522.709778117     A.U. after    9 cycles
 SCF Done:  E(RB3LYP) =  -522.709789438     A.U. after    9 cycles
 SCF Done:  E(RB3LYP) =  -522.709786772     A.U. after    9 cycles
 SCF Done:  E(RB3LYP) =  -522.709789714     A.U. after    8 cycles
 SCF Done:  E(RB3LYP) =  -522.709789689     A.U. after    6 cycles
 SCF Done:  E(RB3LYP) =  -522.709789699     A.U. after    5 cycles
 Optimization completed.
    -- Stationary point found.
 Normal termination of Gaussian 16 at Tue Dec  8 21:47:35 2020.

 --------------------------------------------------------------------
 #N Geom=AllCheck Guess=TCheck SCRF=Check GenChk RB3LYP/6-31G(d) Freq
 --------------------------------------------------------------------

 Structure from the checkpoint file:  "JID_1792.chk"
 ------------------------------
 CID_88647256_JID_1792_neutraal
 ------------------------------
 Charge =  0 Multiplicity = 1

 SCF Done:  E(RB3LYP) =  -522.709789699     A.U. after    1 cycles

  Exact polarizability: 109.791  -3.532 100.311   1.171  -2.463  95.877
 Approx polarizability: 139.479  -2.417 136.561   0.709  -3.821 130.680

                      1                      2                      3
                      A                      A                      A
 Frequencies --     27.2046                33.7374                40.6478
 Red. masses --      2.9883                 2.1131                 3.3901
 Frc consts  --      0.0013                 0.0014                 0.0033
 IR Inten    --      0.1669                 0.0606                 0.3053

                      4                      5                      6
                      A                      A                      A
 Frequencies --     78.7579                81.4724                87.7505
 Red. masses --      2.2939                 3.3643                 2.4891
 Frc consts  --      0.0084                 0.0132                 0.0113
 IR Inten    --      0.0844                 0.3290                 1.5792

                      7                      8                      9
                      A                      A                      A
 Frequencies --    103.2331               126.5694               155.3832
 Red. masses --      2.4040                 1.3788                 3.8510
 Frc consts  --      0.0151                 0.0130                 0.0548
 IR Inten    --      1.0787                 0.1335                 6.5527

                     10                     11                     12
                      A                      A                      A
 Frequencies --    181.1308               223.4989               240.5357
 Red. masses --      3.0594                 1.8819                 1.1499
 Frc consts  --      0.0591                 0.0554                 0.0392
 IR Inten    --      1.5205                 0.5091                 0.5493

                     13                     14                     15
                      A                      A                      A
 Frequencies --    251.5429               270.0096               288.1385
 Red. masses --      1.1865                 1.2996                 1.9474
 Frc consts  --      0.0442                 0.0558                 0.0953
 IR Inten    --      2.1183                 0.6754                 2.6207

                     16                     17                     18
                      A                      A                      A
 Frequencies --    327.3821               330.2858               350.3103
 Red. masses --      3.0057                 1.0613                 1.3410
 Frc consts  --      0.1898                 0.0682                 0.0970
 IR Inten    --      1.1929                10.8360                66.2081

                     19                     20                     21
                      A                      A                      A
 Frequencies --    357.9015               397.2341               453.7572
 Red. masses --      2.3783                 2.6046                 2.7591
 Frc consts  --      0.1795                 0.2421                 0.3347
 IR Inten    --     23.9061                 3.9934                 3.5061

                     22                     23                     24
                      A                      A                      A
 Frequencies --    471.8024               521.9412               595.7694
 Red. masses --      2.8300                 2.8309                 1.1111
 Frc consts  --      0.3712                 0.4544                 0.2324
 IR Inten    --     12.7954                 6.1597               110.6314

                     25                     26                     27
                      A                      A                      A
 Frequencies --    689.4853               797.5155               834.5481
 Red. masses --      3.1445                 2.7823                 1.0561
 Frc consts  --      0.8807                 1.0426                 0.4334
 IR Inten    --     39.0344                 9.3605                 4.7494

                     28                     29                     30
                      A                      A                      A
 Frequencies --    842.5913               878.1947               915.1379
 Red. masses --      1.0595                 2.4217                 2.5166
 Frc consts  --      0.4432                 1.1004                 1.2418
 IR Inten    --      7.6382                18.2042                11.4347

                     31                     32                     33
                      A                      A                      A
 Frequencies --    964.2853              1006.7757              1010.6744
 Red. masses --      1.9421                 1.8686                 3.2874
 Frc consts  --      1.0640                 1.1159                 1.9785
 IR Inten    --      2.9761                38.6260                 0.1139

                     34                     35                     36
                      A                      A                      A
 Frequencies --   1066.8146              1079.1624              1089.9124
 Red. masses --      2.1105                 1.6563                 2.4249
 Frc consts  --      1.4152                 1.1365                 1.6972
 IR Inten    --     36.3234                 5.3383                85.5146

                     37                     38                     39
                      A                      A                      A
 Frequencies --   1114.9232              1126.9640              1131.4701
 Red. masses --      2.0091                 1.8751                 2.0072
 Frc consts  --      1.4714                 1.4031                 1.5140
 IR Inten    --     24.3672                 2.4420                47.1750

                     40                     41                     42
                      A                      A                      A
 Frequencies --   1140.0440              1200.7727              1223.0647
 Red. masses --      1.6346                 1.4840                 1.9552
 Frc consts  --      1.2517                 1.2607                 1.7232
 IR Inten    --     61.5546                 8.3095                 7.5205

                     43                     44                     45
                      A                      A                      A
 Frequencies --   1237.3877              1238.7686              1255.4544
 Red. masses --      1.4600                 1.4580                 1.2945
 Frc consts  --      1.3171                 1.3182                 1.2021
 IR Inten    --      0.0459                 0.0891                 4.4380

                     46                     47                     48
                      A                      A                      A
 Frequencies --   1282.9552              1321.7183              1335.5235
 Red. masses --      1.3833                 2.2973                 1.3561
 Frc consts  --      1.3415                 2.3645                 1.4251
 IR Inten    --     31.0818                15.5801                 6.6589

                     49                     50                     51
                      A                      A                      A
 Frequencies --   1385.6916              1406.5551              1415.3398
 Red. masses --      1.2281                 1.3913                 1.2652
 Frc consts  --      1.3893                 1.6218                 1.4932
 IR Inten    --     12.1946                 6.7388                13.4676

                     52                     53                     54
                      A                      A                      A
 Frequencies --   1428.8557              1435.4454              1450.1859
 Red. masses --      1.3159                 1.2024                 1.3424
 Frc consts  --      1.5828                 1.4598                 1.6634
 IR Inten    --     14.6842                 0.3319                48.2773

                     55                     56                     57
                      A                      A                      A
 Frequencies --   1455.5481              1459.1955              1474.9225
 Red. masses --      1.3207                 1.2470                 1.1688
 Frc consts  --      1.6486                 1.5643                 1.4981
 IR Inten    --     27.1993                 1.3790                 0.9849

                     58                     59                     60
                      A                      A                      A
 Frequencies --   1503.6550              1503.9816              1518.0939
 Red. masses --      1.1001                 1.1047                 1.0664
 Frc consts  --      1.4654                 1.4723                 1.4480
 IR Inten    --      3.5968                 3.9850                 4.0800

                     61                     62                     63
                      A                      A                      A
 Frequencies --   1521.3714              1530.0474              1531.7761
 Red. masses --      1.0514                 1.0618                 1.0567
 Frc consts  --      1.4338                 1.4646                 1.4609
 IR Inten    --      1.6877                 8.0861                13.7402

                     64                     65                     66
                      A                      A                      A
 Frequencies --   1532.2060              1534.9632              1536.6759
 Red. masses --      1.0369                 1.0554                 1.0499
 Frc consts  --      1.4342                 1.4651                 1.4607
 IR Inten    --      3.8124                 4.6188                 1.3843

                     67                     68                     69
                      A                      A                      A
 Frequencies --   1539.5565              1549.2960              1551.3839
 Red. masses --      1.0545                 1.0521                 1.0515
 Frc consts  --      1.4726                 1.4880                 1.4910
 IR Inten    --      5.7241                 8.9937                 5.4216

                     70                     71                     72
                      A                      A                      A
 Frequencies --   2940.9097              2982.5740              3032.1672
 Red. masses --      1.0611                 1.0583                 1.0773
 Frc consts  --      5.4074                 5.5468                 5.8358
 IR Inten    --     75.4402                74.9592                41.1744

                     73                     74                     75
                      A                      A                      A
 Frequencies --   3034.6403              3043.3175              3044.9915
 Red. masses --      1.0706                 1.0364                 1.0422
 Frc consts  --      5.8088                 5.6556                 5.6933
 IR Inten    --     14.4697                15.1220                30.8797

                     76                     77                     78
                      A                      A                      A
 Frequencies --   3047.6730              3063.4031              3071.9089
 Red. masses --      1.0368                 1.0826                 1.0713
 Frc consts  --      5.6741                 5.9857                 5.9564
 IR Inten    --     36.0610                52.5353                40.7393

                     79                     80                     81
                      A                      A                      A
 Frequencies --   3078.9386              3091.7900              3097.9333
 Red. masses --      1.0806                 1.1011                 1.0994
 Frc consts  --      6.0354                 6.2015                 6.2167
 IR Inten    --     52.2457                 0.3216                39.0588

                     82                     83                     84
                      A                      A                      A
 Frequencies --   3102.9617              3112.6736              3115.9952
 Red. masses --      1.1015                 1.0974                 1.1028
 Frc consts  --      6.2489                 6.2644                 6.3087
 IR Inten    --     36.0929                22.1992               110.0047

                     85                     86                     87
                      A                      A                      A
 Frequencies --   3117.2886              3132.3660              3147.8467
 Red. masses --      1.1028                 1.1022                 1.1011
 Frc consts  --      6.3141                 6.3719                 6.4282
 IR Inten    --     20.2957                27.2439                13.5155

                     88                     89                     90
                      A                      A                      A
 Frequencies --   3155.3287              3695.3911              3750.6239
 Red. masses --      1.0965                 1.0651                 1.0663
 Frc consts  --      6.4322                 8.5694                 8.8380
 IR Inten    --     24.8768                58.2300                15.8152

 - Thermochemistry -
 -------------------
 Temperature   298.150 Kelvin.  Pressure   1.00000 Atm.
 Atom     1 has atomic number  6 and mass  12.00000

 Molecular mass:   163.15723 amu.
 Principal axes and moments of inertia in atomic units:
                           1         2         3
     Eigenvalues --  1642.709682831.365083155.43708
           X            0.99996  -0.00247  -0.00840
           Y            0.00200   0.99849  -0.05489
           Z            0.00852   0.05487   0.99846
 This molecule is an asymmetric top.
 Rotational symmetry number  1.
 Warning -- assumption of classical behavior for rotation
           may cause significant error
 Rotational temperatures (Kelvin)      0.05273     0.03059     0.02745
 Rotational constants (GHZ):           1.09864     0.63741     0.57195
 Zero-point vibrational energy     771026.8 (Joules/Mol)
                                  184.27982 (Kcal/Mol)
 Warning -- explicit consideration of  24 degrees of freedom as
           vibrations may cause significant error
 Vibrational temperatures:     39.14    48.54    58.48   113.32   117.22
          (Kelvin)            126.25   148.53   182.11   223.56   260.61
                              321.57   346.08   361.91   388.48   414.57
                              471.03   475.21   504.02   514.94   571.53
                              652.86   678.82   750.96   857.18   992.02
                             1147.45  1200.73  1212.30  1263.53  1316.68
                             1387.39  1448.53  1454.14  1534.91  1552.67
                             1568.14  1604.13  1621.45  1627.93  1640.27
                             1727.64  1759.72  1780.32  1782.31  1806.32
                             1845.89  1901.66  1921.52  1993.70  2023.72
                             2036.36  2055.80  2065.29  2086.49  2094.21
                             2099.46  2122.08  2163.42  2163.89  2184.20
                             2188.91  2201.40  2203.88  2204.50  2208.47
                             2210.93  2215.08  2229.09  2232.10  4231.31
                             4291.26  4362.61  4366.17  4378.66  4381.06
                             4384.92  4407.55  4419.79  4429.91  4448.40
                             4457.24  4464.47  4478.44  4483.22  4485.08
                             4506.78  4529.05  4539.81  5316.84  5396.31

 Zero-point correction=                           0.293669 (Hartree/Particle)
 Thermal correction to Energy=                    0.310071
 Thermal correction to Enthalpy=                  0.311016
 Thermal correction to Gibbs Free Energy=         0.248676
 Sum of electronic and zero-point Energies=           -522.416121
 Sum of electronic and thermal Energies=              -522.399718
 Sum of electronic and thermal Enthalpies=            -522.398774
 Sum of electronic and thermal Free Energies=         -522.461114

                     E (Thermal)             CV                S
                      KCal/Mol        Cal/Mol-Kelvin    Cal/Mol-Kelvin
 Total                  194.573             56.737            131.204
 Electronic               0.000              0.000              0.000
 Translational            0.889              2.981             41.177
 Rotational               0.889              2.981             31.063
 Vibrational            192.795             50.775             58.965
 Vibration     1          0.593              1.984              6.023
 Vibration     2          0.594              1.983              5.597
 Vibration     3          0.594              1.981              5.227
 Vibration     4          0.600              1.963              3.922
 Vibration     5          0.600              1.962              3.855
 Vibration     6          0.601              1.958              3.710
 Vibration     7          0.605              1.947              3.392
 Vibration     8          0.611              1.927              2.998
 Vibration     9          0.620              1.897              2.605
 Vibration    10          0.630              1.865              2.317
 Vibration    11          0.649              1.805              1.931
 Vibration    12          0.658              1.778              1.799
 Vibration    13          0.664              1.760              1.720
 Vibration    14          0.674              1.728              1.596
 Vibration    15          0.685              1.696              1.485
 Vibration    16          0.711              1.621              1.273
 Vibration    17          0.713              1.615              1.259
 Vibration    18          0.727              1.575              1.165
 Vibration    19          0.733              1.559              1.131
 Vibration    20          0.764              1.476              0.973
 Vibration    21          0.812              1.353              0.784
 Vibration    22          0.829              1.313              0.733
 Vibration    23          0.877              1.201              0.605
 Vibration    24          0.954              1.041              0.457

 Optimization completed.
    -- Stationary point found.
 Normal termination of Gaussian 16 at Tue Dec  8 21:55:52 2020.

 ----------------------------------------------------------------------
 # B3LYP/6-311++G(d,p) empiricaldispersion=gd3bj scf=xqc pop=npa geom=c
 heck
 ----------------------------------------------------------------------

 --------------------------------------
 CID_88647256_JID_1792_Energie_neutraal
 --------------------------------------
 Structure from the checkpoint file:  "JID_1792.chk"
 Charge =  0 Multiplicity = 1

 SCF Done:  E(RB3LYP) =  -522.883373183     A.U. after   14 cycles
 Normal termination of Gaussian 16 at Tue Dec  8 21:59:46 2020.

 ----------------------------------------------------------------------
 # B3LYP/6-311++G(d,p) empiricaldispersion=gd3bj scf=xqc pop=npa geom=c
 heck
 ----------------------------------------------------------------------

 ------------------------------------
 CID_88647256_JID_1792_Energie_kation
 ------------------------------------
 Structure from the checkpoint file:  "JID_1792.chk"
 Charge =  1 Multiplicity = 2

 SCF Done:  E(UB3LYP) =  -522.594755765     A.U. after   19 cycles
 Normal termination of Gaussian 16 at Tue Dec  8 22:07:10 2020.
 Gaussian 16:  ES64L-G16RevA.03 25-Dec-2016

 ----------------------------------------------------------------------
 # B3LYP/6-311++G(d,p) empiricaldispersion=gd3bj scf=xqc pop=npa geom=c
 heck
 ----------------------------------------------------------------------

 -----------------------------------
 CID_88647256_JID_1792_Energie_anion
 -----------------------------------
 Structure from the checkpoint file:  "JID_1792.chk"
 Charge = -1 Multiplicity = 2

                         Standard orientation:
 ---------------------------------------------------------------------
 Center     Atomic      Atomic             Coordinates (Angstroms)
 Number     Number       Type             X           Y           Z
 ---------------------------------------------------------------------
      1          6           0        3.305213   -0.007555   -0.986650
      2          6           0        3.473423    1.275321   -0.169513
      3          6           0        0.550240   -0.077188    2.216735
      4          6           0       -0.141532   -0.811177    1.077696
      5          6           0       -0.456361    0.121129   -0.107470
      6          6           0       -0.686801   -0.669969   -1.415563
      7          8           0       -1.461916   -1.847602   -1.234555
      8          7           0       -1.537104    1.035483    0.291409
      9          6           0       -1.468774    2.317884   -0.390863
     10          6           0       -2.883279    0.474830    0.206595
     11          8           0        0.675525   -1.885263    0.566728
     12          1           0        2.890316    0.207071   -1.978763
     13          1           0        2.631232   -0.713887   -0.491069
     14          1           0        4.268585   -0.508897   -1.136177
     15          1           0        4.155130    1.979267   -0.660492
     16          1           0        2.515461    1.790557   -0.029895
     17          1           0        3.879513    1.063703    0.826819
     18          1           0        0.694742   -0.732647    3.085455
     19          1           0        1.529548    0.294210    1.895829
     20          1           0       -0.065672    0.771763    2.525881
     21          1           0       -1.086148   -1.235554    1.443482
     22          1           0        0.428772    0.748154   -0.270119
     23          1           0       -1.231253   -0.043304   -2.129963
     24          1           0        0.286753   -0.909085   -1.864035
     25          1           0       -0.884306   -2.437327   -0.719191
     26          1           0       -1.656236    2.254929   -1.480474
     27          1           0       -2.220201    2.993709    0.032716
     28          1           0       -0.481958    2.768640   -0.240336
     29          1           0       -3.239717    0.340303   -0.829241
     30          1           0       -2.924414   -0.501820    0.691613
     31          1           0       -3.577934    1.149258    0.720351
     32          1           0        0.985876   -2.404148    1.324565
 ---------------------------------------------------------------------

 SCF Done:  E(UB3LYP) =  -522.871056654     A.U. after   25 cycles

 The electronic state is 2-A.
 Alpha  occ. eigenvalues --  -19.02317 -19.01070 -14.20585 -10.11698 -10.10823
 Alpha  occ. eigenvalues --  -10.09599 -10.08915 -10.08340 -10.06025 -10.05453
 Alpha  occ. eigenvalues --  -10.05068  -0.92829  -0.90937  -0.82348  -0.67274
 Alpha  occ. eigenvalues --   -0.65296  -0.61744  -0.60642  -0.55204  -0.52189
 Alpha  occ. eigenvalues --   -0.51646  -0.46001  -0.42362  -0.39119  -0.37913
 Alpha  occ. eigenvalues --   -0.37144  -0.35231  -0.33910  -0.33616  -0.33339
 Alpha  occ. eigenvalues --   -0.32387  -0.31347  -0.29443  -0.28388  -0.27672
 Alpha  occ. eigenvalues --   -0.27251  -0.27030  -0.26540  -0.25812  -0.24615
 Alpha  occ. eigenvalues --   -0.24157  -0.23424  -0.21780  -0.18102  -0.17569
 Alpha  occ. eigenvalues --   -0.11349   0.04428
 Alpha virt. eigenvalues --    0.06555   0.07040   0.08219   0.08827   0.09450
 Alpha virt. eigenvalues --    0.09917   0.10109   0.10705   0.11220   0.11965
 Alpha virt. eigenvalues --    0.12427   0.12903   0.13629   0.13744   0.14490

  Beta  occ. eigenvalues --  -19.02263 -19.01060 -14.20580 -10.11683 -10.10815
  Beta  occ. eigenvalues --  -10.09595 -10.08888 -10.08324 -10.05999 -10.05434
  Beta  occ. eigenvalues --  -10.05029  -0.92747  -0.90883  -0.82329  -0.67224
  Beta  occ. eigenvalues --   -0.65263  -0.61699  -0.60605  -0.55161  -0.52105
  Beta  occ. eigenvalues --   -0.51571  -0.45961  -0.42296  -0.39073  -0.37864
  Beta  occ. eigenvalues --   -0.37114  -0.35195  -0.33880  -0.33590  -0.33311
  Beta  occ. eigenvalues --   -0.32352  -0.31321  -0.29415  -0.28352  -0.27641
  Beta  occ. eigenvalues --   -0.27218  -0.26975  -0.26512  -0.25761  -0.24589
  Beta  occ. eigenvalues --   -0.24131  -0.23395  -0.21746  -0.18075  -0.17527
  Beta  occ. eigenvalues --   -0.11327
  Beta virt. eigenvalues --    0.06581   0.07506   0.07977   0.08469   0.09256
  Beta virt. eigenvalues --    0.09767   0.10349   0.10399   0.11051   0.11775
  Beta virt. eigenvalues --    0.12181   0.12669   0.13209   0.13818   0.14079

 Mulliken charges and spin densities:
               1          2
     1  C   -0.351344  -0.111053
     2  C    0.246775  -0.644170
     3  C    0.591507  -1.060880
     4  C   -1.520549   1.426303
     5  C    0.635144  -1.073012
     6  C   -0.395683  -0.358289
     7  O   -0.288804   0.059235
     8  N    0.058266   0.237831
     9  C    0.475476  -0.690546
    10  C    0.100479  -0.378685
    11  O   -0.221842  -0.025998
    12  H    0.024602   0.089896
    13  H    0.318913  -0.127857
    14  H   -0.244530   0.385490
    15  H   -0.135326   0.258451
    16  H   -0.240740   0.392491
    17  H   -0.143882   0.276958
    18  H   -0.954533   1.114565
    19  H    0.464922  -0.308701
    20  H   -0.036397   0.204144
    21  H   -0.020256   0.205853
    22  H    1.281765  -1.195762
    23  H    0.069840   0.104560
    24  H    0.094045   0.057297
    25  H    0.204489   0.072163
    26  H   -0.075314   0.188768
    27  H   -0.163325   0.294190
    28  H   -0.329999   0.459794
    29  H    0.094374   0.036389
    30  H    0.034518   0.113686
    31  H   -0.155123   0.295928
    32  H   -0.417467   0.700962
 Sum of Mulliken charges =  -1.00000   1.00000

 Dipole moment (field-independent basis, Debye):
    X=             -2.1188    Y=              1.6689    Z=             -3.4652  Tot=              4.3911
 Quadrupole moment (field-independent basis, Debye-Ang):
   XX=           -127.3882   YY=           -121.7365   ZZ=           -114.7254
   XY=              3.1581   XZ=             -3.5149   YZ=              6.4929

 Summary of Natural Population Analysis:

                                       Natural Population
                Natural  -----------------------------------------------
    Atom  No    Charge         Core      Valence    Rydberg      Total
 -----------------------------------------------------------------------
      C    1   -0.29235      0.99968     2.28822    0.00445     3.29235
      C    2   -0.28488      0.99969     2.28140    0.00379     3.28488
      C    3   -0.29801      0.99963     2.29142    0.00695     3.29801
      C    4    0.05883      0.99954     1.92492    0.01671     2.94117
      C    5   -0.02380      0.99954     2.00871    0.01555     3.02380
      C    6   -0.02014      0.99956     2.00882    0.01176     3.02014
      O    7   -0.37920      0.99990     3.37247    0.00683     4.37920
      N    8   -0.28254      0.99972     2.76950    0.01332     3.78254
      C    9   -0.17492      0.99964     2.16597    0.00930     3.17492
      C   10   -0.17718      0.99964     2.17002    0.00752     3.17718
      O   11   -0.38840      0.99989     3.38068    0.00783     4.38840
      H   12    0.09117      0.00000     0.40757    0.00125     0.40883
      H   13    0.10964      0.00000     0.38855    0.00181     0.39036
      H   14    0.09280      0.00000     0.40607    0.00113     0.40720
      H   15    0.09256      0.00000     0.40624    0.00121     0.40744
      H   16    0.09451      0.00000     0.40411    0.00138     0.40549
      H   17    0.09603      0.00000     0.40267    0.00130     0.40397
      H   18    0.10117      0.00000     0.39674    0.00209     0.39883
      H   19    0.09944      0.00000     0.39886    0.00170     0.40056
      H   20    0.10961      0.00000     0.38869    0.00170     0.39039
      H   21    0.08185      0.00000     0.41609    0.00205     0.41815
      H   22    0.09987      0.00000     0.39701    0.00313     0.40013
      H   23    0.08581      0.00000     0.41287    0.00132     0.41419
      H   24    0.08556      0.00000     0.41298    0.00146     0.41444
      H   25    0.23848      0.00000     0.25807    0.00345     0.26152
      H   26    0.07750      0.00000     0.42108    0.00142     0.42250
      H   27    0.09503      0.00000     0.40385    0.00112     0.40497
      H   28    0.09627      0.00000     0.40252    0.00121     0.40373
      H   29    0.08156      0.00000     0.41685    0.00159     0.41844
      H   30    0.10052      0.00000     0.39814    0.00135     0.39948
      H   31    0.09156      0.00000     0.40716    0.00128     0.40844
      H   32    0.24164      0.00000     0.24483    0.01353     0.25836
 =======================================================================
   * Total *    0.00000     10.99643    34.85307    0.15050    46.00000

 Normal termination of Gaussian 16 at Tue Dec  8 22:16:46 2020.
