 Gaussian 16, Revision A.03,

 -----------------------------------------------------------
 # opt freq B3LYP/6-31G(d) empiricaldispersion=gd3bj scf=xqc
 -----------------------------------------------------------

 ------------------------------
 CID_60170380_JID_5563_neutraal
 ------------------------------
 Symbolic Z-matrix:
 Charge =  0 Multiplicity = 1

 SCF Done:  E(RB3LYP) =  -667.875529170     A.U. after   16 cycles
 SCF Done:  E(RB3LYP) =  -667.880710671     A.U. after   14 cycles
 SCF Done:  E(RB3LYP) =  -667.879887801     A.U. after   13 cycles
 SCF Done:  E(RB3LYP) =  -667.881243041     A.U. after   12 cycles
 SCF Done:  E(RB3LYP) =  -667.881516041     A.U. after   13 cycles
 SCF Done:  E(RB3LYP) =  -667.881579157     A.U. after   11 cycles
 SCF Done:  E(RB3LYP) =  -667.881595591     A.U. after   10 cycles
 SCF Done:  E(RB3LYP) =  -667.881597323     A.U. after    9 cycles
 SCF Done:  E(RB3LYP) =  -667.881597646     A.U. after    8 cycles
 SCF Done:  E(RB3LYP) =  -667.881597774     A.U. after    8 cycles
 SCF Done:  E(RB3LYP) =  -667.881597808     A.U. after    7 cycles
 Optimization completed.
    -- Stationary point found.
 Normal termination of Gaussian 16 at Thu Dec 10 15:54:25 2020.

 --------------------------------------------------------------------
 #N Geom=AllCheck Guess=TCheck SCRF=Check GenChk RB3LYP/6-31G(d) Freq
 --------------------------------------------------------------------

 Structure from the checkpoint file:  "JID_5563.chk"
 ------------------------------
 CID_60170380_JID_5563_neutraal
 ------------------------------
 Charge =  0 Multiplicity = 1

 SCF Done:  E(RB3LYP) =  -667.881597808     A.U. after    1 cycles

  Exact polarizability: 159.547   8.353 171.567  18.393  -8.375  80.093
 Approx polarizability: 252.441  24.504 310.916  46.696  -9.428 145.333

                      1                      2                      3
                      A                      A                      A
 Frequencies --     44.6913                63.6551               123.6512
 Red. masses --      6.9563                 5.6927                 6.0854
 Frc consts  --      0.0082                 0.0136                 0.0548
 IR Inten    --      1.8194                 0.5535                 4.0570

                      4                      5                      6
                      A                      A                      A
 Frequencies --    140.1420               155.7265               179.1159
 Red. masses --      3.0154                 4.9342                 4.3646
 Frc consts  --      0.0349                 0.0705                 0.0825
 IR Inten    --      0.8525                 1.6630                 0.5429

                      7                      8                      9
                      A                      A                      A
 Frequencies --    228.6352               246.5063               340.5993
 Red. masses --      4.6980                 9.1535                 7.6287
 Frc consts  --      0.1447                 0.3277                 0.5214
 IR Inten    --      2.4755                 1.1359                 2.5973

                     10                     11                     12
                      A                      A                      A
 Frequencies --    349.3087               409.7244               432.7323
 Red. masses --      5.8650                 4.3517                 4.1890
 Frc consts  --      0.4216                 0.4304                 0.4622
 IR Inten    --      2.4592                 1.2310                 1.0678

                     13                     14                     15
                      A                      A                      A
 Frequencies --    480.3324               493.9784               513.5979
 Red. masses --      3.4019                 1.1428                 5.0625
 Frc consts  --      0.4624                 0.1643                 0.7868
 IR Inten    --      1.0817               110.6023                19.0362

                     16                     17                     18
                      A                      A                      A
 Frequencies --    519.5041               537.3008               585.6695
 Red. masses --      5.5820                 6.2566                 5.2327
 Frc consts  --      0.8876                 1.0642                 1.0575
 IR Inten    --      6.2875                10.3590                 9.9517

                     19                     20                     21
                      A                      A                      A
 Frequencies --    627.4248               676.1216               732.0502
 Red. masses --      4.0152                 5.7349                 2.2670
 Frc consts  --      0.9313                 1.5446                 0.7158
 IR Inten    --     12.1468                 7.8342                24.4869

                     22                     23                     24
                      A                      A                      A
 Frequencies --    743.5364               757.9902               796.7434
 Red. masses --      3.6313                 2.1925                 1.7772
 Frc consts  --      1.1828                 0.7422                 0.6647
 IR Inten    --     12.0309                 9.0263                73.4469

                     25                     26                     27
                      A                      A                      A
 Frequencies --    811.1398               824.0020               862.5051
 Red. masses --      5.1836                 1.6913                 4.5829
 Frc consts  --      2.0094                 0.6766                 2.0087
 IR Inten    --      0.3495                12.9998                 3.1280

                     28                     29                     30
                      A                      A                      A
 Frequencies --    882.7869               933.1906               958.2977
 Red. masses --      1.7650                 1.3966                 1.3410
 Frc consts  --      0.8104                 0.7166                 0.7256
 IR Inten    --      1.7878                 2.1215                 1.1010

                     31                     32                     33
                      A                      A                      A
 Frequencies --    966.3150               981.1336               991.9106
 Red. masses --      1.5260                 1.3058                 1.2837
 Frc consts  --      0.8396                 0.7406                 0.7441
 IR Inten    --     18.0770                 0.4265                 0.3310

                     34                     35                     36
                      A                      A                      A
 Frequencies --   1012.0496              1037.7962              1059.7318
 Red. masses --      5.1598                11.6899                 2.4645
 Frc consts  --      3.1138                 7.4180                 1.6307
 IR Inten    --     18.3220               194.0985                 3.6285

                     37                     38                     39
                      A                      A                      A
 Frequencies --   1100.9925              1166.3830              1183.5262
 Red. masses --      2.2598                 1.9669                 1.2815
 Frc consts  --      1.6139                 1.5766                 1.0576
 IR Inten    --      2.7863                 4.9001                 1.6244

                     40                     41                     42
                      A                      A                      A
 Frequencies --   1200.1474              1226.3940              1252.7940
 Red. masses --      1.1451                 1.5407                 2.2307
 Frc consts  --      0.9718                 1.3653                 2.0628
 IR Inten    --      0.6692                12.7611                 5.1604

                     43                     44                     45
                      A                      A                      A
 Frequencies --   1281.6080              1289.0459              1328.0106
 Red. masses --      1.3843                 1.5591                 2.7315
 Frc consts  --      1.3397                 1.5264                 2.8383
 IR Inten    --    100.3340                 1.9680                42.1613

                     46                     47                     48
                      A                      A                      A
 Frequencies --   1390.1875              1411.8125              1439.0643
 Red. masses --      3.3816                 8.0234                 2.0023
 Frc consts  --      3.8506                 9.4224                 2.4431
 IR Inten    --     10.1089                 1.6044                 1.2262

                     49                     50                     51
                      A                      A                      A
 Frequencies --   1451.0096              1489.4613              1510.4355
 Red. masses --      1.4940                 2.1931                 2.3420
 Frc consts  --      1.8533                 2.8666                 3.1480
 IR Inten    --    147.3229                 0.4104                 8.1085

                     52                     53                     54
                      A                      A                      A
 Frequencies --   1567.5559              1632.1555              1652.5283
 Red. masses --      3.3734                 6.8668                 5.0237
 Frc consts  --      4.8838                10.7777                 8.0831
 IR Inten    --     13.7634                20.2860                 0.7341

                     55                     56                     57
                      A                      A                      A
 Frequencies --   1683.6893              1696.9086              1746.8969
 Red. masses --      5.8375                 5.9862                12.1248
 Frc consts  --      9.7499                10.1558                21.8002
 IR Inten    --      1.6932                23.9307               194.0884

                     58                     59                     60
                      A                      A                      A
 Frequencies --   3158.2417              3181.3643              3185.1805
 Red. masses --      1.0912                 1.0868                 1.0870
 Frc consts  --      6.4130                 6.4809                 6.4972
 IR Inten    --      7.7835                 0.4182                 4.5612

                     61                     62                     63
                      A                      A                      A
 Frequencies --   3193.6161              3204.5518              3209.2245
 Red. masses --      1.0896                 1.0917                 1.0955
 Frc consts  --      6.5479                 6.6055                 6.6473
 IR Inten    --     15.0366                18.9841                31.3863

                     64                     65                     66
                      A                      A                      A
 Frequencies --   3219.7275              3233.7436              3738.6640
 Red. masses --      1.0943                 1.0925                 1.0677
 Frc consts  --      6.6837                 6.7313                 8.7925
 IR Inten    --     11.2999                11.5740                83.9396

 - Thermochemistry -
 -------------------
 Temperature   298.150 Kelvin.  Pressure   1.00000 Atm.
 Atom     1 has atomic number  6 and mass  12.00000

 Molecular mass:   199.06333 amu.
 Principal axes and moments of inertia in atomic units:
                           1         2         3
     Eigenvalues --  2179.296903431.699094775.20624
           X            0.99998  -0.00482   0.00323
           Y            0.00489   0.99976  -0.02119
           Z           -0.00313   0.02120   0.99977
 This molecule is an asymmetric top.
 Rotational symmetry number  1.
 Warning -- assumption of classical behavior for rotation
           may cause significant error
 Rotational temperatures (Kelvin)      0.03974     0.02524     0.01814
 Rotational constants (GHZ):           0.82813     0.52590     0.37794
 Zero-point vibrational energy     481643.6 (Joules/Mol)
                                  115.11558 (Kcal/Mol)
 Warning -- explicit consideration of  18 degrees of freedom as
           vibrations may cause significant error
 Vibrational temperatures:     64.30    91.59   177.91   201.63   224.06
          (Kelvin)            257.71   328.96   354.67   490.05   502.58
                              589.50   622.61   691.09   710.72   738.95
                              747.45   773.06   842.65   902.72   972.79
                             1053.26  1069.78  1090.58  1146.34  1167.05
                             1185.56  1240.95  1270.13  1342.65  1378.78
                             1390.31  1411.63  1427.14  1456.11  1493.16
                             1524.72  1584.08  1678.16  1702.83  1726.74
                             1764.51  1802.49  1843.95  1854.65  1910.71
                             2000.17  2031.28  2070.49  2087.68  2143.00
                             2173.18  2255.36  2348.31  2377.62  2422.45
                             2441.47  2513.39  4544.01  4577.27  4582.76
                             4594.90  4610.64  4617.36  4632.47  4652.64
                             5379.10

 Zero-point correction=                           0.183448 (Hartree/Particle)
 Thermal correction to Energy=                    0.195494
 Thermal correction to Enthalpy=                  0.196438
 Thermal correction to Gibbs Free Energy=         0.144639
 Sum of electronic and zero-point Energies=           -667.698149
 Sum of electronic and thermal Energies=              -667.686104
 Sum of electronic and thermal Enthalpies=            -667.685160
 Sum of electronic and thermal Free Energies=         -667.736959

                     E (Thermal)             CV                S
                      KCal/Mol        Cal/Mol-Kelvin    Cal/Mol-Kelvin
 Total                  122.674             47.019            109.021
 Electronic               0.000              0.000              0.000
 Translational            0.889              2.981             41.770
 Rotational               0.889              2.981             31.946
 Vibrational            120.897             41.057             35.305
 Vibration     1          0.595              1.980              5.039
 Vibration     2          0.597              1.972              4.341
 Vibration     3          0.610              1.929              3.042
 Vibration     4          0.615              1.913              2.802
 Vibration     5          0.620              1.896              2.601
 Vibration     6          0.629              1.868              2.338
 Vibration     7          0.651              1.797              1.890
 Vibration     8          0.661              1.769              1.755
 Vibration     9          0.720              1.594              1.209
 Vibration    10          0.727              1.577              1.169
 Vibration    11          0.774              1.449              0.928
 Vibration    12          0.794              1.399              0.850
 Vibration    13          0.837              1.294              0.709
 Vibration    14          0.850              1.263              0.673
 Vibration    15          0.869              1.220              0.625
 Vibration    16          0.874              1.207              0.611
 Vibration    17          0.892              1.168              0.571
 Vibration    18          0.943              1.062              0.475

 Optimization completed.
    -- Stationary point found.
 Normal termination of Gaussian 16 at Thu Dec 10 16:01:29 2020.

 ----------------------------------------------------------------------
 # B3LYP/6-311++G(d,p) empiricaldispersion=gd3bj scf=xqc pop=npa geom=c
 heck
 ----------------------------------------------------------------------

 --------------------------------------
 CID_60170380_JID_5563_Energie_neutraal
 --------------------------------------
 Structure from the checkpoint file:  "JID_5563.chk"
 Charge =  0 Multiplicity = 1

 SCF Done:  E(RB3LYP) =  -668.066821796     A.U. after   17 cycles
 Normal termination of Gaussian 16 at Thu Dec 10 16:04:19 2020.

 ----------------------------------------------------------------------
 # B3LYP/6-311++G(d,p) empiricaldispersion=gd3bj scf=xqc pop=npa geom=c
 heck
 ----------------------------------------------------------------------

 ------------------------------------
 CID_60170380_JID_5563_Energie_kation
 ------------------------------------
 Structure from the checkpoint file:  "JID_5563.chk"
 Charge =  1 Multiplicity = 2

 SCF Done:  E(UB3LYP) =  -667.770484048     A.U. after   25 cycles
 Normal termination of Gaussian 16 at Thu Dec 10 16:11:00 2020.
 Gaussian 16:  ES64L-G16RevA.03 25-Dec-2016

 ----------------------------------------------------------------------
 # B3LYP/6-311++G(d,p) empiricaldispersion=gd3bj scf=xqc pop=npa geom=c
 heck
 ----------------------------------------------------------------------

 -----------------------------------
 CID_60170380_JID_5563_Energie_anion
 -----------------------------------
 Structure from the checkpoint file:  "JID_5563.chk"
 Charge = -1 Multiplicity = 2

                         Standard orientation:
 ---------------------------------------------------------------------
 Center     Atomic      Atomic             Coordinates (Angstroms)
 Number     Number       Type             X           Y           Z
 ---------------------------------------------------------------------
      1          6           0       -2.660452   -2.036278    0.279317
      2          6           0       -1.374139   -2.306336    0.802399
      3          6           0       -0.394228   -1.340601    0.789823
      4          6           0       -0.643006   -0.048974    0.251535
      5          6           0       -1.959390    0.232833   -0.244125
      6          6           0       -2.943834   -0.790791   -0.227755
      7          6           0       -2.264675    1.533214   -0.722277
      8          6           0       -1.325541    2.537256   -0.687229
      9          6           0       -0.032219    2.271463   -0.192976
     10          6           0        0.326238    1.005137    0.233545
     11          6           0        1.746580    0.852661    0.684404
     12          8           0        2.273639    1.672277    1.425736
     13          6           0        2.602581   -0.239020    0.143845
     14          7           0        2.220624   -0.909132   -0.878245
     15          8           0        3.187631   -1.815288   -1.283740
     16          1           0       -3.422697   -2.809883    0.291815
     17          1           0       -1.159597   -3.284628    1.222946
     18          1           0        0.580061   -1.566848    1.205039
     19          1           0       -3.933711   -0.563208   -0.615067
     20          1           0       -3.264283    1.724632   -1.104198
     21          1           0       -1.571725    3.534357   -1.039664
     22          1           0        0.710765    3.061621   -0.159830
     23          1           0        3.584245   -0.370986    0.601098
     24          1           0        2.774931   -2.240424   -2.053427
 ---------------------------------------------------------------------

 SCF Done:  E(UB3LYP) =  -668.095917956     A.U. after   26 cycles

 The electronic state is 2-A.
 Alpha  occ. eigenvalues --  -19.03342 -18.92198 -14.20373 -10.07118 -10.05487
 Alpha  occ. eigenvalues --  -10.05483 -10.05245 -10.05161 -10.04958 -10.04426
 Alpha  occ. eigenvalues --  -10.04345 -10.04267 -10.03660 -10.03378 -10.03111
 Alpha  occ. eigenvalues --   -0.95699  -0.86511  -0.74542  -0.71887  -0.69354
 Alpha  occ. eigenvalues --   -0.64606  -0.61342  -0.59546  -0.51708  -0.49606
 Alpha  occ. eigenvalues --   -0.48569  -0.46579  -0.40709  -0.39139  -0.38572
 Alpha  occ. eigenvalues --   -0.36961  -0.35822  -0.33323  -0.31918  -0.30811
 Alpha  occ. eigenvalues --   -0.29249  -0.28532  -0.28357  -0.27411  -0.26732
 Alpha  occ. eigenvalues --   -0.25577  -0.24613  -0.22769  -0.21032  -0.20680
 Alpha  occ. eigenvalues --   -0.20150  -0.16013  -0.14073  -0.13012  -0.12082
 Alpha  occ. eigenvalues --   -0.09670  -0.08471   0.03126
 Alpha virt. eigenvalues --    0.07822   0.08039   0.09070   0.09407   0.10319
 Alpha virt. eigenvalues --    0.10787   0.11385   0.12141   0.13003   0.13190
 Alpha virt. eigenvalues --    0.14175   0.15149   0.15929   0.16755   0.17181

  Beta  occ. eigenvalues --  -19.03251 -18.91561 -14.19777 -10.06831 -10.05531
  Beta  occ. eigenvalues --  -10.05493 -10.05218 -10.05090 -10.04924 -10.04484
  Beta  occ. eigenvalues --  -10.04303 -10.04284 -10.03450 -10.03317 -10.02997
  Beta  occ. eigenvalues --   -0.95278  -0.85401  -0.74404  -0.71315  -0.69177
  Beta  occ. eigenvalues --   -0.64375  -0.61227  -0.59281  -0.50929  -0.49358
  Beta  occ. eigenvalues --   -0.48498  -0.46329  -0.40481  -0.38878  -0.38413
  Beta  occ. eigenvalues --   -0.36846  -0.35479  -0.33082  -0.31758  -0.30669
  Beta  occ. eigenvalues --   -0.29154  -0.28214  -0.27467  -0.26886  -0.26292
  Beta  occ. eigenvalues --   -0.25093  -0.24337  -0.21552  -0.20845  -0.20183
  Beta  occ. eigenvalues --   -0.19062  -0.15502  -0.13455  -0.11827  -0.11075
  Beta  occ. eigenvalues --   -0.09035  -0.07664
  Beta virt. eigenvalues --    0.07993   0.08199   0.09049   0.09400   0.10256
  Beta virt. eigenvalues --    0.10730   0.10911   0.11373   0.12147   0.13130
  Beta virt. eigenvalues --    0.13692   0.14223   0.15182   0.16133   0.16822

 Mulliken charges and spin densities:
               1          2
     1  C   -0.264669  -0.006611
     2  C   -0.576928   0.055327
     3  C   -0.726015   0.002944
     4  C    0.439471  -0.014233
     5  C    0.374938  -0.044964
     6  C   -0.130147   0.068027
     7  C   -0.145750   0.166679
     8  C   -0.578367  -0.005235
     9  C    0.125659   0.111422
    10  C    0.733858   0.005604
    11  C   -0.489618   0.212144
    12  O   -0.378063   0.215643
    13  C   -0.132278  -0.034416
    14  N   -0.451593   0.246784
    15  O   -0.009633   0.023524
    16  H    0.118106   0.000404
    17  H    0.124033  -0.001895
    18  H    0.132981   0.019370
    19  H    0.094020  -0.002090
    20  H    0.082600  -0.013527
    21  H    0.113311   0.000615
    22  H    0.169401  -0.003437
    23  H    0.119274  -0.001544
    24  H    0.255410  -0.000537
 Sum of Mulliken charges =  -1.00000   1.00000

 Dipole moment (field-independent basis, Debye):
    X=             -4.3219    Y=             -2.9776    Z=             -2.3885  Tot=              5.7662
 Quadrupole moment (field-independent basis, Debye-Ang):
   XX=           -117.9203   YY=           -101.4366   ZZ=            -98.8541
   XY=             -5.1919   XZ=             -3.9337   YZ=             -5.2767

 Summary of Natural Population Analysis:

                                       Natural Population
                Natural  -----------------------------------------------
    Atom  No    Charge         Core      Valence    Rydberg      Total
 -----------------------------------------------------------------------
      C    1   -0.11832      0.99957     2.10866    0.01009     3.11832
      C    2   -0.10950      0.99957     2.10046    0.00947     3.10950
      C    3   -0.09257      0.99959     2.07803    0.01494     3.09257
      C    4    0.05004      0.99947     1.93970    0.01079     2.94996
      C    5   -0.05920      0.99955     2.04568    0.01397     3.05920
      C    6   -0.08229      0.99954     2.07415    0.00861     3.08229
      C    7   -0.05880      0.99954     2.05076    0.00851     3.05880
      C    8   -0.11089      0.99957     2.10204    0.00928     3.11089
      C    9   -0.06464      0.99953     2.05674    0.00838     3.06464
      C   10   -0.04814      0.99950     2.02801    0.02063     3.04814
      C   11    0.27083      0.99961     1.70776    0.02180     2.72917
      O   12   -0.23056      0.99988     3.22438    0.00630     4.23056
      C   13   -0.04046      0.99963     2.02198    0.01886     3.04046
      N   14    0.01196      0.99962     2.47232    0.01609     3.48804
      O   15   -0.28513      0.99989     3.27724    0.00800     4.28513
      H   16    0.09163      0.00000     0.40731    0.00106     0.40837
      H   17    0.09343      0.00000     0.40587    0.00070     0.40657
      H   18    0.10557      0.00000     0.39282    0.00161     0.39443
      H   19    0.09069      0.00000     0.40783    0.00148     0.40931
      H   20    0.08720      0.00000     0.41128    0.00152     0.41280
      H   21    0.09142      0.00000     0.40754    0.00104     0.40858
      H   22    0.10163      0.00000     0.39694    0.00142     0.39837
      H   23    0.08226      0.00000     0.41526    0.00248     0.41774
      H   24    0.22663      0.00000     0.27083    0.00253     0.27337
 =======================================================================
   * Total *    0.00278     14.99406    36.80359    0.19957    51.99722

 Normal termination of Gaussian 16 at Thu Dec 10 16:17:22 2020.
