 Gaussian 16, Revision A.03,

 -----------------------------------------------------------
 # opt freq B3LYP/6-31G(d) empiricaldispersion=gd3bj scf=xqc
 -----------------------------------------------------------

 -------------------------------
 CID_86178108_JID_10719_neutraal
 -------------------------------
 Symbolic Z-matrix:
 Charge =  0 Multiplicity = 1

 SCF Done:  E(RB3LYP) =  -826.155742854     A.U. after   15 cycles
 SCF Done:  E(RB3LYP) =  -826.162727244     A.U. after   13 cycles
 SCF Done:  E(RB3LYP) =  -826.163576934     A.U. after   12 cycles
 SCF Done:  E(RB3LYP) =  -826.163937172     A.U. after   12 cycles
 SCF Done:  E(RB3LYP) =  -826.164067916     A.U. after   12 cycles
 SCF Done:  E(RB3LYP) =  -826.164140866     A.U. after   11 cycles
 SCF Done:  E(RB3LYP) =  -826.164183497     A.U. after   12 cycles
 SCF Done:  E(RB3LYP) =  -826.164202421     A.U. after   11 cycles
 SCF Done:  E(RB3LYP) =  -826.164257360     A.U. after   12 cycles
 SCF Done:  E(RB3LYP) =  -826.164116054     A.U. after   15 cycles
 SCF Done:  E(RB3LYP) =  -826.164598535     A.U. after    9 cycles
 SCF Done:  E(RB3LYP) =  -826.164601439     A.U. after   11 cycles
 SCF Done:  E(RB3LYP) =  -826.164604277     A.U. after   10 cycles
 SCF Done:  E(RB3LYP) =  -826.164605046     A.U. after    8 cycles
 SCF Done:  E(RB3LYP) =  -826.164605367     A.U. after    9 cycles
 SCF Done:  E(RB3LYP) =  -826.164605401     A.U. after    7 cycles
 Optimization completed.
    -- Stationary point found.
 Normal termination of Gaussian 16 at Sat Dec 12 16:31:02 2020.

 --------------------------------------------------------------------
 #N Geom=AllCheck Guess=TCheck SCRF=Check GenChk RB3LYP/6-31G(d) Freq
 --------------------------------------------------------------------

 Structure from the checkpoint file:  "JID_10719.chk"
 -------------------------------
 CID_86178108_JID_10719_neutraal
 -------------------------------
 Charge =  0 Multiplicity = 1

 SCF Done:  E(RB3LYP) =  -826.164605401     A.U. after    1 cycles

  Exact polarizability: 352.127  23.373 171.985  10.337 -16.252 105.687
 Approx polarizability: 473.596  45.005 290.769  18.213 -41.272 172.877

                      1                      2                      3
                      A                      A                      A
 Frequencies --     14.5306                25.6017                46.3307
 Red. masses --      4.0755                 3.1192                 5.9363
 Frc consts  --      0.0005                 0.0012                 0.0075
 IR Inten    --      0.1178                 0.0501                 1.2863

                      4                      5                      6
                      A                      A                      A
 Frequencies --     49.4603                70.3867                97.3334
 Red. masses --      4.2358                 4.5062                 4.6407
 Frc consts  --      0.0061                 0.0132                 0.0259
 IR Inten    --      1.1462                 0.9477                 1.2309

                      7                      8                      9
                      A                      A                      A
 Frequencies --    121.0801               151.7643               162.5702
 Red. masses --      5.4569                 2.7031                 5.8226
 Frc consts  --      0.0471                 0.0367                 0.0907
 IR Inten    --      2.6862                 0.3917                 3.4945

                     10                     11                     12
                      A                      A                      A
 Frequencies --    195.4356               218.2609               248.2734
 Red. masses --      4.0751                 5.0795                 7.5277
 Frc consts  --      0.0917                 0.1426                 0.2734
 IR Inten    --      0.7801                 1.1570                 3.0947

                     13                     14                     15
                      A                      A                      A
 Frequencies --    281.2344               320.6258               364.7131
 Red. masses --      2.7217                 5.2636                 5.6571
 Frc consts  --      0.1268                 0.3188                 0.4434
 IR Inten    --      1.0471                 1.2123                 2.1104

                     16                     17                     18
                      A                      A                      A
 Frequencies --    400.0404               414.6999               422.6709
 Red. masses --      2.3511                 3.0719                 3.2068
 Frc consts  --      0.2217                 0.3113                 0.3375
 IR Inten    --      0.4477                 0.0283                 1.2144

                     19                     20                     21
                      A                      A                      A
 Frequencies --    428.1392               487.5931               497.3114
 Red. masses --      3.2859                 5.4016                 7.3789
 Frc consts  --      0.3549                 0.7566                 1.0752
 IR Inten    --      0.4975                 1.2752                 6.2725

                     22                     23                     24
                      A                      A                      A
 Frequencies --    536.6267               553.8707               565.6689
 Red. masses --      3.3283                 3.5798                 5.8155
 Frc consts  --      0.5647                 0.6470                 1.0964
 IR Inten    --      7.5789                16.6701                 1.6018

                     25                     26                     27
                      A                      A                      A
 Frequencies --    583.5574               643.1762               644.1014
 Red. masses --      2.7475                 3.0850                 3.0814
 Frc consts  --      0.5513                 0.7519                 0.7532
 IR Inten    --      8.1692                 4.8963                 4.4938

                     28                     29                     30
                      A                      A                      A
 Frequencies --    654.3496               665.7138               725.3911
 Red. masses --      6.2289                 7.0708                 4.3394
 Frc consts  --      1.5714                 1.8463                 1.3453
 IR Inten    --      3.3767                 1.3419                 1.3925

                     31                     32                     33
                      A                      A                      A
 Frequencies --    750.7632               772.1267               792.1416
 Red. masses --      4.1407                 1.6104                 4.5652
 Frc consts  --      1.3751                 0.5657                 1.6878
 IR Inten    --      0.9805                 0.7284                 2.3825

                     34                     35                     36
                      A                      A                      A
 Frequencies --    805.5563               825.0974               835.6856
 Red. masses --      1.3249                 1.3250                 4.9832
 Frc consts  --      0.5065                 0.5314                 2.0504
 IR Inten    --      1.1742                21.5523                 0.8785

                     37                     38                     39
                      A                      A                      A
 Frequencies --    841.9747               854.9211               867.7294
 Red. masses --      1.4946                 1.2651                 1.7183
 Frc consts  --      0.6243                 0.5448                 0.7623
 IR Inten    --     64.9135                 0.0980                 8.4191

                     40                     41                     42
                      A                      A                      A
 Frequencies --    902.2790               921.5021               941.5682
 Red. masses --      1.9827                 1.8704                 2.2774
 Frc consts  --      0.9510                 0.9358                 1.1896
 IR Inten    --      5.7578                 0.3104                 1.0671

                     43                     44                     45
                      A                      A                      A
 Frequencies --    951.1618               964.3120               972.8841
 Red. masses --      1.3185                 1.2899                 1.3336
 Frc consts  --      0.7028                 0.7067                 0.7437
 IR Inten    --      1.8476                 0.8688                 0.1351

                     46                     47                     48
                      A                      A                      A
 Frequencies --    978.9367               981.3393               990.7966
 Red. masses --      1.2978                 1.5414                 1.5491
 Frc consts  --      0.7327                 0.8746                 0.8960
 IR Inten    --      0.0515                 0.7929                 3.1821

                     49                     50                     51
                      A                      A                      A
 Frequencies --   1022.3848              1038.5994              1046.9881
 Red. masses --      4.9582                 3.4102                 4.2480
 Frc consts  --      3.0535                 2.1673                 2.7436
 IR Inten    --      4.9712                18.7004                58.8863

                     52                     53                     54
                      A                      A                      A
 Frequencies --   1062.0954              1089.6292              1132.6915
 Red. masses --      2.5426                 2.3653                 2.4453
 Frc consts  --      1.6899                 1.6546                 1.8484
 IR Inten    --     16.7746                25.9594                 1.9401

                     55                     56                     57
                      A                      A                      A
 Frequencies --   1150.6748              1151.8217              1186.1480
 Red. masses --      1.3260                 1.3905                 2.1357
 Frc consts  --      1.0344                 1.0869                 1.7704
 IR Inten    --      1.2608                10.3434                 9.5313

                     58                     59                     60
                      A                      A                      A
 Frequencies --   1213.3324              1215.2476              1215.6274
 Red. masses --      1.1726                 1.3618                 1.4047
 Frc consts  --      1.0171                 1.1850                 1.2230
 IR Inten    --     43.8486                 7.8489                71.7934

                     61                     62                     63
                      A                      A                      A
 Frequencies --   1243.8486              1252.2424              1271.0300
 Red. masses --      2.4003                 1.3487                 1.3501
 Frc consts  --      2.1880                 1.2461                 1.2850
 IR Inten    --      5.8536                15.2620                 2.4658

                     64                     65                     66
                      A                      A                      A
 Frequencies --   1278.3432              1287.8692              1290.0800
 Red. masses --      1.1638                 1.6041                 1.5325
 Frc consts  --      1.1206                 1.5676                 1.5028
 IR Inten    --      9.0109                86.4898                78.4181

                     67                     68                     69
                      A                      A                      A
 Frequencies --   1302.7124              1317.4199              1324.1053
 Red. masses --      1.8061                 2.4023                 1.6422
 Frc consts  --      1.8058                 2.4566                 1.6964
 IR Inten    --    122.0477                 1.4332                36.6110

                     70                     71                     72
                      A                      A                      A
 Frequencies --   1327.6811              1341.1772              1350.9371
 Red. masses --      3.5170                 1.7215                 1.6373
 Frc consts  --      3.6527                 1.8245                 1.7606
 IR Inten    --     76.6363                32.0512                 4.6811

                     73                     74                     75
                      A                      A                      A
 Frequencies --   1359.6337              1395.5794              1430.1660
 Red. masses --      2.8933                 1.4529                 1.4348
 Frc consts  --      3.1512                 1.6673                 1.7290
 IR Inten    --     41.7982                27.8200                10.9945

                     76                     77                     78
                      A                      A                      A
 Frequencies --   1452.3420              1474.3728              1506.8914
 Red. masses --      3.0145                 3.2108                 1.0912
 Frc consts  --      3.7464                 4.1123                 1.4599
 IR Inten    --      5.8601                 3.2126                 0.6065

                     79                     80                     81
                      A                      A                      A
 Frequencies --   1516.4382              1534.3809              1543.0779
 Red. masses --      1.0846                 1.1024                 1.1446
 Frc consts  --      1.4696                 1.5292                 1.6057
 IR Inten    --      2.6171                 2.2642                10.4249

                     82                     83                     84
                      A                      A                      A
 Frequencies --   1548.3025              1574.8922              1600.2618
 Red. masses --      2.2488                 2.7990                 5.9931
 Frc consts  --      3.1763                 4.0904                 9.0424
 IR Inten    --    153.5166                44.5545                 2.4668

                     85                     86                     87
                      A                      A                      A
 Frequencies --   1629.3633              1663.0864              1676.6329
 Red. masses --      6.8470                 5.5659                 5.8662
 Frc consts  --     10.7099                 9.0702                 9.7160
 IR Inten    --     14.9407               230.8774                36.3722

                     88                     89                     90
                      A                      A                      A
 Frequencies --   2347.1059              3043.1969              3056.0360
 Red. masses --     12.6790                 1.0650                 1.0643
 Frc consts  --     41.1529                 5.8112                 5.8563
 IR Inten    --     76.8239                27.1144                37.4032

                     91                     92                     93
                      A                      A                      A
 Frequencies --   3065.5995              3073.4877              3075.5552
 Red. masses --      1.0745                 1.0671                 1.0611
 Frc consts  --      5.9496                 5.9390                 5.9138
 IR Inten    --     40.8506                30.0253                35.9441

                     94                     95                     96
                      A                      A                      A
 Frequencies --   3104.5535              3114.0107              3123.6194
 Red. masses --      1.1014                 1.1038                 1.1061
 Frc consts  --      6.2545                 6.3065                 6.3584
 IR Inten    --     30.9567                34.1149                22.6461

                     97                     98                     99
                      A                      A                      A
 Frequencies --   3136.1132              3196.2243              3196.7804
 Red. masses --      1.1073                 1.0892                 1.0881
 Frc consts  --      6.4162                 6.5562                 6.5518
 IR Inten    --     59.2983                 9.9191                13.5232

                    100                    101                    102
                      A                      A                      A
 Frequencies --   3205.3636              3206.1450              3219.8564
 Red. masses --      1.0878                 1.0874                 1.0939
 Frc consts  --      6.5847                 6.5860                 6.6819
 IR Inten    --      4.0764                 2.4818                 5.9998

                    103                    104                    105
                      A                      A                      A
 Frequencies --   3221.3643              3223.1298              3245.7175
 Red. masses --      1.0944                 1.0953                 1.0906
 Frc consts  --      6.6910                 6.7044                 6.7691
 IR Inten    --     15.2224                 1.2035                16.5023

 - Thermochemistry -
 -------------------
 Temperature   298.150 Kelvin.  Pressure   1.00000 Atm.
 Atom     1 has atomic number  6 and mass  12.00000

 Molecular mass:   263.13101 amu.
 Principal axes and moments of inertia in atomic units:
                           1         2         3
     Eigenvalues --  1696.02578********************
           X            0.99994  -0.01095   0.00007
           Y            0.01095   0.99990  -0.00879
           Z            0.00002   0.00879   0.99996
 This molecule is an asymmetric top.
 Rotational symmetry number  1.
 Warning -- assumption of classical behavior for rotation
           may cause significant error
 Rotational temperatures (Kelvin)      0.05107     0.00553     0.00511
 Rotational constants (GHZ):           1.06410     0.11518     0.10641
 Zero-point vibrational energy     803969.8 (Joules/Mol)
                                  192.15339 (Kcal/Mol)
 Warning -- explicit consideration of  25 degrees of freedom as
           vibrations may cause significant error
 Vibrational temperatures:     20.91    36.84    66.66    71.16   101.27
          (Kelvin)            140.04   174.21   218.35   233.90   281.19
                              314.03   357.21   404.63   461.31   524.74
                              575.57   596.66   608.13   616.00   701.54
                              715.52   772.09   796.90   813.87   839.61
                              925.39   926.72   941.46   957.81  1043.68
                             1080.18  1110.92  1139.72  1159.02  1187.13
                             1202.37  1211.41  1230.04  1248.47  1298.18
                             1325.84  1354.71  1368.51  1387.43  1399.76
                             1408.47  1411.93  1425.54  1470.98  1494.31
                             1506.38  1528.12  1567.73  1629.69  1655.56
                             1657.21  1706.60  1745.71  1748.47  1749.02
                             1789.62  1801.70  1828.73  1839.25  1852.96
                             1856.14  1874.31  1895.47  1905.09  1910.24
                             1929.65  1943.70  1956.21  2007.93  2057.69
                             2089.60  2121.29  2168.08  2181.82  2207.63
                             2220.14  2227.66  2265.92  2302.42  2344.29
                             2392.81  2412.30  3376.96  4378.48  4396.95
                             4410.71  4422.06  4425.04  4466.76  4480.37
                             4494.19  4512.17  4598.65  4599.45  4611.80
                             4612.93  4632.66  4634.82  4637.36  4669.86

 Zero-point correction=                           0.306216 (Hartree/Particle)
 Thermal correction to Energy=                    0.323347
 Thermal correction to Enthalpy=                  0.324292
 Thermal correction to Gibbs Free Energy=         0.258333
 Sum of electronic and zero-point Energies=           -825.858389
 Sum of electronic and thermal Energies=              -825.841258
 Sum of electronic and thermal Enthalpies=            -825.840314
 Sum of electronic and thermal Free Energies=         -825.906273

                     E (Thermal)             CV                S
                      KCal/Mol        Cal/Mol-Kelvin    Cal/Mol-Kelvin
 Total                  202.904             66.583            138.822
 Electronic               0.000              0.000              0.000
 Translational            0.889              2.981             42.602
 Rotational               0.889              2.981             34.465
 Vibrational            201.126             60.621             61.755
 Vibration     1          0.593              1.986              7.269
 Vibration     2          0.593              1.985              6.144
 Vibration     3          0.595              1.979              4.968
 Vibration     4          0.595              1.978              4.839
 Vibration     5          0.598              1.968              4.143
 Vibration     6          0.603              1.951              3.507
 Vibration     7          0.609              1.932              3.083
 Vibration     8          0.619              1.901              2.650
 Vibration     9          0.623              1.888              2.520
 Vibration    10          0.636              1.846              2.176
 Vibration    11          0.646              1.813              1.973
 Vibration    12          0.662              1.766              1.743
 Vibration    13          0.681              1.708              1.526
 Vibration    14          0.706              1.634              1.307
 Vibration    15          0.738              1.545              1.102
 Vibration    16          0.766              1.470              0.963
 Vibration    17          0.778              1.438              0.910
 Vibration    18          0.785              1.421              0.883
 Vibration    19          0.790              1.409              0.865
 Vibration    20          0.844              1.278              0.690
 Vibration    21          0.853              1.256              0.665
 Vibration    22          0.892              1.169              0.573
 Vibration    23          0.909              1.131              0.536
 Vibration    24          0.922              1.106              0.513
 Vibration    25          0.940              1.067              0.479

 Optimization completed.
    -- Stationary point found.
 Normal termination of Gaussian 16 at Sat Dec 12 16:48:28 2020.

 ----------------------------------------------------------------------
 # B3LYP/6-311++G(d,p) empiricaldispersion=gd3bj scf=xqc pop=npa geom=c
 heck
 ----------------------------------------------------------------------

 ---------------------------------------
 CID_86178108_JID_10719_Energie_neutraal
 ---------------------------------------
 Structure from the checkpoint file:  "JID_10719.chk"
 Charge =  0 Multiplicity = 1

 SCF Done:  E(RB3LYP) =  -826.375988202     A.U. after   15 cycles
 Normal termination of Gaussian 16 at Sat Dec 12 16:56:40 2020.

 ----------------------------------------------------------------------
 # B3LYP/6-311++G(d,p) empiricaldispersion=gd3bj scf=xqc pop=npa geom=c
 heck
 ----------------------------------------------------------------------

 -------------------------------------
 CID_86178108_JID_10719_Energie_kation
 -------------------------------------
 Structure from the checkpoint file:  "JID_10719.chk"
 Charge =  1 Multiplicity = 2

 SCF Done:  E(UB3LYP) =  -826.093445971     A.U. after   22 cycles
 Normal termination of Gaussian 16 at Sat Dec 12 17:13:42 2020.
 Gaussian 16:  ES64L-G16RevA.03 25-Dec-2016

 ----------------------------------------------------------------------
 # B3LYP/6-311++G(d,p) empiricaldispersion=gd3bj scf=xqc pop=npa geom=c
 heck
 ----------------------------------------------------------------------

 ------------------------------------
 CID_86178108_JID_10719_Energie_anion
 ------------------------------------
 Structure from the checkpoint file:  "JID_10719.chk"
 Charge = -1 Multiplicity = 2

                         Standard orientation:
 ---------------------------------------------------------------------
 Center     Atomic      Atomic             Coordinates (Angstroms)
 Number     Number       Type             X           Y           Z
 ---------------------------------------------------------------------
      1          6           0       -5.398729    2.228159    0.568059
      2          6           0       -6.017870    0.938657   -0.031780
      3          6           0       -4.692949    0.202184    0.307146
      4          6           0       -3.999362    1.592653    0.368137
      5          6           0       -4.235839   -0.889775   -0.644964
      6          8           0       -3.180123   -1.695667   -0.109750
      7          6           0       -1.891574   -1.258612   -0.132865
      8          6           0       -1.420574   -0.154989   -0.853563
      9          6           0       -0.067292    0.172411   -0.812725
     10          6           0        0.852253   -0.578602   -0.068106
     11          6           0        0.360491   -1.687922    0.643849
     12          6           0       -0.984164   -2.023067    0.616148
     13          6           0        2.284208   -0.218967   -0.031955
     14          6           0        2.694526    1.125879   -0.066343
     15          6           0        4.038936    1.470206   -0.037113
     16          6           0        5.019093    0.466997    0.034677
     17          6           0        4.625848   -0.880629    0.073385
     18          6           0        3.278185   -1.211581    0.037535
     19          6           0        6.406582    0.815244    0.068453
     20          7           0        7.534766    1.098773    0.095805
     21          1           0       -5.646678    2.334126    1.629108
     22          1           0       -5.605687    3.175983    0.062909
     23          1           0       -6.942687    0.549752    0.405025
     24          1           0       -6.153905    1.030388   -1.116415
     25          1           0       -4.753561   -0.228971    1.313338
     26          1           0       -3.583073    1.871322   -0.605931
     27          1           0       -3.233836    1.751074    1.132458
     28          1           0       -5.053744   -1.600105   -0.801530
     29          1           0       -3.961819   -0.483271   -1.627316
     30          1           0       -2.090895    0.446704   -1.452791
     31          1           0        0.282239    1.016601   -1.399681
     32          1           0        1.038747   -2.276764    1.254109
     33          1           0       -1.364104   -2.870808    1.176711
     34          1           0        1.945514    1.910880   -0.089115
     35          1           0        4.340526    2.512242   -0.056851
     36          1           0        5.381923   -1.657413    0.119320
     37          1           0        2.988056   -2.257297    0.036150
 ---------------------------------------------------------------------

 SCF Done:  E(UB3LYP) =  -826.391504751     A.U. after   27 cycles

 The electronic state is 2-A.
 Alpha  occ. eigenvalues --  -19.05263 -14.16346 -10.14483 -10.11772 -10.10374
 Alpha  occ. eigenvalues --  -10.10261 -10.10034 -10.09404 -10.06593 -10.06508
 Alpha  occ. eigenvalues --  -10.06101 -10.05957 -10.05783 -10.05620 -10.05538
 Alpha  occ. eigenvalues --  -10.05025 -10.05002 -10.04432 -10.04409 -10.04102
 Alpha  occ. eigenvalues --   -0.96963  -0.78120  -0.76773  -0.74956  -0.72790
 Alpha  occ. eigenvalues --   -0.67499  -0.64911  -0.63880  -0.62297  -0.60431
 Alpha  occ. eigenvalues --   -0.59072  -0.55728  -0.51569  -0.50874  -0.48472
 Alpha  occ. eigenvalues --   -0.47720  -0.47120  -0.44024  -0.42000  -0.41404
 Alpha  occ. eigenvalues --   -0.40082  -0.38881  -0.38264  -0.34987  -0.33769
 Alpha  occ. eigenvalues --   -0.32781  -0.32512  -0.32111  -0.31748  -0.31151
 Alpha  occ. eigenvalues --   -0.30054  -0.29839  -0.28512  -0.27877  -0.26669
 Alpha  occ. eigenvalues --   -0.26262  -0.25327  -0.24906  -0.23868  -0.23687
 Alpha  occ. eigenvalues --   -0.23160  -0.22372  -0.22282  -0.21550  -0.20480
 Alpha  occ. eigenvalues --   -0.19368  -0.15022  -0.14425  -0.13714  -0.09895
 Alpha  occ. eigenvalues --    0.03350
 Alpha virt. eigenvalues --    0.04743   0.06294   0.06465   0.07611   0.08751
 Alpha virt. eigenvalues --    0.08989   0.09151   0.09410   0.09752   0.10137
 Alpha virt. eigenvalues --    0.10564   0.10745   0.10854   0.11565   0.12345

  Beta  occ. eigenvalues --  -19.05216 -14.16093 -10.14483 -10.11566 -10.10371
  Beta  occ. eigenvalues --  -10.10254 -10.10028 -10.09402 -10.06607 -10.06570
  Beta  occ. eigenvalues --  -10.06149 -10.05872 -10.05649 -10.05511 -10.05335
  Beta  occ. eigenvalues --  -10.04951 -10.04924 -10.04427 -10.04400 -10.03753
  Beta  occ. eigenvalues --   -0.96837  -0.78109  -0.76387  -0.74712  -0.72465
  Beta  occ. eigenvalues --   -0.67262  -0.64606  -0.63712  -0.62020  -0.60145
  Beta  occ. eigenvalues --   -0.59057  -0.55639  -0.51170  -0.50637  -0.48432
  Beta  occ. eigenvalues --   -0.47627  -0.46890  -0.43949  -0.41835  -0.41363
  Beta  occ. eigenvalues --   -0.40033  -0.38810  -0.38067  -0.34882  -0.33633
  Beta  occ. eigenvalues --   -0.32590  -0.32339  -0.32071  -0.31681  -0.31072
  Beta  occ. eigenvalues --   -0.29926  -0.29706  -0.28350  -0.27831  -0.26201
  Beta  occ. eigenvalues --   -0.25702  -0.25080  -0.24728  -0.23843  -0.23382
  Beta  occ. eigenvalues --   -0.22951  -0.22005  -0.21932  -0.21331  -0.19744
  Beta  occ. eigenvalues --   -0.19229  -0.14661  -0.13207  -0.12903  -0.08812
  Beta virt. eigenvalues --    0.04786   0.06269   0.06375   0.07511   0.08181
  Beta virt. eigenvalues --    0.08710   0.08920   0.09216   0.09381   0.09727
  Beta virt. eigenvalues --    0.10106   0.10491   0.10705   0.11029   0.12179

 Mulliken charges and spin densities:
               1          2
     1  C   -0.213963  -0.122324
     2  C   -0.308118  -0.181077
     3  C    0.446914   0.170810
     4  C   -0.415155  -0.040382
     5  C   -0.552195  -0.122209
     6  O   -0.065783   0.009042
     7  C   -0.571868   0.109808
     8  C    0.362538  -0.023029
     9  C   -0.395856   0.104562
    10  C    0.964002  -0.036128
    11  C   -0.496099   0.082883
    12  C   -0.494064  -0.024726
    13  C    1.245295   0.184022
    14  C   -0.493221   0.022892
    15  C   -0.766508   0.098926
    16  C    2.094869   0.190994
    17  C   -0.587004   0.096673
    18  C   -0.565584   0.033414
    19  C   -1.788661  -0.080575
    20  N   -0.302239   0.135678
    21  H    0.111815   0.023244
    22  H    0.014339   0.121568
    23  H    0.050662   0.082904
    24  H    0.060863   0.070737
    25  H    0.186326   0.016983
    26  H    0.115872   0.005725
    27  H    0.140941   0.019714
    28  H    0.138643   0.005830
    29  H    0.139841   0.016296
    30  H    0.072752   0.026780
    31  H    0.130014  -0.012296
    32  H    0.115336   0.004247
    33  H    0.157323   0.002514
    34  H    0.080226   0.013207
    35  H    0.152322  -0.004217
    36  H    0.145311  -0.004455
    37  H    0.090113   0.001967
 Sum of Mulliken charges =  -1.00000   1.00000

 Dipole moment (field-independent basis, Debye):
    X=            -15.3428    Y=             -1.0155    Z=             -0.3063  Tot=             15.3794
 Quadrupole moment (field-independent basis, Debye-Ang):
   XX=           -273.5824   YY=           -133.3955   ZZ=           -129.0295
   XY=            -16.4217   XZ=             -0.1787   YZ=             -2.4975

 Summary of Natural Population Analysis:

                                       Natural Population
                Natural  -----------------------------------------------
    Atom  No    Charge         Core      Valence    Rydberg      Total
 -----------------------------------------------------------------------
      C    1   -0.19033      0.99966     2.18337    0.00731     3.19033
      C    2   -0.18722      0.99964     2.18041    0.00717     3.18722
      C    3   -0.12258      0.99960     2.11301    0.00997     3.12258
      C    4   -0.18548      0.99963     2.17822    0.00762     3.18548
      C    5   -0.00730      0.99952     1.99612    0.01166     3.00730
      O    6   -0.27679      0.99986     3.26788    0.00905     4.27679
      C    7    0.18494      0.99938     1.80287    0.01281     2.81506
      C    8   -0.16151      0.99953     2.15489    0.00710     3.16151
      C    9   -0.05771      0.99954     2.05015    0.00801     3.05771
      C   10   -0.03555      0.99950     2.02519    0.01086     3.03555
      C   11   -0.06828      0.99954     2.06104    0.00770     3.06828
      C   12   -0.13799      0.99954     2.12953    0.00892     3.13799
      C   13    0.03820      0.99949     1.95193    0.01038     2.96180
      C   14   -0.10185      0.99954     2.09395    0.00836     3.10185
      C   15   -0.08701      0.99960     2.06949    0.01792     3.08701
      C   16   -0.01642      0.99945     2.00075    0.01622     3.01642
      C   17   -0.08612      0.99960     2.06855    0.01796     3.08612
      C   18   -0.10251      0.99954     2.09463    0.00834     3.10251
      C   19    0.19564      0.99974     1.78988    0.01475     2.80436
      N   20   -0.19289      0.99981     2.67691    0.01618     3.69289
      H   21    0.09426      0.00000     0.40436    0.00139     0.40574
      H   22    0.09417      0.00000     0.40437    0.00146     0.40583
      H   23    0.09520      0.00000     0.40352    0.00128     0.40480
      H   24    0.09360      0.00000     0.40472    0.00168     0.40640
      H   25    0.10098      0.00000     0.39775    0.00127     0.39902
      H   26    0.09578      0.00000     0.40268    0.00153     0.40422
      H   27    0.10390      0.00000     0.39510    0.00100     0.39610
      H   28    0.09005      0.00000     0.40864    0.00131     0.40995
      H   29    0.08281      0.00000     0.41561    0.00158     0.41719
      H   30    0.09526      0.00000     0.40242    0.00231     0.40474
      H   31    0.09661      0.00000     0.40214    0.00126     0.40339
      H   32    0.09771      0.00000     0.40105    0.00124     0.40229
      H   33    0.09934      0.00000     0.39929    0.00138     0.40066
      H   34    0.09498      0.00000     0.40362    0.00140     0.40502
      H   35    0.09541      0.00000     0.40291    0.00168     0.40459
      H   36    0.09532      0.00000     0.40300    0.00169     0.40468
      H   37    0.09480      0.00000     0.40383    0.00137     0.40520
 =======================================================================
   * Total *    0.02139     19.99169    49.74377    0.24315    69.97861

 Normal termination of Gaussian 16 at Sat Dec 12 17:34:25 2020.
