 Gaussian 16, Revision A.03,

 -----------------------------------------------------------
 # opt freq B3LYP/6-31G(d) empiricaldispersion=gd3bj scf=xqc
 -----------------------------------------------------------

 -------------------------------
 CID_130864810_JID_1569_neutraal
 -------------------------------
 Symbolic Z-matrix:
 Charge =  0 Multiplicity = 1

 SCF Done:  E(RB3LYP) =  -462.086756925     A.U. after   13 cycles
 SCF Done:  E(RB3LYP) =  -462.092295215     A.U. after   12 cycles
 SCF Done:  E(RB3LYP) =  -462.092936532     A.U. after   11 cycles
 SCF Done:  E(RB3LYP) =  -462.093064308     A.U. after   11 cycles
 SCF Done:  E(RB3LYP) =  -462.093085502     A.U. after    9 cycles
 SCF Done:  E(RB3LYP) =  -462.093098182     A.U. after   10 cycles
 SCF Done:  E(RB3LYP) =  -462.093104925     A.U. after    9 cycles
 SCF Done:  E(RB3LYP) =  -462.093105459     A.U. after    8 cycles
 SCF Done:  E(RB3LYP) =  -462.093105482     A.U. after    8 cycles
 Optimization completed.
    -- Stationary point found.

 1\1\GINC-NODE212\FOpt\RB3LYP\6-31G(d)\C9H16N2\VSC10255\08-Dec-2020\0\\
 # opt freq B3LYP/6-31G(d) empiricaldispersion=gd3bj scf=xqc\\CID_13086
 4810_JID_1569_neutraal\\0,1\C,0.8595630114,-0.0911802436,-0.0757045789
 \N,0.4149660578,0.2808758593,-1.4086570686\C,-0.8694416909,-0.33633477
 61,-1.7662520023\C,-0.7092298008,-1.7551924414,-2.270099597\C,-1.17562
 22402,-2.8199333148,-1.6079338277\N,0.098951394,-1.9116178484,-3.43834
 97567\C,1.4870427091,-2.2924242721,-3.1308511858\C,2.2862880273,-1.130
 1384804,-2.4803834059\C,1.4735713088,0.1940486732,-2.4318799454\C,0.89

 Normal termination of Gaussian 16 at Tue Dec  8 20:33:21 2020.

 --------------------------------------------------------------------
 #N Geom=AllCheck Guess=TCheck SCRF=Check GenChk RB3LYP/6-31G(d) Freq
 --------------------------------------------------------------------

 Structure from the checkpoint file:  "JID_1569.chk"
 -------------------------------
 CID_130864810_JID_1569_neutraal
 -------------------------------
 Charge =  0 Multiplicity = 1

 SCF Done:  E(RB3LYP) =  -462.093105482     A.U. after    1 cycles

  Exact polarizability: 110.721   9.501 102.612   0.328   3.572  89.477
 Approx polarizability: 157.747  17.031 146.363   2.539   8.855 133.838

                      1                      2                      3
                      A                      A                      A
 Frequencies --     69.4427               122.6012               234.2798
 Red. masses --      2.5370                 2.8693                 1.8519
 Frc consts  --      0.0072                 0.0254                 0.0599
 IR Inten    --      0.1922                 0.9475                 1.3486

                      4                      5                      6
                      A                      A                      A
 Frequencies --    265.6917               280.0274               301.1182
 Red. masses --      1.4226                 1.7679                 2.2688
 Frc consts  --      0.0592                 0.0817                 0.1212
 IR Inten    --      0.2949                 0.0401                 0.4668

                      7                      8                      9
                      A                      A                      A
 Frequencies --    367.7602               378.5460               399.5928
 Red. masses --      2.8280                 2.4120                 2.9406
 Frc consts  --      0.2253                 0.2036                 0.2766
 IR Inten    --      0.3360                 1.5853                 7.8754

                     10                     11                     12
                      A                      A                      A
 Frequencies --    423.7109               447.7883               470.5659
 Red. masses --      2.8618                 3.2673                 2.0789
 Frc consts  --      0.3027                 0.3860                 0.2712
 IR Inten    --      2.5449                 0.8402                 0.7274

                     13                     14                     15
                      A                      A                      A
 Frequencies --    554.0328               622.6056               664.4796
 Red. masses --      3.3238                 3.1236                 3.6911
 Frc consts  --      0.6011                 0.7134                 0.9602
 IR Inten    --      2.9472                 8.7130                 9.7831

                     16                     17                     18
                      A                      A                      A
 Frequencies --    738.2960               749.4985               771.5346
 Red. masses --      3.0731                 1.3411                 2.7653
 Frc consts  --      0.9869                 0.4439                 0.9699
 IR Inten    --     13.2541                 9.0905                 1.6878

                     19                     20                     21
                      A                      A                      A
 Frequencies --    798.5321               817.0298               859.5446
 Red. masses --      1.4127                 1.7565                 2.6139
 Frc consts  --      0.5308                 0.6908                 1.1378
 IR Inten    --      0.8840                 1.9417                 3.8160

                     22                     23                     24
                      A                      A                      A
 Frequencies --    882.5072               894.0343               928.0899
 Red. masses --      1.4616                 2.4198                 2.5280
 Frc consts  --      0.6707                 1.1396                 1.2829
 IR Inten    --     37.0689                 9.6687                 6.0059

                     25                     26                     27
                      A                      A                      A
 Frequencies --    947.8691               981.9811               992.1158
 Red. masses --      2.7085                 2.1252                 1.8879
 Frc consts  --      1.4338                 1.2074                 1.0949
 IR Inten    --      4.8928                13.4445                 6.0586

                     28                     29                     30
                      A                      A                      A
 Frequencies --   1009.4270              1042.2214              1066.1279
 Red. masses --      2.2497                 2.0701                 2.5377
 Frc consts  --      1.3506                 1.3248                 1.6995
 IR Inten    --      1.8743                30.5438                16.7875

                     31                     32                     33
                      A                      A                      A
 Frequencies --   1101.4111              1126.3321              1141.4653
 Red. masses --      2.1848                 2.1824                 1.9175
 Frc consts  --      1.5616                 1.6313                 1.4720
 IR Inten    --      3.7404                35.8901                 4.2232

                     34                     35                     36
                      A                      A                      A
 Frequencies --   1158.7997              1171.4371              1238.7758
 Red. masses --      1.7077                 1.4602                 1.6001
 Frc consts  --      1.3511                 1.1806                 1.4467
 IR Inten    --     23.0441                 2.5353                 8.3187

                     37                     38                     39
                      A                      A                      A
 Frequencies --   1242.6759              1278.9920              1286.8596
 Red. masses --      1.5605                 1.8703                 1.4523
 Frc consts  --      1.4198                 1.8026                 1.4170
 IR Inten    --      5.2533                29.2043                 8.9510

                     40                     41                     42
                      A                      A                      A
 Frequencies --   1306.7625              1319.0026              1345.3935
 Red. masses --      1.2156                 1.4309                 1.6229
 Frc consts  --      1.2230                 1.4667                 1.7308
 IR Inten    --      7.5156                14.4169                10.0785

                     43                     44                     45
                      A                      A                      A
 Frequencies --   1361.8516              1367.1194              1376.6064
 Red. masses --      1.4540                 1.3355                 1.2548
 Frc consts  --      1.5888                 1.4707                 1.4010
 IR Inten    --      6.2303                 1.9476                 3.5667

                     46                     47                     48
                      A                      A                      A
 Frequencies --   1395.4346              1398.6716              1403.7004
 Red. masses --      1.3618                 1.5912                 1.4093
 Frc consts  --      1.5623                 1.8340                 1.6361
 IR Inten    --     11.0201                27.5310                 4.2637

                     49                     50                     51
                      A                      A                      A
 Frequencies --   1419.7003              1458.8018              1482.6732
 Red. masses --      1.3304                 1.2081                 1.1711
 Frc consts  --      1.5799                 1.5148                 1.5168
 IR Inten    --     17.3772                 2.5091                 0.3226

                     52                     53                     54
                      A                      A                      A
 Frequencies --   1509.9239              1514.9160              1517.0818
 Red. masses --      1.0743                 1.0527                 1.0926
 Frc consts  --      1.4430                 1.4234                 1.4817
 IR Inten    --      0.8714                 8.1998                 6.1336

                     55                     56                     57
                      A                      A                      A
 Frequencies --   1520.3239              1527.1107              1543.0757
 Red. masses --      1.0771                 1.0854                 1.0811
 Frc consts  --      1.4668                 1.4913                 1.5167
 IR Inten    --      2.4164                16.6083                 4.5728

                     58                     59                     60
                      A                      A                      A
 Frequencies --   1553.2537              1726.6952              2966.3782
 Red. masses --      1.0606                 5.4031                 1.0576
 Frc consts  --      1.5076                 9.4914                 5.4832
 IR Inten    --      4.3401                64.8568                55.6684

                     61                     62                     63
                      A                      A                      A
 Frequencies --   3027.7580              3044.4026              3053.8000
 Red. masses --      1.0826                 1.0708                 1.0658
 Frc consts  --      5.8476                 5.8473                 5.8559
 IR Inten    --     19.5688                24.4256                33.4477

                     64                     65                     66
                      A                      A                      A
 Frequencies --   3055.3585              3058.0342              3067.7327
 Red. masses --      1.0652                 1.0676                 1.0664
 Frc consts  --      5.8588                 5.8824                 5.9131
 IR Inten    --     48.1515                55.3434                89.6344

                     67                     68                     69
                      A                      A                      A
 Frequencies --   3070.4018              3094.4201              3099.8359
 Red. masses --      1.0739                 1.1022                 1.0955
 Frc consts  --      5.9648                 6.2181                 6.2023
 IR Inten    --     39.8361                 7.3135                16.2560

                     70                     71                     72
                      A                      A                      A
 Frequencies --   3107.8105              3114.6255              3118.7820
 Red. masses --      1.0990                 1.1020                 1.1032
 Frc consts  --      6.2542                 6.2984                 6.3221
 IR Inten    --     19.7679                53.0539                33.2294

                     73                     74                     75
                      A                      A                      A
 Frequencies --   3133.6449              3171.0512              3253.8798
 Red. masses --      1.0981                 1.0594                 1.1169
 Frc consts  --      6.3532                 6.2764                 6.9675
 IR Inten    --     26.6131                 4.2644                12.7972

 - Thermochemistry -
 -------------------
 Temperature   298.150 Kelvin.  Pressure   1.00000 Atm.
 Atom     1 has atomic number  6 and mass  12.00000

 Molecular mass:   152.13135 amu.
 Principal axes and moments of inertia in atomic units:
                           1         2         3
     Eigenvalues --  1306.308741326.372391735.84331
           X            0.97967   0.19977   0.01862
           Y           -0.19964   0.97983  -0.00853
           Z           -0.01995   0.00464   0.99979
 This molecule is an asymmetric top.
 Rotational symmetry number  1.
 Warning -- assumption of classical behavior for rotation
           may cause significant error
 Rotational temperatures (Kelvin)      0.06630     0.06530     0.04990
 Rotational constants (GHZ):           1.38156     1.36066     1.03969
 Zero-point vibrational energy     647860.5 (Joules/Mol)
                                  154.84237 (Kcal/Mol)
 Warning -- explicit consideration of  13 degrees of freedom as
           vibrations may cause significant error
 Vibrational temperatures:     99.91   176.40   337.08   382.27   402.90
          (Kelvin)            433.24   529.12   544.64   574.92   609.63
                              644.27   677.04   797.13   895.79   956.04
                             1062.24  1078.36  1110.07  1148.91  1175.52
                             1236.69  1269.73  1286.32  1335.31  1363.77
                             1412.85  1427.43  1452.34  1499.52  1533.92
                             1584.68  1620.54  1642.31  1667.25  1685.44
                             1782.32  1787.93  1840.18  1851.50  1880.14
                             1897.75  1935.72  1959.40  1966.98  1980.63
                             2007.72  2012.38  2019.61  2042.63  2098.89
                             2133.24  2172.44  2179.63  2182.74  2187.41
                             2197.17  2220.14  2234.79  2484.33  4267.96
                             4356.27  4380.22  4393.74  4395.98  4399.83
                             4413.78  4417.62  4452.18  4459.97  4471.45
                             4481.25  4487.23  4508.62  4562.44  4681.61

 Zero-point correction=                           0.246757 (Hartree/Particle)
 Thermal correction to Energy=                    0.256322
 Thermal correction to Enthalpy=                  0.257267
 Thermal correction to Gibbs Free Energy=         0.212649
 Sum of electronic and zero-point Energies=           -461.846348
 Sum of electronic and thermal Energies=              -461.836783
 Sum of electronic and thermal Enthalpies=            -461.835839
 Sum of electronic and thermal Free Energies=         -461.880456

                     E (Thermal)             CV                S
                      KCal/Mol        Cal/Mol-Kelvin    Cal/Mol-Kelvin
 Total                  160.845             39.936             93.905
 Electronic               0.000              0.000              0.000
 Translational            0.889              2.981             40.969
 Rotational               0.889              2.981             29.488
 Vibrational            159.067             33.975             23.449
 Vibration     1          0.598              1.969              4.169
 Vibration     2          0.610              1.930              3.059
 Vibration     3          0.654              1.788              1.846
 Vibration     4          0.672              1.736              1.624
 Vibration     5          0.680              1.711              1.534
 Vibration     6          0.693              1.672              1.411
 Vibration     7          0.740              1.539              1.089
 Vibration     8          0.749              1.516              1.045
 Vibration     9          0.766              1.471              0.964
 Vibration    10          0.786              1.419              0.879
 Vibration    11          0.807              1.366              0.802
 Vibration    12          0.828              1.315              0.736
 Vibration    13          0.909              1.131              0.536

                           ! Non-Optimized Parameters !

 1\1\GINC-NODE212\Freq\RB3LYP\6-31G(d)\C9H16N2\VSC10255\08-Dec-2020\0\\
 #N Geom=AllCheck Guess=TCheck SCRF=Check GenChk RB3LYP/6-31G(d) Freq\\
 CID_130864810_JID_1569_neutraal\\0,1\C,0.8595630114,-0.0911802436,-0.0
 757045789\N,0.4149660578,0.2808758593,-1.4086570686\C,-0.8694416909,-0
 .3363347761,-1.7662520023\C,-0.7092298008,-1.7551924414,-2.270099597\C
 ,-1.1756222402,-2.8199333148,-1.6079338277\N,0.098951394,-1.9116178484
 ,-3.4383497567\C,1.4870427091,-2.2924242721,-3.1308511858\C,2.28628802
 73,-1.1301384804,-2.4803834059\C,1.4735713088,0.1940486732,-2.43187994

 Normal termination of Gaussian 16 at Tue Dec  8 20:43:39 2020.

 ----------------------------------------------------------------------
 # B3LYP/6-311++G(d,p) empiricaldispersion=gd3bj scf=xqc pop=npa geom=c
 heck
 ----------------------------------------------------------------------

 ---------------------------------------
 CID_130864810_JID_1569_Energie_neutraal
 ---------------------------------------
 Structure from the checkpoint file:  "JID_1569.chk"
 Charge =  0 Multiplicity = 1

 SCF Done:  E(RB3LYP) =  -462.216581725     A.U. after   14 cycles
 Normal termination of Gaussian 16 at Tue Dec  8 20:47:30 2020.

 ----------------------------------------------------------------------
 # B3LYP/6-311++G(d,p) empiricaldispersion=gd3bj scf=xqc pop=npa geom=c
 heck
 ----------------------------------------------------------------------

 -------------------------------------
 CID_130864810_JID_1569_Energie_kation
 -------------------------------------
 Structure from the checkpoint file:  "JID_1569.chk"
 Charge =  1 Multiplicity = 2

 SCF Done:  E(UB3LYP) =  -461.946496236     A.U. after   20 cycles
 Normal termination of Gaussian 16 at Tue Dec  8 20:54:57 2020.
 Gaussian 16:  ES64L-G16RevA.03 25-Dec-2016

 ------------------------------------
 CID_130864810_JID_1569_Energie_anion
 ------------------------------------
 Structure from the checkpoint file:  "JID_1569.chk"
 Charge = -1 Multiplicity = 2

                         Standard orientation:
 ---------------------------------------------------------------------
 Center     Atomic      Atomic             Coordinates (Angstroms)
 Number     Number       Type             X           Y           Z
 ---------------------------------------------------------------------
      1          6           0        1.961535   -1.489106    0.434180
      2          7           0        0.899966   -1.163458   -0.503838
      3          6           0        1.099819    0.141181   -1.149208
      4          6           0        0.623474    1.291824   -0.287927
      5          6           0        1.452638    2.203607    0.232455
      6          7           0       -0.762615    1.274720    0.059776
      7          6           0       -1.014546    0.701550    1.391833
      8          6           0       -0.773103   -0.832463    1.428178
      9          6           0       -0.454170   -1.415989    0.023148
     10          6           0       -1.520467   -0.921025   -0.965622
     11          6           0       -1.643443    0.634490   -0.924561
     12          1           0        2.081567   -0.762359    1.257539
     13          1           0        2.914799   -1.544179   -0.103563
     14          1           0        1.766816   -2.473335    0.874234
     15          1           0        2.164107    0.250351   -1.376539
     16          1           0        0.576758    0.139227   -2.112674
     17          1           0        1.084213    3.000556    0.871686
     18          1           0        2.519212    2.166880    0.036153
     19          1           0       -2.054091    0.933531    1.653499
     20          1           0       -0.375522    1.219964    2.109010
     21          1           0       -1.667897   -1.348285    1.799356
     22          1           0        0.033044   -1.080318    2.125161
     23          1           0       -0.535454   -2.507779    0.107311
     24          1           0       -1.277118   -1.274156   -1.973298
     25          1           0       -2.475843   -1.381159   -0.689103
     26          1           0       -2.667093    0.923347   -0.660851
     27          1           0       -1.439364    1.074470   -1.904345
 ---------------------------------------------------------------------

 SCF Done:  E(UB3LYP) =  -462.199487394     A.U. after   31 cycles

 The electronic state is 2-A.
 Alpha  occ. eigenvalues --  -14.20294 -14.19542 -10.09584 -10.08952 -10.08902
 Alpha  occ. eigenvalues --  -10.08660 -10.08465 -10.07480 -10.05630 -10.05055
 Alpha  occ. eigenvalues --  -10.04920  -0.84464  -0.80006  -0.69390  -0.64615
 Alpha  occ. eigenvalues --   -0.63753  -0.59043  -0.55973  -0.52669  -0.51004
 Alpha  occ. eigenvalues --   -0.44051  -0.42065  -0.39504  -0.39081  -0.35656
 Alpha  occ. eigenvalues --   -0.34838  -0.33191  -0.32653  -0.32085  -0.30054
 Alpha  occ. eigenvalues --   -0.29477  -0.27158  -0.27041  -0.26360  -0.26017
 Alpha  occ. eigenvalues --   -0.25011  -0.23614  -0.22498  -0.20731  -0.16560
 Alpha  occ. eigenvalues --   -0.11057  -0.09719   0.04863
 Alpha virt. eigenvalues --    0.07222   0.07867   0.08253   0.09417   0.09647
 Alpha virt. eigenvalues --    0.09975   0.10347   0.10739   0.11404   0.12369
 Alpha virt. eigenvalues --    0.12738   0.13194   0.13419   0.13929   0.14864

  Beta  occ. eigenvalues --  -14.20293 -14.19542 -10.09583 -10.08942 -10.08882
  Beta  occ. eigenvalues --  -10.08638 -10.08446 -10.07444 -10.05604 -10.05028
  Beta  occ. eigenvalues --  -10.04904  -0.84451  -0.79994  -0.69360  -0.64571
  Beta  occ. eigenvalues --   -0.63721  -0.58999  -0.55928  -0.52613  -0.50942
  Beta  occ. eigenvalues --   -0.44011  -0.42017  -0.39467  -0.39020  -0.35621
  Beta  occ. eigenvalues --   -0.34798  -0.33158  -0.32610  -0.32056  -0.30020
  Beta  occ. eigenvalues --   -0.29448  -0.27102  -0.27017  -0.26325  -0.25983
  Beta  occ. eigenvalues --   -0.24972  -0.23574  -0.22461  -0.20698  -0.16534
  Beta  occ. eigenvalues --   -0.11034  -0.09698
  Beta virt. eigenvalues --    0.07162   0.08163   0.08646   0.08823   0.09868
  Beta virt. eigenvalues --    0.10259   0.10420   0.10890   0.11166   0.11838
  Beta virt. eigenvalues --    0.12938   0.13254   0.13635   0.13908   0.14423

 Mulliken charges and spin densities:
               1          2
     1  C    0.990789  -1.346977
     2  N    0.164820   0.031381
     3  C    1.015358  -1.798149
     4  C   -1.768378   2.073426
     5  C    0.863408  -1.345823
     6  N    0.089967   0.056316
     7  C    0.522367  -0.910258
     8  C    1.289262  -1.691338
     9  C   -2.415427   2.453235
    10  C    1.366096  -1.807755
    11  C    0.034691  -0.287009
    12  H   -0.069825   0.208786
    13  H   -0.250130   0.368539
    14  H   -0.390443   0.546423
    15  H    0.126414   0.017373
    16  H   -0.146408   0.307408
    17  H   -0.035416   0.133907
    18  H   -0.146253   0.271586
    19  H    0.028752   0.129777
    20  H   -0.135655   0.267899
    21  H   -0.319707   0.475358
    22  H   -0.084366   0.228904
    23  H   -0.923607   1.161234
    24  H   -0.061748   0.223673
    25  H   -0.316877   0.473822
    26  H   -0.315451   0.480311
    27  H   -0.112232   0.277951
 Sum of Mulliken charges =  -1.00000   1.00000

 Dipole moment (field-independent basis, Debye):
    X=              1.4059    Y=              3.6500    Z=             -1.2181  Tot=              4.0967
 Quadrupole moment (field-independent basis, Debye-Ang):
   XX=           -116.9318   YY=           -117.8893   ZZ=           -104.9961
   XY=             -1.2582   XZ=             -0.7520   YZ=              3.2941

 Summary of Natural Population Analysis:

                                       Natural Population
                Natural  -----------------------------------------------
    Atom  No    Charge         Core      Valence    Rydberg      Total
 -----------------------------------------------------------------------
      C    1   -0.17875      0.99963     2.16967    0.00945     3.17875
      N    2   -0.28091      0.99973     2.76592    0.01527     3.78091
      C    3   -0.10963      0.99954     2.09764    0.01244     3.10963
      C    4    0.09200      0.99947     1.89329    0.01524     2.90800
      C    5   -0.21500      0.99949     2.20875    0.00676     3.21500
      N    6   -0.28116      0.99969     2.76740    0.01406     3.78116
      C    7   -0.08366      0.99960     2.07194    0.01211     3.08366
      C    8   -0.21412      0.99960     2.20518    0.00933     3.21412
      C    9   -0.00253      0.99957     1.98745    0.01551     3.00253
      C   10   -0.20861      0.99960     2.19996    0.00904     3.20861
      C   11   -0.08868      0.99962     2.07689    0.01217     3.08868
      H   12    0.08384      0.00000     0.41437    0.00179     0.41616
      H   13    0.09329      0.00000     0.40548    0.00123     0.40671
      H   14    0.09880      0.00000     0.39977    0.00142     0.40120
      H   15    0.10204      0.00000     0.39674    0.00122     0.39796
      H   16    0.09916      0.00000     0.39923    0.00161     0.40084
      H   17    0.09596      0.00000     0.40268    0.00136     0.40404
      H   18    0.09433      0.00000     0.40468    0.00098     0.40567
      H   19    0.09397      0.00000     0.40469    0.00134     0.40603
      H   20    0.09834      0.00000     0.40010    0.00156     0.40166
      H   21    0.10281      0.00000     0.39485    0.00234     0.39719
      H   22    0.10246      0.00000     0.39596    0.00158     0.39754
      H   23    0.10340      0.00000     0.39401    0.00259     0.39660
      H   24    0.10284      0.00000     0.39555    0.00161     0.39716
      H   25    0.10493      0.00000     0.39312    0.00196     0.39507
      H   26    0.09843      0.00000     0.40031    0.00126     0.40157
      H   27    0.09645      0.00000     0.40233    0.00121     0.40355
 =======================================================================
   * Total *    0.00000     10.99556    30.84797    0.15647    42.00000

 Normal termination of Gaussian 16 at Tue Dec  8 21:04:54 2020.
