 Gaussian 16, Revision A.03,

 -----------------------------------------------------------
 # opt freq B3LYP/6-31G(d) empiricaldispersion=gd3bj scf=xqc
 -----------------------------------------------------------

 -------------------------------
 CID_117222560_JID_3117_neutraal
 -------------------------------
 Symbolic Z-matrix:
 Charge =  0 Multiplicity = 1

 SCF Done:  E(RB3LYP) =  -551.966397438     A.U. after   14 cycles
 SCF Done:  E(RB3LYP) =  -551.972123060     A.U. after   12 cycles
 SCF Done:  E(RB3LYP) =  -551.972660777     A.U. after   12 cycles
 SCF Done:  E(RB3LYP) =  -551.974039321     A.U. after   12 cycles
 SCF Done:  E(RB3LYP) =  -551.974264014     A.U. after   11 cycles
 SCF Done:  E(RB3LYP) =  -551.974336281     A.U. after   11 cycles
 SCF Done:  E(RB3LYP) =  -551.974365044     A.U. after    9 cycles
 SCF Done:  E(RB3LYP) =  -551.974379083     A.U. after   10 cycles
 SCF Done:  E(RB3LYP) =  -551.974384098     A.U. after    8 cycles
 SCF Done:  E(RB3LYP) =  -551.974387102     A.U. after    8 cycles
 SCF Done:  E(RB3LYP) =  -551.974456856     A.U. after   10 cycles
 SCF Done:  E(RB3LYP) =  -551.974458987     A.U. after   10 cycles
 SCF Done:  E(RB3LYP) =  -551.974459453     A.U. after    8 cycles
 SCF Done:  E(RB3LYP) =  -551.974459497     A.U. after    8 cycles
 SCF Done:  E(RB3LYP) =  -551.974459527     A.U. after    8 cycles
 Optimization completed.
    -- Stationary point found.
 Normal termination of Gaussian 16 at Wed Dec  9 22:35:19 2020.

 --------------------------------------------------------------------
 #N Geom=AllCheck Guess=TCheck SCRF=Check GenChk RB3LYP/6-31G(d) Freq
 --------------------------------------------------------------------

 Structure from the checkpoint file:  "JID_3117.chk"
 -------------------------------
 CID_117222560_JID_3117_neutraal
 -------------------------------
 Charge =  0 Multiplicity = 1

 SCF Done:  E(RB3LYP) =  -551.974459527     A.U. after    1 cycles

  Exact polarizability: 167.614   0.594 120.732  -5.085  -1.801  69.161
 Approx polarizability: 247.911   5.999 207.075  -7.954  -7.474 110.499

                      1                      2                      3
                      A                      A                      A
 Frequencies --     38.8921                84.9848               104.0909
 Red. masses --      3.2519                 3.0448                 2.3201
 Frc consts  --      0.0029                 0.0130                 0.0148
 IR Inten    --      8.6652                 2.7340                25.1123

                      4                      5                      6
                      A                      A                      A
 Frequencies --    126.2667               202.7505               246.4169
 Red. masses --      2.3493                 3.3612                 4.2010
 Frc consts  --      0.0221                 0.0814                 0.1503
 IR Inten    --     22.1629                 3.9370                 8.3322

                      7                      8                      9
                      A                      A                      A
 Frequencies --    281.3617               300.4527               335.0930
 Red. masses --      3.2848                 2.2880                 1.4918
 Frc consts  --      0.1532                 0.1217                 0.0987
 IR Inten    --     10.4643                34.7817                36.3320

                     10                     11                     12
                      A                      A                      A
 Frequencies --    350.8135               394.6662               438.8980
 Red. masses --      3.9124                 1.3247                 3.0828
 Frc consts  --      0.2837                 0.1216                 0.3499
 IR Inten    --      4.6614                65.1505                43.5249

                     13                     14                     15
                      A                      A                      A
 Frequencies --    473.3725               502.4366               539.3577
 Red. masses --      3.2163                 2.7597                 1.8219
 Frc consts  --      0.4246                 0.4105                 0.3123
 IR Inten    --     28.4161                13.1376               169.3084

                     16                     17                     18
                      A                      A                      A
 Frequencies --    563.0590               581.3200               623.5923
 Red. masses --      3.6508                 3.4401                 2.3815
 Frc consts  --      0.6819                 0.6849                 0.5456
 IR Inten    --     21.1063                39.6213                 8.4564

                     19                     20                     21
                      A                      A                      A
 Frequencies --    651.8477               672.4315               706.7957
 Red. masses --      1.6671                 5.7890                 3.0329
 Frc consts  --      0.4174                 1.5422                 0.8927
 IR Inten    --     45.9551                 7.7219                13.2388

                     22                     23                     24
                      A                      A                      A
 Frequencies --    716.7439               752.8702               762.9080
 Red. masses --      5.6777                 3.3874                 1.3880
 Frc consts  --      1.7185                 1.1312                 0.4760
 IR Inten    --     15.8591                12.6894                41.1986

                     25                     26                     27
                      A                      A                      A
 Frequencies --    832.8924               845.7259               855.5379
 Red. masses --      1.2398                 3.8055                 1.5093
 Frc consts  --      0.5067                 1.6037                 0.6509
 IR Inten    --     13.8115                 7.8029                 4.5113

                     28                     29                     30
                      A                      A                      A
 Frequencies --    881.1927               919.5188               934.9170
 Red. masses --      1.4871                 4.8971                 1.3472
 Frc consts  --      0.6803                 2.4395                 0.6938
 IR Inten    --    165.2764                11.7816                 1.1121

                     31                     32                     33
                      A                      A                      A
 Frequencies --    961.5075              1008.4683              1064.0048
 Red. masses --      1.2251                 3.0551                 1.9881
 Frc consts  --      0.6673                 1.8306                 1.3261
 IR Inten    --      0.0976                15.6319                 2.5087

                     34                     35                     36
                      A                      A                      A
 Frequencies --   1081.9605              1092.3562              1121.9596
 Red. masses --      1.8469                 1.6525                 1.7405
 Frc consts  --      1.2738                 1.1617                 1.2909
 IR Inten    --     18.8576                 3.3682                16.4735

                     37                     38                     39
                      A                      A                      A
 Frequencies --   1153.6453              1170.9927              1193.8680
 Red. masses --      1.3272                 1.3194                 1.0938
 Frc consts  --      1.0407                 1.0659                 0.9186
 IR Inten    --      0.2423                 5.5968                 5.5100

                     40                     41                     42
                      A                      A                      A
 Frequencies --   1210.4941              1297.0705              1306.7584
 Red. masses --      2.6669                 2.3054                 1.7779
 Frc consts  --      2.3024                 2.2852                 1.7887
 IR Inten    --      4.3001                 9.7874                 2.1788

                     43                     44                     45
                      A                      A                      A
 Frequencies --   1341.2639              1363.9728              1377.2089
 Red. masses --      2.0818                 3.3950                 3.3005
 Frc consts  --      2.2065                 3.7213                 3.6883
 IR Inten    --     41.7829                 8.2053                 0.9754

                     46                     47                     48
                      A                      A                      A
 Frequencies --   1420.7146              1501.1113              1530.5316
 Red. masses --      3.0159                 2.5270                 2.9453
 Frc consts  --      3.5866                 3.3549                 4.0650
 IR Inten    --      1.1706                27.5202                21.7631

                     49                     50                     51
                      A                      A                      A
 Frequencies --   1539.7724              1560.4084              1629.0713
 Red. masses --      5.6660                 3.2261                 3.9561
 Frc consts  --      7.9149                 4.6281                 6.1858
 IR Inten    --     31.8857                64.3078                17.0817

                     52                     53                     54
                      A                      A                      A
 Frequencies --   1636.8826              1662.3410              1680.4821
 Red. masses --      4.0912                 3.0773                 1.4671
 Frc consts  --      6.4586                 5.0103                 2.4411
 IR Inten    --     15.0811                 2.3222               133.4393

                     55                     56                     57
                      A                      A                      A
 Frequencies --   1696.9918              3168.0853              3183.6216
 Red. masses --      1.2451                 1.0867                 1.0869
 Frc consts  --      2.1125                 6.4263                 6.4908
 IR Inten    --     51.6388                14.7301                 1.1530

                     58                     59                     60
                      A                      A                      A
 Frequencies --   3191.9509              3208.9624              3259.0425
 Red. masses --      1.0923                 1.0971                 1.0913
 Frc consts  --      6.5570                 6.6560                 6.8294
 IR Inten    --     36.4545                29.7510                 2.8540

                     61                     62                     63
                      A                      A                      A
 Frequencies --   3288.0680              3470.5879              3575.5714
 Red. masses --      1.1020                 1.0531                 1.0896
 Frc consts  --      7.0193                 7.4738                 8.2073
 IR Inten    --      3.8623                 4.1068                11.2975

                     64                     65                     66
                      A                      A                      A
 Frequencies --   3578.4192              3664.1372              3683.1766
 Red. masses --      1.0470                 1.0800                 1.0996
 Frc consts  --      7.8989                 8.5431                 8.7890
 IR Inten    --     19.0977                56.4788                23.9239

 - Thermochemistry -
 -------------------
 Temperature   298.150 Kelvin.  Pressure   1.00000 Atm.
 Atom     1 has atomic number  6 and mass  12.00000

 Molecular mass:   173.09530 amu.
 Principal axes and moments of inertia in atomic units:
                           1         2         3
     Eigenvalues --  1113.973853119.336723691.84793
           X            1.00000  -0.00096  -0.00100
           Y            0.00097   0.99999   0.00480
           Z            0.00099  -0.00480   0.99999
 This molecule is an asymmetric top.
 Rotational symmetry number  1.
 Warning -- assumption of classical behavior for rotation
           may cause significant error
 Rotational temperatures (Kelvin)      0.07775     0.02777     0.02346
 Rotational constants (GHZ):           1.62009     0.57857     0.48884
 Zero-point vibrational energy     517963.1 (Joules/Mol)
                                  123.79615 (Kcal/Mol)
 Warning -- explicit consideration of  17 degrees of freedom as
           vibrations may cause significant error
 Vibrational temperatures:     55.96   122.27   149.76   181.67   291.71
          (Kelvin)            354.54   404.82   432.28   482.12   504.74
                              567.84   631.48   681.08   722.89   776.02
                              810.12   836.39   897.21   937.86   967.48
                             1016.92  1031.23  1083.21  1097.65  1198.35
                             1216.81  1230.93  1267.84  1322.98  1345.14
                             1383.39  1450.96  1530.87  1556.70  1571.66
                             1614.25  1659.84  1684.80  1717.71  1741.63
                             1866.20  1880.13  1929.78  1962.45  1981.50
                             2044.09  2159.76  2202.09  2215.39  2245.08
                             2343.87  2355.11  2391.74  2417.84  2441.59
                             4558.17  4580.52  4592.51  4616.98  4689.04
                             4730.80  4993.40  5144.45  5148.55  5271.88
                             5299.27

 Zero-point correction=                           0.197282 (Hartree/Particle)
 Thermal correction to Energy=                    0.208901
 Thermal correction to Enthalpy=                  0.209845
 Thermal correction to Gibbs Free Energy=         0.159638
 Sum of electronic and zero-point Energies=           -551.777178
 Sum of electronic and thermal Energies=              -551.765558
 Sum of electronic and thermal Enthalpies=            -551.764614
 Sum of electronic and thermal Free Energies=         -551.814822

                     E (Thermal)             CV                S
                      KCal/Mol        Cal/Mol-Kelvin    Cal/Mol-Kelvin
 Total                  131.087             45.799            105.671
 Electronic               0.000              0.000              0.000
 Translational            0.889              2.981             41.353
 Rotational               0.889              2.981             30.929
 Vibrational            129.310             39.838             33.388
 Vibration     1          0.594              1.981              5.315
 Vibration     2          0.601              1.960              3.772
 Vibration     3          0.605              1.946              3.376
 Vibration     4          0.611              1.927              3.002
 Vibration     5          0.639              1.836              2.108
 Vibration     6          0.661              1.769              1.756
 Vibration     7          0.681              1.708              1.525
 Vibration     8          0.693              1.673              1.414
 Vibration     9          0.716              1.605              1.235
 Vibration    10          0.728              1.574              1.163
 Vibration    11          0.762              1.482              0.982
 Vibration    12          0.799              1.385              0.830
 Vibration    13          0.830              1.309              0.728
 Vibration    14          0.858              1.245              0.652
 Vibration    15          0.894              1.163              0.567
 Vibration    16          0.919              1.111              0.518
 Vibration    17          0.938              1.072              0.483

 Optimization completed.
    -- Stationary point found.
 Normal termination of Gaussian 16 at Wed Dec  9 22:41:18 2020.

 ----------------------------------------------------------------------
 # B3LYP/6-311++G(d,p) empiricaldispersion=gd3bj scf=xqc pop=npa geom=c
 heck
 ----------------------------------------------------------------------

 ---------------------------------------
 CID_117222560_JID_3117_Energie_neutraal
 ---------------------------------------
 Structure from the checkpoint file:  "JID_3117.chk"
 Charge =  0 Multiplicity = 1

 SCF Done:  E(RB3LYP) =  -552.139076804     A.U. after   16 cycles
 Normal termination of Gaussian 16 at Wed Dec  9 22:44:09 2020.

 ----------------------------------------------------------------------
 # B3LYP/6-311++G(d,p) empiricaldispersion=gd3bj scf=xqc pop=npa geom=c
 heck
 ----------------------------------------------------------------------

 -------------------------------------
 CID_117222560_JID_3117_Energie_kation
 -------------------------------------
 Structure from the checkpoint file:  "JID_3117.chk"
 Charge =  1 Multiplicity = 2

 SCF Done:  E(UB3LYP) =  -551.885836287     A.U. after   24 cycles
 Normal termination of Gaussian 16 at Wed Dec  9 22:50:01 2020.
 Gaussian 16:  ES64L-G16RevA.03 25-Dec-2016

 ----------------------------------------------------------------------
 # B3LYP/6-311++G(d,p) empiricaldispersion=gd3bj scf=xqc pop=npa geom=c
 heck
 ----------------------------------------------------------------------

 ------------------------------------
 CID_117222560_JID_3117_Energie_anion
 ------------------------------------
 Structure from the checkpoint file:  "JID_3117.chk"
 Charge = -1 Multiplicity = 2

                         Standard orientation:
 ---------------------------------------------------------------------
 Center     Atomic      Atomic             Coordinates (Angstroms)
 Number     Number       Type             X           Y           Z
 ---------------------------------------------------------------------
      1          6           0       -2.684885   -1.430890    0.576368
      2          6           0       -3.378635   -0.280904    0.193924
      3          6           0       -2.692256    0.814395   -0.318468
      4          6           0       -1.294023    0.790932   -0.460122
      5          6           0       -0.576020   -0.357678   -0.039187
      6          6           0       -1.297367   -1.451917    0.458180
      7          6           0        0.895617   -0.417431   -0.125068
      8          6           0        1.785840    0.461169    0.477232
      9          7           0        3.063085    0.038179    0.203343
     10          6           0        3.017467   -1.110773   -0.572062
     11          6           0        1.696291   -1.411123   -0.785400
     12          7           0        1.562264    1.639812    1.219341
     13          7           0       -0.646213    1.862610   -1.072935
     14          1           0       -3.215352   -2.291926    0.971627
     15          1           0       -4.460477   -0.236297    0.287954
     16          1           0       -3.238666    1.697329   -0.643212
     17          1           0       -0.736019   -2.326845    0.775158
     18          1           0        3.894379    0.562425    0.428272
     19          1           0        3.924784   -1.599551   -0.893054
     20          1           0        1.311709   -2.246833   -1.353534
     21          1           0        0.563950    1.754868    1.372605
     22          1           0        2.008595    1.601740    2.134709
     23          1           0        0.358064    1.903220   -0.971175
     24          1           0       -1.097086    2.762981   -0.989967
 ---------------------------------------------------------------------

 SCF Done:  E(UB3LYP) =  -552.128346737     A.U. after   33 cycles
 SCF Done:  E(UB3LYP) =  -552.128346737     a.u. after    1 cycles

 The electronic state is 2-A.
 Alpha  occ. eigenvalues --  -14.24338 -14.21201 -14.21010 -10.12140 -10.11362
 Alpha  occ. eigenvalues --  -10.08311 -10.07700 -10.07539 -10.07120 -10.06856
 Alpha  occ. eigenvalues --  -10.06681 -10.05400 -10.05220  -0.87811  -0.81843
 Alpha  occ. eigenvalues --   -0.78669  -0.74013  -0.68671  -0.63990  -0.62758
 Alpha  occ. eigenvalues --   -0.59605  -0.52290  -0.50621  -0.47998  -0.45858
 Alpha  occ. eigenvalues --   -0.43790  -0.41851  -0.41161  -0.38270  -0.36716
 Alpha  occ. eigenvalues --   -0.34144  -0.33223  -0.33016  -0.32202  -0.31280
 Alpha  occ. eigenvalues --   -0.30143  -0.28861  -0.27362  -0.26144  -0.24365
 Alpha  occ. eigenvalues --   -0.21356  -0.19956  -0.16300  -0.13537  -0.10757
 Alpha  occ. eigenvalues --   -0.08375   0.04408
 Alpha virt. eigenvalues --    0.06403   0.07354   0.07910   0.08345   0.08744
 Alpha virt. eigenvalues --    0.09750   0.09898   0.10621   0.10997   0.12303
 Alpha virt. eigenvalues --    0.12348   0.13233   0.13374   0.15067   0.15501

  Beta  occ. eigenvalues --  -14.24284 -14.21168 -14.20938 -10.12138 -10.11359
  Beta  occ. eigenvalues --  -10.08300 -10.07698 -10.07536 -10.07118 -10.06844
  Beta  occ. eigenvalues --  -10.06679 -10.05393 -10.05220  -0.87757  -0.81803
  Beta  occ. eigenvalues --   -0.78570  -0.73994  -0.68635  -0.63957  -0.62727
  Beta  occ. eigenvalues --   -0.59555  -0.52264  -0.50583  -0.47943  -0.45819
  Beta  occ. eigenvalues --   -0.43695  -0.41809  -0.41122  -0.38207  -0.36675
  Beta  occ. eigenvalues --   -0.34086  -0.33198  -0.32981  -0.32172  -0.31244
  Beta  occ. eigenvalues --   -0.30127  -0.28834  -0.27341  -0.26131  -0.24349
  Beta  occ. eigenvalues --   -0.21337  -0.19893  -0.16290  -0.13520  -0.10734
  Beta  occ. eigenvalues --   -0.08348
  Beta virt. eigenvalues --    0.06696   0.07669   0.07808   0.08343   0.08752
  Beta virt. eigenvalues --    0.09256   0.09922   0.10384   0.10960   0.11453
  Beta virt. eigenvalues --    0.12455   0.12867   0.13586   0.13636   0.15115

 Mulliken charges and spin densities:
               1          2
     1  C   -0.751791   0.284033
     2  C    0.553157  -0.750871
     3  C   -0.446193   0.134841
     4  C   -2.204152   0.850246
     5  C    2.204209  -0.989304
     6  C    0.209800  -0.497672
     7  C    4.223376  -3.796941
     8  C   -1.700682   1.324922
     9  N   -0.022894  -0.125139
    10  C    0.700038  -1.192553
    11  C   -1.344120   1.647014
    12  N   -0.345386   0.016119
    13  N   -0.233570  -0.029445
    14  H    0.054584   0.076464
    15  H    0.052622   0.082952
    16  H   -0.417302   0.557450
    17  H    0.082822   0.082569
    18  H   -0.621203   0.951065
    19  H   -0.426297   0.566452
    20  H    0.057797   0.096404
    21  H    0.046979   0.214572
    22  H   -0.625214   0.908282
    23  H    0.139941   0.154967
    24  H   -0.186520   0.433573
 Sum of Mulliken charges =  -1.00000   1.00000

 Dipole moment (field-independent basis, Debye):
    X=             -6.0838    Y=             -4.6524    Z=             -2.3138  Tot=              8.0006
 Quadrupole moment (field-independent basis, Debye-Ang):
   XX=           -144.4708   YY=           -111.3197   ZZ=           -111.2114
   XY=             -3.4131   XZ=            -11.0045   YZ=             -4.3242

 Summary of Natural Population Analysis:

                                       Natural Population
                Natural  -----------------------------------------------
    Atom  No    Charge         Core      Valence    Rydberg      Total
 -----------------------------------------------------------------------
      C    1   -0.12851      0.99956     2.11877    0.01017     3.12851
      C    2   -0.09991      0.99957     2.09105    0.00929     3.09991
      C    3   -0.12514      0.99952     2.11523    0.01039     3.12514
      C    4    0.08894      0.99946     1.89928    0.01232     2.91106
      C    5   -0.04589      0.99946     2.03509    0.01134     3.04589
      C    6   -0.08428      0.99953     2.07658    0.00816     3.08428
      C    7   -0.09929      0.99945     2.08684    0.01300     3.09929
      C    8    0.17064      0.99946     1.81516    0.01474     2.82936
      N    9   -0.27330      0.99966     2.76204    0.01160     3.77330
      C   10   -0.02936      0.99957     2.01584    0.01395     3.02936
      C   11   -0.13464      0.99953     2.12608    0.00903     3.13464
      N   12   -0.41044      0.99973     2.89955    0.01117     3.91044
      N   13   -0.39744      0.99971     2.88822    0.00952     3.89744
      H   14    0.09680      0.00000     0.40242    0.00078     0.40320
      H   15    0.09661      0.00000     0.40261    0.00078     0.40339
      H   16    0.09902      0.00000     0.39988    0.00110     0.40098
      H   17    0.10120      0.00000     0.39786    0.00094     0.39880
      H   18    0.20839      0.00000     0.27358    0.01803     0.29161
      H   19    0.09903      0.00000     0.40001    0.00096     0.40097
      H   20    0.10230      0.00000     0.39690    0.00080     0.39770
      H   21    0.18938      0.00000     0.30720    0.00342     0.31062
      H   22    0.19145      0.00000     0.29802    0.01054     0.30855
      H   23    0.19678      0.00000     0.30076    0.00246     0.30322
      H   24    0.18768      0.00000     0.30977    0.00255     0.31232
 =======================================================================
   * Total *   -0.00000     12.99420    32.81874    0.18706    46.00000

 Normal termination of Gaussian 16 at Wed Dec  9 22:58:57 2020.
