 Gaussian 16, Revision A.03,

 -----------------------------------------------------------
 # opt freq B3LYP/6-31G(d) empiricaldispersion=gd3bj scf=xqc
 -----------------------------------------------------------

 ------------------------------
 CID_61522071_JID_6994_neutraal
 ------------------------------
 Symbolic Z-matrix:
 Charge =  0 Multiplicity = 1

 SCF Done:  E(RB3LYP) =  -672.345546445     A.U. after   14 cycles
 SCF Done:  E(RB3LYP) =  -672.350866708     A.U. after   12 cycles
 SCF Done:  E(RB3LYP) =  -672.352321627     A.U. after   12 cycles
 SCF Done:  E(RB3LYP) =  -672.353501380     A.U. after   12 cycles
 SCF Done:  E(RB3LYP) =  -672.353838636     A.U. after   12 cycles
 SCF Done:  E(RB3LYP) =  -672.353943181     A.U. after   11 cycles
 SCF Done:  E(RB3LYP) =  -672.354002003     A.U. after   11 cycles
 SCF Done:  E(RB3LYP) =  -672.354096219     A.U. after   11 cycles
 SCF Done:  E(RB3LYP) =  -672.354162289     A.U. after   12 cycles
 SCF Done:  E(RB3LYP) =  -672.354198390     A.U. after    9 cycles
 SCF Done:  E(RB3LYP) =  -672.357874108     A.U. after   10 cycles
 SCF Done:  E(RB3LYP) =  -672.357876433     A.U. after    8 cycles
 SCF Done:  E(RB3LYP) =  -672.357876752     A.U. after    8 cycles
 SCF Done:  E(RB3LYP) =  -672.357876796     A.U. after    7 cycles
 SCF Done:  E(RB3LYP) =  -672.357876818     A.U. after    6 cycles
 Optimization completed.
    -- Stationary point found.
 Normal termination of Gaussian 16 at Fri Dec 11 01:46:58 2020.

 --------------------------------------------------------------------
 #N Geom=AllCheck Guess=TCheck SCRF=Check GenChk RB3LYP/6-31G(d) Freq
 --------------------------------------------------------------------

 Structure from the checkpoint file:  "JID_6994.chk"
 ------------------------------
 CID_61522071_JID_6994_neutraal
 ------------------------------
 Charge =  0 Multiplicity = 1

 SCF Done:  E(RB3LYP) =  -672.357876818     A.U. after    1 cycles

  Exact polarizability: 193.576 -24.889 142.274 -18.156 -11.359 127.980
 Approx polarizability: 246.654 -43.540 214.007 -33.528 -25.599 217.680

                      1                      2                      3
                      A                      A                      A
 Frequencies --     19.6758                36.6125                51.8057
 Red. masses --      4.0537                 3.1216                 3.3469
 Frc consts  --      0.0009                 0.0025                 0.0053
 IR Inten    --      0.0092                 0.1082                 3.0865

                      4                      5                      6
                      A                      A                      A
 Frequencies --     76.9324                99.6722               105.6992
 Red. masses --      1.1819                 2.9871                 3.5206
 Frc consts  --      0.0041                 0.0175                 0.0232
 IR Inten    --      0.0405                 2.0676                 0.6413

                      7                      8                      9
                      A                      A                      A
 Frequencies --    133.1200               200.7675               239.9124
 Red. masses --      3.7203                 3.4344                 2.2052
 Frc consts  --      0.0388                 0.0816                 0.0748
 IR Inten    --      1.3677                 1.7305                 0.6528

                     10                     11                     12
                      A                      A                      A
 Frequencies --    254.4724               279.1439               323.5994
 Red. masses --      2.1212                 2.4913                 3.3007
 Frc consts  --      0.0809                 0.1144                 0.2036
 IR Inten    --      1.9657                 3.3680                 0.3575

                     13                     14                     15
                      A                      A                      A
 Frequencies --    336.9523               380.7419               398.7460
 Red. masses --      2.6177                 2.2327                 2.3403
 Frc consts  --      0.1751                 0.1907                 0.2192
 IR Inten    --      5.0387                 0.8628                 1.1367

                     16                     17                     18
                      A                      A                      A
 Frequencies --    403.2868               426.4635               437.5690
 Red. masses --      2.0431                 3.9333                 3.2966
 Frc consts  --      0.1958                 0.4215                 0.3719
 IR Inten    --      3.2375                 2.6039                 1.8562

                     19                     20                     21
                      A                      A                      A
 Frequencies --    466.0909               472.3786               513.9143
 Red. masses --      1.8596                 2.4522                 1.7728
 Frc consts  --      0.2380                 0.3224                 0.2759
 IR Inten    --     73.5786                16.1705                49.0804

                     22                     23                     24
                      A                      A                      A
 Frequencies --    537.3394               567.0540               630.7181
 Red. masses --      2.4804                 1.8721                 2.4251
 Frc consts  --      0.4220                 0.3547                 0.5684
 IR Inten    --      4.9838                22.5756                 2.1234

                     25                     26                     27
                      A                      A                      A
 Frequencies --    658.3810               754.6810               760.0748
 Red. masses --      7.3406                 3.0847                 3.4998
 Frc consts  --      1.8747                 1.0351                 1.1913
 IR Inten    --      2.2165                 3.8143                 5.6400

                     28                     29                     30
                      A                      A                      A
 Frequencies --    774.4093               824.0936               833.1039
 Red. masses --      3.7253                 1.7213                 1.4796
 Frc consts  --      1.3163                 0.6887                 0.6051
 IR Inten    --      6.4260                34.4111                 1.2766

                     31                     32                     33
                      A                      A                      A
 Frequencies --    847.4433               856.6564               881.0636
 Red. masses --      3.5842                 2.8835                 1.4503
 Frc consts  --      1.5166                 1.2468                 0.6633
 IR Inten    --      4.0707                 0.4185                 3.9344

                     34                     35                     36
                      A                      A                      A
 Frequencies --    898.6486               910.1556               936.0637
 Red. masses --      2.6436                 2.5036                 2.1962
 Frc consts  --      1.2578                 1.2219                 1.1338
 IR Inten    --      4.4322                 3.4535                 5.1991

                     37                     38                     39
                      A                      A                      A
 Frequencies --    942.2829               972.3098               990.1162
 Red. masses --      1.3015                 1.3199                 1.2901
 Frc consts  --      0.6808                 0.7352                 0.7452
 IR Inten    --      0.8727                 0.0111                 1.2020

                     40                     41                     42
                      A                      A                      A
 Frequencies --   1015.2872              1024.9762              1046.4573
 Red. masses --      1.5858                 2.2236                 2.5787
 Frc consts  --      0.9631                 1.3764                 1.6638
 IR Inten    --      5.4948                 8.1200                 6.0393

                     43                     44                     45
                      A                      A                      A
 Frequencies --   1059.9162              1064.5034              1078.9173
 Red. masses --      2.1750                 1.7948                 1.4758
 Frc consts  --      1.4396                 1.1983                 1.0122
 IR Inten    --      7.2809                18.5956                 3.1646

                     46                     47                     48
                      A                      A                      A
 Frequencies --   1101.3056              1127.0889              1149.3542
 Red. masses --      1.9273                 3.5996                 2.2366
 Frc consts  --      1.3772                 2.6942                 1.7408
 IR Inten    --     12.0491                 7.6598                33.7340

                     49                     50                     51
                      A                      A                      A
 Frequencies --   1158.8474              1177.0834              1183.9327
 Red. masses --      2.0398                 1.2177                 1.1836
 Frc consts  --      1.6140                 0.9940                 0.9775
 IR Inten    --      4.7864                 9.8066                 2.6969

                     52                     53                     54
                      A                      A                      A
 Frequencies --   1211.5849              1228.4028              1259.5358
 Red. masses --      2.3856                 1.3331                 2.6696
 Frc consts  --      2.0633                 1.1852                 2.4953
 IR Inten    --     28.6177                 0.6101                 0.8840

                     55                     56                     57
                      A                      A                      A
 Frequencies --   1277.8383              1302.3996              1311.4629
 Red. masses --      1.7380                 1.2553                 1.2037
 Frc consts  --      1.6721                 1.2546                 1.2198
 IR Inten    --     16.5959                 4.7020                10.7247

                     58                     59                     60
                      A                      A                      A
 Frequencies --   1324.3074              1346.6171              1352.0527
 Red. masses --      1.7960                 2.0803                 1.5211
 Frc consts  --      1.8558                 2.2226                 1.6383
 IR Inten    --     24.9525                38.1793                 8.4698

                     61                     62                     63
                      A                      A                      A
 Frequencies --   1362.5943              1371.3464              1378.4688
 Red. masses --      1.5208                 1.3178                 1.8460
 Frc consts  --      1.6636                 1.4602                 2.0667
 IR Inten    --      6.3557                 4.3142                66.0378

                     64                     65                     66
                      A                      A                      A
 Frequencies --   1399.4697              1401.2094              1404.5490
 Red. masses --      1.4118                 1.4135                 1.4102
 Frc consts  --      1.6291                 1.6351                 1.6390
 IR Inten    --      0.3582                16.2052                11.7083

                     67                     68                     69
                      A                      A                      A
 Frequencies --   1413.4456              1422.0597              1429.6765
 Red. masses --      1.5554                 1.3479                 2.1125
 Frc consts  --      1.8308                 1.6060                 2.5441
 IR Inten    --     35.4538                19.5221                23.8346

                     70                     71                     72
                      A                      A                      A
 Frequencies --   1444.7613              1447.3329              1496.8215
 Red. masses --      1.4289                 1.2548                 1.1262
 Frc consts  --      1.7573                 1.5486                 1.4867
 IR Inten    --     12.6658                 1.4676                29.1089

                     73                     74                     75
                      A                      A                      A
 Frequencies --   1504.5644              1506.7685              1513.0496
 Red. masses --      1.0978                 1.1143                 1.0863
 Frc consts  --      1.4642                 1.4906                 1.4652
 IR Inten    --      5.0360                 5.4782                 6.3497

                     76                     77                     78
                      A                      A                      A
 Frequencies --   1515.1167              1518.7483              1520.3394
 Red. masses --      1.0442                 1.2203                 1.1036
 Frc consts  --      1.4123                 1.6584                 1.5030
 IR Inten    --      4.9047                 6.7206                 3.0767

                     79                     80                     81
                      A                      A                      A
 Frequencies --   1523.9592              1537.5763              1541.0754
 Red. masses --      1.1144                 1.1211                 1.4191
 Frc consts  --      1.5249                 1.5617                 1.9858
 IR Inten    --      7.5278                 1.4148                15.3533

                     82                     83                     84
                      A                      A                      A
 Frequencies --   1563.1437              1628.8576              1677.9481
 Red. masses --      2.9497                 4.0725                 5.8379
 Frc consts  --      4.2465                 6.3662                 9.6841
 IR Inten    --    305.9001                43.6162               188.1627

                     85                     86                     87
                      A                      A                      A
 Frequencies --   2875.4834              2913.8171              3019.7448
 Red. masses --      1.0732                 1.0720                 1.0679
 Frc consts  --      5.2284                 5.3624                 5.7373
 IR Inten    --     70.0219               114.6858                35.2798

                     88                     89                     90
                      A                      A                      A
 Frequencies --   3020.3343              3037.3193              3043.9522
 Red. masses --      1.0711                 1.0375                 1.0614
 Frc consts  --      5.7568                 5.6394                 5.7943
 IR Inten    --     43.6428                55.4939                24.7573

                     91                     92                     93
                      A                      A                      A
 Frequencies --   3044.8905              3068.7692              3073.2666
 Red. masses --      1.0609                 1.0847                 1.0614
 Frc consts  --      5.7952                 6.0187                 5.9065
 IR Inten    --     24.5964                38.9645                68.7614

                     94                     95                     96
                      A                      A                      A
 Frequencies --   3076.9787              3086.2198              3086.2893
 Red. masses --      1.0925                 1.1035                 1.1027
 Frc consts  --      6.0942                 6.1926                 6.1882
 IR Inten    --     62.8591                20.9783                30.5011

                     97                     98                     99
                      A                      A                      A
 Frequencies --   3091.0548              3094.0917              3112.9602
 Red. masses --      1.0992                 1.0941                 1.0985
 Frc consts  --      6.1876                 6.1714                 6.2716
 IR Inten    --     41.8446                48.6451                 9.4131

                    100                    101                    102
                      A                      A                      A
 Frequencies --   3119.0107              3125.8550              3151.4641
 Red. masses --      1.1000                 1.0992                 1.0900
 Frc consts  --      6.3051                 6.3282                 6.3785
 IR Inten    --     15.3003                36.4144                44.9350

                    103                    104                    105
                      A                      A                      A
 Frequencies --   3173.2938              3192.6020              3616.0176
 Red. masses --      1.0872                 1.0952                 1.0761
 Frc consts  --      6.4501                 6.5771                 8.2901
 IR Inten    --     17.3264                17.1506                19.1177

 - Thermochemistry -
 -------------------
 Temperature   298.150 Kelvin.  Pressure   1.00000 Atm.
 Atom     1 has atomic number  6 and mass  12.00000

 Molecular mass:   219.17355 amu.
 Principal axes and moments of inertia in atomic units:
                           1         2         3
     Eigenvalues --  1671.040016803.537527506.18703
           X            0.99996  -0.00597  -0.00712
           Y            0.00590   0.99994  -0.00960
           Z            0.00718   0.00955   0.99993
 This molecule is an asymmetric top.
 Rotational symmetry number  1.
 Warning -- assumption of classical behavior for rotation
           may cause significant error
 Rotational temperatures (Kelvin)      0.05183     0.01273     0.01154
 Rotational constants (GHZ):           1.08001     0.26527     0.24043
 Zero-point vibrational energy     870763.7 (Joules/Mol)
                                  208.11752 (Kcal/Mol)
 Warning -- explicit consideration of  23 degrees of freedom as
           vibrations may cause significant error
 Vibrational temperatures:     28.31    52.68    74.54   110.69   143.41
          (Kelvin)            152.08   191.53   288.86   345.18   366.13
                              401.63   465.59   484.80   547.80   573.71
                              580.24   613.59   629.56   670.60   679.65
                              739.41   773.11   815.86   907.46   947.26
                             1085.82  1093.58  1114.20  1185.69  1198.65
                             1219.28  1232.54  1267.65  1292.95  1309.51
                             1346.79  1355.73  1398.94  1424.56  1460.77
                             1474.71  1505.62  1524.98  1531.58  1552.32
                             1584.53  1621.63  1653.66  1667.32  1693.56
                             1703.42  1743.20  1767.40  1812.19  1838.52
                             1873.86  1886.90  1905.38  1937.48  1945.30
                             1960.47  1973.06  1983.31  2013.52  2016.03
                             2020.83  2033.63  2046.03  2056.99  2078.69
                             2082.39  2153.59  2164.73  2167.90  2176.94
                             2179.91  2185.14  2187.43  2192.64  2212.23
                             2217.26  2249.02  2343.56  2414.19  4137.18
                             4192.33  4344.74  4345.59  4370.03  4379.57
                             4380.92  4415.27  4421.75  4427.09  4440.38
                             4440.48  4447.34  4451.71  4478.86  4487.56
                             4497.41  4534.25  4565.66  4593.44  5202.64

 Zero-point correction=                           0.331656 (Hartree/Particle)
 Thermal correction to Energy=                    0.347041
 Thermal correction to Enthalpy=                  0.347985
 Thermal correction to Gibbs Free Energy=         0.287487
 Sum of electronic and zero-point Energies=           -672.026220
 Sum of electronic and thermal Energies=              -672.010836
 Sum of electronic and thermal Enthalpies=            -672.009892
 Sum of electronic and thermal Free Energies=         -672.070390

                     E (Thermal)             CV                S
                      KCal/Mol        Cal/Mol-Kelvin    Cal/Mol-Kelvin
 Total                  217.771             59.749            127.330
 Electronic               0.000              0.000              0.000
 Translational            0.889              2.981             42.057
 Rotational               0.889              2.981             32.812
 Vibrational            215.994             53.787             52.461
 Vibration     1          0.593              1.986              6.667
 Vibration     2          0.594              1.982              5.434
 Vibration     3          0.596              1.977              4.747
 Vibration     4          0.599              1.965              3.968
 Vibration     5          0.604              1.949              3.461
 Vibration     6          0.605              1.945              3.346
 Vibration     7          0.613              1.920              2.900
 Vibration     8          0.638              1.839              2.126
 Vibration     9          0.657              1.779              1.804
 Vibration    10          0.665              1.755              1.699
 Vibration    11          0.679              1.712              1.539
 Vibration    12          0.708              1.628              1.292
 Vibration    13          0.718              1.602              1.227
 Vibration    14          0.750              1.511              1.036
 Vibration    15          0.765              1.473              0.967
 Vibration    16          0.769              1.463              0.951
 Vibration    17          0.788              1.413              0.870
 Vibration    18          0.798              1.388              0.834
 Vibration    19          0.823              1.325              0.749
 Vibration    20          0.829              1.311              0.731
 Vibration    21          0.869              1.219              0.624
 Vibration    22          0.892              1.167              0.571
 Vibration    23          0.923              1.103              0.510

                           ! Non-Optimized Parameters !
 Normal termination of Gaussian 16 at Fri Dec 11 01:59:03 2020.

 ----------------------------------------------------------------------
 # B3LYP/6-311++G(d,p) empiricaldispersion=gd3bj scf=xqc pop=npa geom=c
 heck
 ----------------------------------------------------------------------

 --------------------------------------
 CID_61522071_JID_6994_Energie_neutraal
 --------------------------------------
 Structure from the checkpoint file:  "JID_6994.chk"
 Charge =  0 Multiplicity = 1

 SCF Done:  E(RB3LYP) =  -672.538056652     A.U. after   15 cycles
 Normal termination of Gaussian 16 at Fri Dec 11 02:04:31 2020.

 ----------------------------------------------------------------------
 # B3LYP/6-311++G(d,p) empiricaldispersion=gd3bj scf=xqc pop=npa geom=c
 heck
 ----------------------------------------------------------------------

 ------------------------------------
 CID_61522071_JID_6994_Energie_kation
 ------------------------------------
 Structure from the checkpoint file:  "JID_6994.chk"
 Charge =  1 Multiplicity = 2

 SCF Done:  E(UB3LYP) =  -672.283475822     A.U. after   19 cycles
 Normal termination of Gaussian 16 at Fri Dec 11 02:13:47 2020.
 Gaussian 16:  ES64L-G16RevA.03 25-Dec-2016

 ----------------------------------------------------------------------
 # B3LYP/6-311++G(d,p) empiricaldispersion=gd3bj scf=xqc pop=npa geom=c
 heck
 ----------------------------------------------------------------------

 -----------------------------------
 CID_61522071_JID_6994_Energie_anion
 -----------------------------------
 Structure from the checkpoint file:  "JID_6994.chk"
 Charge = -1 Multiplicity = 2

                         Standard orientation:
 ---------------------------------------------------------------------
 Center     Atomic      Atomic             Coordinates (Angstroms)
 Number     Number       Type             X           Y           Z
 ---------------------------------------------------------------------
      1          6           0        5.013097   -1.179702   -0.724759
      2          6           0        3.746723   -0.557989   -0.196080
      3          6           0        3.125923    0.509752   -0.839613
      4          7           0        1.998094    1.107324   -0.432361
      5          6           0        1.418733    0.655810    0.688932
      6          6           0        1.955201   -0.425387    1.424777
      7          6           0        3.116627   -1.022216    0.971725
      8          7           0        0.281016    1.301353    1.124561
      9          6           0       -0.483596    2.179045    0.248746
     10          6           0       -1.138830    1.488427   -0.965133
     11          7           0       -2.078733    0.406844   -0.704865
     12          6           0       -1.504185   -0.894611   -0.383974
     13          6           0       -2.557671   -1.991942   -0.557483
     14          6           0       -3.780537   -1.696133    0.319676
     15          6           0       -4.314073   -0.286717    0.035938
     16          6           0       -3.195454    0.752682    0.160422
     17          1           0        5.337062   -0.686463   -1.646990
     18          1           0        5.835496   -1.102806   -0.002201
     19          1           0        4.879844   -2.245770   -0.948585
     20          1           0        3.561723    0.912912   -1.754016
     21          1           0        1.460861   -0.772789    2.328020
     22          1           0        3.543954   -1.857541    1.522520
     23          1           0       -0.258323    0.794511    1.811948
     24          1           0       -1.243295    2.663266    0.871009
     25          1           0        0.184855    2.961912   -0.122229
     26          1           0       -1.666603    2.267937   -1.534591
     27          1           0       -0.344769    1.100129   -1.608838
     28          1           0       -1.119778   -0.947134    0.654712
     29          1           0       -0.647489   -1.066962   -1.043559
     30          1           0       -2.123004   -2.966092   -0.300918
     31          1           0       -2.858206   -2.028568   -1.612091
     32          1           0       -4.565359   -2.445363    0.160729
     33          1           0       -3.487524   -1.764417    1.378166
     34          1           0       -4.714090   -0.244554   -0.984881
     35          1           0       -5.131717   -0.034983    0.722786
     36          1           0       -3.565048    1.743748   -0.129511
     37          1           0       -2.892974    0.824263    1.228130
 ---------------------------------------------------------------------

 SCF Done:  E(UB3LYP) =  -672.524711086     A.U. after   33 cycles
 SCF Done:  E(UB3LYP) =  -672.524711086     a.u. after    1 cycles

 The electronic state is 2-A.
 Alpha  occ. eigenvalues --  -14.22707 -14.20400 -14.20300 -10.14437 -10.10602
 Alpha  occ. eigenvalues --  -10.10179 -10.09466 -10.09344 -10.09195 -10.08824
 Alpha  occ. eigenvalues --  -10.08237 -10.07862 -10.07815 -10.06965 -10.06939
 Alpha  occ. eigenvalues --  -10.06778  -0.87282  -0.83232  -0.80468  -0.71469
 Alpha  occ. eigenvalues --   -0.70427  -0.67498  -0.65752  -0.63522  -0.59687
 Alpha  occ. eigenvalues --   -0.56050  -0.53355  -0.52947  -0.51361  -0.49288
 Alpha  occ. eigenvalues --   -0.45487  -0.44659  -0.40961  -0.39165  -0.37877
 Alpha  occ. eigenvalues --   -0.37120  -0.36172  -0.35622  -0.35321  -0.33732
 Alpha  occ. eigenvalues --   -0.33280  -0.32553  -0.31312  -0.31193  -0.30179
 Alpha  occ. eigenvalues --   -0.29749  -0.29428  -0.28977  -0.27857  -0.27202
 Alpha  occ. eigenvalues --   -0.25975  -0.24638  -0.23445  -0.22163  -0.22111
 Alpha  occ. eigenvalues --   -0.20745  -0.18656  -0.16538  -0.12454  -0.10220
 Alpha  occ. eigenvalues --    0.04192
 Alpha virt. eigenvalues --    0.05795   0.06626   0.06793   0.07097   0.07800
 Alpha virt. eigenvalues --    0.08072   0.08499   0.09204   0.09556   0.09882
 Alpha virt. eigenvalues --    0.10236   0.10492   0.10794   0.11425   0.12036

  Beta  occ. eigenvalues --  -14.22690 -14.20394 -14.20295 -10.14438 -10.10595
  Beta  occ. eigenvalues --  -10.10169 -10.09442 -10.09339 -10.09183 -10.08807
  Beta  occ. eigenvalues --  -10.08237 -10.07836 -10.07796 -10.06951 -10.06923
  Beta  occ. eigenvalues --  -10.06770  -0.87266  -0.83215  -0.80448  -0.71447
  Beta  occ. eigenvalues --   -0.70401  -0.67473  -0.65723  -0.63495  -0.59650
  Beta  occ. eigenvalues --   -0.56018  -0.53314  -0.52909  -0.51327  -0.49254
  Beta  occ. eigenvalues --   -0.45431  -0.44619  -0.40932  -0.39131  -0.37838
  Beta  occ. eigenvalues --   -0.37078  -0.36140  -0.35582  -0.35301  -0.33707
  Beta  occ. eigenvalues --   -0.33254  -0.32525  -0.31287  -0.31163  -0.30147
  Beta  occ. eigenvalues --   -0.29714  -0.29401  -0.28954  -0.27833  -0.27169
  Beta  occ. eigenvalues --   -0.25951  -0.24610  -0.23412  -0.22133  -0.22083
  Beta  occ. eigenvalues --   -0.20728  -0.18642  -0.16529  -0.12421  -0.10190
  Beta virt. eigenvalues --    0.06197   0.06545   0.06676   0.07442   0.07592
  Beta virt. eigenvalues --    0.08070   0.08570   0.08680   0.09520   0.09756
  Beta virt. eigenvalues --    0.10236   0.10480   0.10782   0.11064   0.11636

 Mulliken charges and spin densities:
               1          2
     1  C    2.073140  -2.662819
     2  C   -0.019400   0.770305
     3  C   -1.310040   0.648328
     4  N   -0.124584   0.049268
     5  C    1.044259  -1.813412
     6  C   -0.626586   1.491942
     7  C    0.089748  -0.854269
     8  N    0.061434  -0.013940
     9  C    0.097679  -0.431636
    10  C   -0.207873   0.064341
    11  N    0.155400   0.030306
    12  C   -0.553127   0.205792
    13  C   -0.001296  -0.537816
    14  C   -0.300147   0.024889
    15  C    0.214306  -0.699862
    16  C    0.296789  -0.533061
    17  H   -0.100003   0.226409
    18  H   -0.048822   0.200257
    19  H   -0.146882   0.305460
    20  H   -0.036112   0.185776
    21  H   -0.998634   1.187803
    22  H   -0.608027   0.799092
    23  H   -0.000806   0.273565
    24  H   -0.193186   0.373929
    25  H    0.144686   0.049543
    26  H   -0.032240   0.180353
    27  H    0.190472   0.010299
    28  H    0.510470  -0.412375
    29  H    0.081240   0.094813
    30  H   -0.051778   0.209683
    31  H    0.067047   0.053389
    32  H   -0.032682   0.197924
    33  H   -0.269886   0.397744
    34  H    0.114008   0.012498
    35  H   -0.233385   0.389366
    36  H   -0.108715   0.270503
    37  H   -0.136469   0.255614
 Sum of Mulliken charges =  -1.00000   1.00000

 Dipole moment (field-independent basis, Debye):
    X=             -0.7571    Y=              2.1872    Z=             -4.6193  Tot=              5.1667
 Quadrupole moment (field-independent basis, Debye-Ang):
   XX=           -185.4912   YY=           -142.2420   ZZ=           -141.4946
   XY=              9.1847   XZ=              3.8101   YZ=              3.7660

 Summary of Natural Population Analysis:

                                       Natural Population
                Natural  -----------------------------------------------
    Atom  No    Charge         Core      Valence    Rydberg      Total
 -----------------------------------------------------------------------
      C    1   -0.28862      0.99964     2.28416    0.00482     3.28862
      C    2   -0.06249      0.99951     2.05285    0.01013     3.06249
      C    3    0.03521      0.99952     1.95226    0.01300     2.96479
      N    4   -0.26704      0.99967     2.75727    0.01009     3.76704
      C    5    0.19912      0.99954     1.78550    0.01584     2.80088
      C    6   -0.13108      0.99952     2.12155    0.01001     3.13108
      C    7   -0.07324      0.99952     2.06334    0.01038     3.07324
      N    8   -0.31190      0.99968     2.80124    0.01098     3.81190
      C    9   -0.09969      0.99961     2.08811    0.01196     3.09969
      C   10   -0.08695      0.99961     2.07652    0.01082     3.08695
      N   11   -0.28364      0.99971     2.77225    0.01168     3.78364
      C   12   -0.08232      0.99961     2.07180    0.01091     3.08232
      C   13   -0.19251      0.99963     2.18376    0.00912     3.19251
      C   14   -0.19101      0.99963     2.18332    0.00806     3.19101
      C   15   -0.19221      0.99963     2.18318    0.00940     3.19221
      C   16   -0.08506      0.99961     2.07315    0.01230     3.08506
      H   17    0.10012      0.00000     0.39877    0.00111     0.39988
      H   18    0.10188      0.00000     0.39668    0.00144     0.39812
      H   19    0.10304      0.00000     0.39542    0.00154     0.39696
      H   20    0.08589      0.00000     0.41293    0.00119     0.41411
      H   21    0.10679      0.00000     0.39106    0.00215     0.39321
      H   22    0.10269      0.00000     0.39564    0.00168     0.39731
      H   23    0.19043      0.00000     0.30582    0.00375     0.30957
      H   24    0.09645      0.00000     0.40234    0.00121     0.40355
      H   25    0.10297      0.00000     0.39559    0.00144     0.39703
      H   26    0.09135      0.00000     0.40767    0.00098     0.40865
      H   27    0.10321      0.00000     0.39535    0.00144     0.39679
      H   28    0.07727      0.00000     0.42008    0.00265     0.42273
      H   29    0.09872      0.00000     0.39980    0.00147     0.40128
      H   30    0.09925      0.00000     0.39995    0.00080     0.40075
      H   31    0.09339      0.00000     0.40520    0.00140     0.40661
      H   32    0.09654      0.00000     0.40249    0.00096     0.40346
      H   33    0.09657      0.00000     0.40181    0.00162     0.40343
      H   34    0.09329      0.00000     0.40534    0.00137     0.40671
      H   35    0.09884      0.00000     0.40018    0.00098     0.40116
      H   36    0.09597      0.00000     0.40279    0.00124     0.40403
      H   37    0.07875      0.00000     0.41887    0.00237     0.42125
 =======================================================================
   * Total *   -0.00000     15.99364    43.80408    0.20229    60.00000

 Normal termination of Gaussian 16 at Fri Dec 11 02:30:05 2020.
