 Gaussian 16, Revision A.03,

 -----------------------------------------------------------
 # opt freq B3LYP/6-31G(d) empiricaldispersion=gd3bj scf=xqc
 -----------------------------------------------------------

 ------------------------------
 CID_50947264_JID_9056_neutraal
 ------------------------------
 Symbolic Z-matrix:
 Charge =  0 Multiplicity = 1

 SCF Done:  E(RB3LYP) =  -1240.82068935     A.U. after   15 cycles
 SCF Done:  E(RB3LYP) =  -1240.82572125     A.U. after   13 cycles
 SCF Done:  E(RB3LYP) =  -1240.82603642     A.U. after   13 cycles
 SCF Done:  E(RB3LYP) =  -1240.82720683     A.U. after   12 cycles
 SCF Done:  E(RB3LYP) =  -1240.82749937     A.U. after   12 cycles
 SCF Done:  E(RB3LYP) =  -1240.82781322     A.U. after   12 cycles
 SCF Done:  E(RB3LYP) =  -1240.82798178     A.U. after   12 cycles
 SCF Done:  E(RB3LYP) =  -1240.82810857     A.U. after   11 cycles
 SCF Done:  E(RB3LYP) =  -1240.82818559     A.U. after   11 cycles
 SCF Done:  E(RB3LYP) =  -1240.82821284     A.U. after   10 cycles
 SCF Done:  E(RB3LYP) =  -1240.83065401     A.U. after   11 cycles
 SCF Done:  E(RB3LYP) =  -1240.83076268     A.U. after   11 cycles
 SCF Done:  E(RB3LYP) =  -1240.83074755     A.U. after   10 cycles
 SCF Done:  E(RB3LYP) =  -1240.83076328     A.U. after   10 cycles
 SCF Done:  E(RB3LYP) =  -1240.83076330     A.U. after    7 cycles
 Optimization completed.
    -- Stationary point found.
 Normal termination of Gaussian 16 at Sat Dec 12 10:08:56 2020.

 --------------------------------------------------------------------
 #N Geom=AllCheck Guess=TCheck SCRF=Check GenChk RB3LYP/6-31G(d) Freq
 --------------------------------------------------------------------

 Structure from the checkpoint file:  "JID_9056.chk"
 ------------------------------
 CID_50947264_JID_9056_neutraal
 ------------------------------
 Charge =  0 Multiplicity = 1

 SCF Done:  E(RB3LYP) =  -1240.83076330     A.U. after    1 cycles

  Exact polarizability: 227.290  -1.501 162.301  -0.753  15.818 138.116
 Approx polarizability: 314.572   5.016 265.812   0.186  39.006 209.381

                      1                      2                      3
                      A                      A                      A
 Frequencies --     21.6138                33.9273                42.2814
 Red. masses --      3.3051                 4.1592                 3.9765
 Frc consts  --      0.0009                 0.0028                 0.0042
 IR Inten    --      0.6920                 0.5866                 4.4004

                      4                      5                      6
                      A                      A                      A
 Frequencies --     48.4835                73.5557                80.7853
 Red. masses --      4.9719                 2.7959                 4.7845
 Frc consts  --      0.0069                 0.0089                 0.0184
 IR Inten    --      4.6888                 2.0759                 2.4658

                      7                      8                      9
                      A                      A                      A
 Frequencies --     96.2146               125.8020               134.2408
 Red. masses --      4.5400                 1.4441                 2.2724
 Frc consts  --      0.0248                 0.0135                 0.0241
 IR Inten    --      0.5514                 0.9694                 1.2607

                     10                     11                     12
                      A                      A                      A
 Frequencies --    154.8631               176.8873               195.5266
 Red. masses --      4.5175                 1.5906                 1.9212
 Frc consts  --      0.0638                 0.0293                 0.0433
 IR Inten    --      0.1009                 0.8243                 0.5281

                     13                     14                     15
                      A                      A                      A
 Frequencies --    217.6620               221.6880               230.3855
 Red. masses --      1.6363                 1.6329                 1.3051
 Frc consts  --      0.0457                 0.0473                 0.0408
 IR Inten    --      0.3118                 1.5058                 0.0433

                     16                     17                     18
                      A                      A                      A
 Frequencies --    233.1793               245.2825               276.2153
 Red. masses --      1.7852                 1.4807                 2.3266
 Frc consts  --      0.0572                 0.0525                 0.1046
 IR Inten    --      0.3567                 0.0345                 0.3822

                     19                     20                     21
                      A                      A                      A
 Frequencies --    285.1873               324.6575               331.5188
 Red. masses --      4.4638                 2.7935                 3.4145
 Frc consts  --      0.2139                 0.1735                 0.2211
 IR Inten    --      3.6491                 3.9776                 0.8855

                     22                     23                     24
                      A                      A                      A
 Frequencies --    341.4591               352.2369               413.3623
 Red. masses --      3.9486                 3.6930                 2.9615
 Frc consts  --      0.2713                 0.2700                 0.2981
 IR Inten    --      1.8295                 4.1119                 1.8140

                     25                     26                     27
                      A                      A                      A
 Frequencies --    420.5143               431.5470               436.2458
 Red. masses --      3.9500                 3.8226                 4.4717
 Frc consts  --      0.4115                 0.4194                 0.5014
 IR Inten    --      5.0870                 3.1216                 1.5781

                     28                     29                     30
                      A                      A                      A
 Frequencies --    472.0255               491.4239               500.6488
 Red. masses --      3.6649                 4.3060                 5.2229
 Frc consts  --      0.4811                 0.6127                 0.7713
 IR Inten    --      5.8662                13.2060                39.8706

                     31                     32                     33
                      A                      A                      A
 Frequencies --    541.8559               561.5758               594.7041
 Red. masses --      4.9049                 4.6700                 4.1439
 Frc consts  --      0.8485                 0.8677                 0.8635
 IR Inten    --     26.9408                11.2109                13.4338

                     34                     35                     36
                      A                      A                      A
 Frequencies --    603.5310               636.1651               692.7508
 Red. masses --      3.5445                 3.8751                 2.0170
 Frc consts  --      0.7607                 0.9240                 0.5703
 IR Inten    --     37.0810                22.5962                30.4896

                     37                     38                     39
                      A                      A                      A
 Frequencies --    719.0451               744.7370               759.7388
 Red. masses --      5.5003                 5.6880                 3.3640
 Frc consts  --      1.6755                 1.8587                 1.1440
 IR Inten    --      7.1802                98.9388                 6.1067

                     40                     41                     42
                      A                      A                      A
 Frequencies --    785.0344               835.0879               861.9522
 Red. masses --      3.4760                 3.2754                 1.6396
 Frc consts  --      1.2621                 1.3458                 0.7177
 IR Inten    --     33.3510                58.0150                29.7901

                     43                     44                     45
                      A                      A                      A
 Frequencies --    881.8738               927.6786               928.7616
 Red. masses --      2.2544                 1.3918                 3.4794
 Frc consts  --      1.0330                 0.7057                 1.7683
 IR Inten    --     17.4754                 8.0313                11.0700

                     46                     47                     48
                      A                      A                      A
 Frequencies --    944.9038               960.9378               966.9793
 Red. masses --      1.2980                 1.3659                 1.3348
 Frc consts  --      0.6828                 0.7431                 0.7353
 IR Inten    --      0.5344                 0.2463                 0.2960

                     49                     50                     51
                      A                      A                      A
 Frequencies --    991.9177               994.9830               997.5663
 Red. masses --      1.4248                 1.3584                 1.8758
 Frc consts  --      0.8259                 0.7924                 1.0998
 IR Inten    --     74.3854                 4.5462                12.3531

                     52                     53                     54
                      A                      A                      A
 Frequencies --   1032.7404              1079.9867              1084.3961
 Red. masses --      1.5504                 1.8588                 2.9639
 Frc consts  --      0.9743                 1.2774                 2.0535
 IR Inten    --      0.1560                27.7752                28.6929

                     55                     56                     57
                      A                      A                      A
 Frequencies --   1135.0902              1153.3679              1156.8299
 Red. masses --      9.4153                 1.5423                 1.6675
 Frc consts  --      7.1474                 1.2088                 1.3148
 IR Inten    --    169.4529                15.1090                 2.5482

                     58                     59                     60
                      A                      A                      A
 Frequencies --   1162.4510              1171.9013              1198.7536
 Red. masses --      2.1594                 1.4974                 2.0549
 Frc consts  --      1.7192                 1.2116                 1.7398
 IR Inten    --     10.0220                22.3490                32.1754

                     61                     62                     63
                      A                      A                      A
 Frequencies --   1200.1009              1203.0858              1234.0986
 Red. masses --      2.3813                 1.8972                 2.7508
 Frc consts  --      2.0207                 1.6179                 2.4684
 IR Inten    --     13.7347                49.3442                18.3568

                     64                     65                     66
                      A                      A                      A
 Frequencies --   1296.2376              1314.9638              1347.7402
 Red. masses --      3.6995                 1.3523                10.8218
 Frc consts  --      3.6624                 1.3777                11.5815
 IR Inten    --     10.4260                 6.4514               152.5811

                     67                     68                     69
                      A                      A                      A
 Frequencies --   1350.9113              1371.9589              1373.5927
 Red. masses --      8.4206                 1.2923                 1.2906
 Frc consts  --      9.0541                 1.4332                 1.4347
 IR Inten    --     92.6688                 1.7261                 0.6452

                     70                     71                     72
                      A                      A                      A
 Frequencies --   1373.7400              1396.1130              1429.9175
 Red. masses --      1.2635                 4.7476                 1.2671
 Frc consts  --      1.4048                 5.4521                 1.5265
 IR Inten    --     24.9283               378.1408                10.1507

                     73                     74                     75
                      A                      A                      A
 Frequencies --   1440.3468              1447.0180              1449.6672
 Red. masses --      1.5528                 2.0226                 1.3159
 Frc consts  --      1.8981                 2.4952                 1.6293
 IR Inten    --      1.3087                 6.1633                15.2545

                     76                     77                     78
                      A                      A                      A
 Frequencies --   1470.4182              1487.1568              1489.0998
 Red. masses --      1.1502                 1.0535                 1.0561
 Frc consts  --      1.4653                 1.3728                 1.3798
 IR Inten    --      3.5276                 3.9916                 2.6218

                     79                     80                     81
                      A                      A                      A
 Frequencies --   1489.8632              1503.9614              1512.8429
 Red. masses --      1.3892                 1.0570                 1.0435
 Frc consts  --      1.8168                 1.4086                 1.4071
 IR Inten    --     44.3628                 5.4479                 0.1510

                     82                     83                     84
                      A                      A                      A
 Frequencies --   1517.9063              1523.6094              1526.8781
 Red. masses --      1.0521                 1.1128                 1.1765
 Frc consts  --      1.4282                 1.5221                 1.6160
 IR Inten    --      1.6537                10.1087                14.0789

                     85                     86                     87
                      A                      A                      A
 Frequencies --   1532.9631              1536.3847              1537.1121
 Red. masses --      1.0640                 1.0871                 1.0510
 Frc consts  --      1.4731                 1.5118                 1.4631
 IR Inten    --      4.3760                 4.6362                10.4086

                     88                     89                     90
                      A                      A                      A
 Frequencies --   1551.1571              1628.5520              1663.2613
 Red. masses --      2.1335                 7.2421                 5.6900
 Frc consts  --      3.0245                11.3167                 9.2743
 IR Inten    --     16.0070                13.7237                15.7871

                     91                     92                     93
                      A                      A                      A
 Frequencies --   1763.4800              3022.8293              3044.2630
 Red. masses --      8.2544                 1.0523                 1.0366
 Frc consts  --     15.1244                 5.6651                 5.6599
 IR Inten    --    327.0723                45.9444                18.7757

                     94                     95                     96
                      A                      A                      A
 Frequencies --   3050.3150              3066.4250              3086.4020
 Red. masses --      1.0373                 1.0355                 1.0292
 Frc consts  --      5.6866                 5.7367                 5.7764
 IR Inten    --     23.9541                18.2930                 0.8831

                     97                     98                     99
                      A                      A                      A
 Frequencies --   3105.8111              3111.0274              3127.6520
 Red. masses --      1.0936                 1.1002                 1.0842
 Frc consts  --      6.2154                 6.2739                 6.2486
 IR Inten    --     11.6529                 3.1517                14.0564

                    100                    101                    102
                      A                      A                      A
 Frequencies --   3129.0472              3132.3108              3135.0986
 Red. masses --      1.1031                 1.1027                 1.0919
 Frc consts  --      6.3636                 6.3746                 6.3230
 IR Inten    --     15.4166                41.8985                42.4268

                    103                    104                    105
                      A                      A                      A
 Frequencies --   3136.6973              3139.6616              3184.2696
 Red. masses --      1.1005                 1.1033                 1.1064
 Frc consts  --      6.3795                 6.4079                 6.6096
 IR Inten    --      4.6000                14.9719                 0.7935

                    106                    107                    108
                      A                      A                      A
 Frequencies --   3184.9318              3193.2242              3196.7194
 Red. masses --      1.1028                 1.1054                 1.0907
 Frc consts  --      6.5908                 6.6411                 6.5669
 IR Inten    --      1.6626                 5.2577                15.7202

                    109                    110                    111
                      A                      A                      A
 Frequencies --   3198.9568              3227.0095              3547.4243
 Red. masses --      1.0899                 1.0932                 1.0744
 Frc consts  --      6.5713                 6.7075                 7.9663
 IR Inten    --      2.0005                 2.9184                14.5301

 - Thermochemistry -
 -------------------
 Temperature   298.150 Kelvin.  Pressure   1.00000 Atm.
 Atom     1 has atomic number  6 and mass  12.00000

 Molecular mass:   284.11946 amu.
 Principal axes and moments of inertia in atomic units:
                           1         2         3
     Eigenvalues --  2752.86979********************
           X            0.99948  -0.03208   0.00219
           Y            0.03198   0.99886   0.03554
           Z           -0.00332  -0.03545   0.99937
 This molecule is an asymmetric top.
 Rotational symmetry number  1.
 Warning -- assumption of classical behavior for rotation
           may cause significant error
 Rotational temperatures (Kelvin)      0.03146     0.00846     0.00787
 Rotational constants (GHZ):           0.65559     0.17619     0.16391
 Zero-point vibrational energy     852344.9 (Joules/Mol)
                                  203.71531 (Kcal/Mol)
 Warning -- explicit consideration of  34 degrees of freedom as
           vibrations may cause significant error
 Vibrational temperatures:     31.10    48.81    60.83    69.76   105.83
          (Kelvin)            116.23   138.43   181.00   193.14   222.81
                              254.50   281.32   313.17   318.96   331.47
                              335.49   352.91   397.41   410.32   467.11
                              476.98   491.28   506.79   594.74   605.03
                              620.90   627.66   679.14   707.05   720.32
                              779.61   807.98   855.65   868.35   915.30
                              996.71  1034.55  1071.51  1093.09  1129.49
                             1201.51  1240.16  1268.82  1334.72  1336.28
                             1359.51  1382.58  1391.27  1427.15  1431.56
                             1435.28  1485.88  1553.86  1560.20  1633.14
                             1659.44  1664.42  1672.51  1686.10  1724.74
                             1726.68  1730.97  1775.59  1865.00  1891.94
                             1939.10  1943.66  1973.94  1976.29  1976.51
                             2008.70  2057.33  2072.34  2081.94  2085.75
                             2115.60  2139.69  2142.48  2143.58  2163.87
                             2176.64  2183.93  2192.13  2196.84  2205.59
                             2210.51  2211.56  2231.77  2343.12  2393.06
                             2537.25  4349.18  4380.02  4388.72  4411.90
                             4440.64  4468.57  4476.07  4499.99  4502.00
                             4506.70  4510.71  4513.01  4517.27  4581.45
                             4582.41  4594.34  4599.37  4602.59  4642.95
                             5103.95

 Zero-point correction=                           0.324641 (Hartree/Particle)
 Thermal correction to Energy=                    0.345474
 Thermal correction to Enthalpy=                  0.346418
 Thermal correction to Gibbs Free Energy=         0.273942
 Sum of electronic and zero-point Energies=          -1240.506122
 Sum of electronic and thermal Energies=             -1240.485289
 Sum of electronic and thermal Enthalpies=           -1240.484345
 Sum of electronic and thermal Free Energies=        -1240.556822

                     E (Thermal)             CV                S
                      KCal/Mol        Cal/Mol-Kelvin    Cal/Mol-Kelvin
 Total                  216.788             76.941            152.540
 Electronic               0.000              0.000              0.000
 Translational            0.889              2.981             42.831
 Rotational               0.889              2.981             34.095
 Vibrational            215.011             70.979             75.614
 Vibration     1          0.593              1.985              6.480
 Vibration     2          0.594              1.983              5.585
 Vibration     3          0.595              1.980              5.149
 Vibration     4          0.595              1.978              4.878
 Vibration     5          0.599              1.966              4.056
 Vibration     6          0.600              1.962              3.872
 Vibration     7          0.603              1.952              3.530
 Vibration     8          0.611              1.927              3.009
 Vibration     9          0.613              1.919              2.884
 Vibration    10          0.620              1.897              2.612
 Vibration    11          0.628              1.871              2.361
 Vibration    12          0.636              1.846              2.175
 Vibration    13          0.646              1.814              1.978
 Vibration    14          0.648              1.808              1.945
 Vibration    15          0.652              1.795              1.876
 Vibration    16          0.654              1.790              1.854
 Vibration    17          0.660              1.771              1.764
 Vibration    18          0.678              1.717              1.557
 Vibration    19          0.683              1.701              1.502
 Vibration    20          0.709              1.626              1.287
 Vibration    21          0.714              1.613              1.253
 Vibration    22          0.721              1.593              1.205
 Vibration    23          0.729              1.571              1.156
 Vibration    24          0.777              1.441              0.915
 Vibration    25          0.783              1.426              0.890
 Vibration    26          0.793              1.402              0.854
 Vibration    27          0.797              1.391              0.838
 Vibration    28          0.829              1.312              0.732
 Vibration    29          0.847              1.269              0.680
 Vibration    30          0.856              1.249              0.657
 Vibration    31          0.897              1.158              0.561
 Vibration    32          0.917              1.114              0.521
 Vibration    33          0.952              1.043              0.459
 Vibration    34          0.962              1.024              0.444

                           ! Non-Optimized Parameters !
 Normal termination of Gaussian 16 at Sat Dec 12 10:27:55 2020.

 ----------------------------------------------------------------------
 # B3LYP/6-311++G(d,p) empiricaldispersion=gd3bj scf=xqc pop=npa geom=c
 heck
 ----------------------------------------------------------------------

 --------------------------------------
 CID_50947264_JID_9056_Energie_neutraal
 --------------------------------------
 Structure from the checkpoint file:  "JID_9056.chk"
 Charge =  0 Multiplicity = 1

 SCF Done:  E(RB3LYP) =  -1241.09679837     A.U. after   16 cycles
 Normal termination of Gaussian 16 at Sat Dec 12 10:35:52 2020.

 ----------------------------------------------------------------------
 # B3LYP/6-311++G(d,p) empiricaldispersion=gd3bj scf=xqc pop=npa geom=c
 heck
 ----------------------------------------------------------------------

 ------------------------------------
 CID_50947264_JID_9056_Energie_kation
 ------------------------------------
 Structure from the checkpoint file:  "JID_9056.chk"
 Charge =  1 Multiplicity = 2

 SCF Done:  E(UB3LYP) =  -1240.78725870     A.U. after   33 cycles
 SCF Done:  E(UB3LYP) =  -1240.78725871     a.u. after    2 cycles
 Normal termination of Gaussian 16 at Sat Dec 12 11:15:55 2020.
 Gaussian 16:  ES64L-G16RevA.03 25-Dec-2016

 ----------------------------------------------------------------------
 # B3LYP/6-311++G(d,p) empiricaldispersion=gd3bj scf=xqc pop=npa geom=c
 heck
 ----------------------------------------------------------------------

 -----------------------------------
 CID_50947264_JID_9056_Energie_anion
 -----------------------------------
 Structure from the checkpoint file:  "JID_9056.chk"
 Charge = -1 Multiplicity = 2

                         Standard orientation:
 ---------------------------------------------------------------------
 Center     Atomic      Atomic             Coordinates (Angstroms)
 Number     Number       Type             X           Y           Z
 ---------------------------------------------------------------------
      1          6           0       -0.772453   -1.203285   -2.148694
      2          6           0       -0.258394   -0.155548   -1.198185
      3          6           0       -1.130225    0.638640   -0.431662
      4          6           0       -0.630729    1.638612    0.411707
      5          6           0        0.737566    1.851805    0.524077
      6          6           0        1.623727    1.040968   -0.191163
      7          6           0        1.115041    0.063061   -1.052276
      8          6           0        3.091143    1.331758   -0.074285
      9          8           0        3.495227    2.487217    0.018403
     10          7           0        3.963360    0.269534   -0.131423
     11          6           0        3.735992   -1.096821    0.361589
     12          6           0        4.313024   -2.113282   -0.625869
     13          6           0        4.323648   -1.262315    1.768113
     14          7           0       -2.549318    0.441583   -0.556496
     15          6           0       -3.376848    1.610119   -0.878486
     16         16           0       -3.249814   -0.721752    0.454627
     17          8           0       -4.648422   -0.846497    0.042959
     18          8           0       -2.349459   -1.873759    0.478169
     19          6           0       -3.225291    0.000647    2.110483
     20          1           0       -1.076848   -2.100950   -1.602357
     21          1           0       -1.656744   -0.846385   -2.684622
     22          1           0       -0.001673   -1.476844   -2.875354
     23          1           0       -1.322594    2.259325    0.973416
     24          1           0        1.134801    2.639517    1.154848
     25          1           0        1.802411   -0.525652   -1.652553
     26          1           0        4.923597    0.592948   -0.054505
     27          1           0        2.655067   -1.236550    0.422166
     28          1           0        5.396482   -1.979123   -0.733038
     29          1           0        4.133452   -3.136255   -0.278223
     30          1           0        3.859826   -1.996400   -1.615264
     31          1           0        3.878836   -0.541517    2.461707
     32          1           0        4.137505   -2.272159    2.149958
     33          1           0        5.409252   -1.102134    1.758698
     34          1           0       -2.937110    2.098025   -1.751198
     35          1           0       -4.381161    1.267140   -1.126520
     36          1           0       -3.435797    2.342920   -0.060780
     37          1           0       -2.189267    0.196046    2.390741
     38          1           0       -3.815826    0.918959    2.110514
     39          1           0       -3.671432   -0.732550    2.785434
 ---------------------------------------------------------------------

 SCF Done:  E(UB3LYP) =  -1241.10223505     A.U. after   32 cycles

 The electronic state is 2-A.
 Alpha  occ. eigenvalues --  -88.94826 -19.00841 -19.00730 -18.95135 -14.23378
 Alpha  occ. eigenvalues --  -14.21059 -10.13130 -10.11541 -10.10269 -10.09928
 Alpha  occ. eigenvalues --  -10.07727 -10.07699 -10.06825 -10.05595 -10.04607
 Alpha  occ. eigenvalues --  -10.04493 -10.04267 -10.03829 -10.03508  -8.01075
 Alpha  occ. eigenvalues --   -5.97335  -5.97308  -5.97164  -1.01087  -0.90503
 Alpha  occ. eigenvalues --   -0.90270  -0.83023  -0.80624  -0.72657  -0.68007
 Alpha  occ. eigenvalues --   -0.66542  -0.65078  -0.62858  -0.60566  -0.59769
 Alpha  occ. eigenvalues --   -0.56509  -0.53021  -0.51159  -0.48486  -0.47192
 Alpha  occ. eigenvalues --   -0.44152  -0.41936  -0.39645  -0.38688  -0.38610
 Alpha  occ. eigenvalues --   -0.37219  -0.36061  -0.35593  -0.34295  -0.33795
 Alpha  occ. eigenvalues --   -0.33444  -0.32738  -0.32467  -0.31448  -0.31179
 Alpha  occ. eigenvalues --   -0.30812  -0.29866  -0.29499  -0.28846  -0.28275
 Alpha  occ. eigenvalues --   -0.28021  -0.26935  -0.25965  -0.25438  -0.24697
 Alpha  occ. eigenvalues --   -0.23270  -0.22987  -0.22208  -0.21611  -0.20153
 Alpha  occ. eigenvalues --   -0.19919  -0.15817  -0.14503  -0.13088  -0.12845
 Alpha  occ. eigenvalues --   -0.11478   0.04146
 Alpha virt. eigenvalues --    0.06442   0.06778   0.08210   0.08527   0.08960
 Alpha virt. eigenvalues --    0.09531   0.09880   0.10794   0.11026   0.11494
 Alpha virt. eigenvalues --    0.11740   0.11879   0.12204   0.12791   0.12882

  Beta  occ. eigenvalues --  -88.94788 -19.00807 -19.00728 -18.94936 -14.23384
  Beta  occ. eigenvalues --  -14.21029 -10.12993 -10.11537 -10.10240 -10.09871
  Beta  occ. eigenvalues --  -10.07727 -10.07698 -10.06476 -10.05631 -10.04606
  Beta  occ. eigenvalues --  -10.04441 -10.04260 -10.03691 -10.03249  -8.01030
  Beta  occ. eigenvalues --   -5.97301  -5.97249  -5.97128  -1.01009  -0.90219
  Beta  occ. eigenvalues --   -0.90153  -0.82813  -0.80487  -0.72356  -0.67947
  Beta  occ. eigenvalues --   -0.66404  -0.64903  -0.62411  -0.60560  -0.59613
  Beta  occ. eigenvalues --   -0.56318  -0.52562  -0.51111  -0.48353  -0.47000
  Beta  occ. eigenvalues --   -0.43998  -0.41779  -0.39533  -0.38585  -0.38530
  Beta  occ. eigenvalues --   -0.37122  -0.35991  -0.35461  -0.34178  -0.33734
  Beta  occ. eigenvalues --   -0.33339  -0.32655  -0.32385  -0.31326  -0.31065
  Beta  occ. eigenvalues --   -0.30782  -0.29714  -0.29396  -0.28736  -0.28119
  Beta  occ. eigenvalues --   -0.27753  -0.26868  -0.25681  -0.25124  -0.24494
  Beta  occ. eigenvalues --   -0.23138  -0.22525  -0.21920  -0.21562  -0.20046
  Beta  occ. eigenvalues --   -0.19828  -0.15526  -0.14066  -0.12574  -0.11944
  Beta  occ. eigenvalues --   -0.10376
  Beta virt. eigenvalues --    0.06382   0.06971   0.08190   0.08541   0.08798
  Beta virt. eigenvalues --    0.09436   0.09521   0.09987   0.10923   0.11095
  Beta virt. eigenvalues --    0.11449   0.11735   0.11854   0.12263   0.12759

 Mulliken charges and spin densities:
               1          2
     1  C   -0.529173  -0.018461
     2  C    0.271038   0.022222
     3  C   -0.274083   0.247100
     4  C   -0.264406   0.071046
     5  C   -0.150379  -0.001851
     6  C    0.432582   0.079612
     7  C   -0.730469   0.167650
     8  C   -0.293296   0.055620
     9  O   -0.378107   0.070628
    10  N   -0.064807   0.022749
    11  C   -0.154892   0.001213
    12  C   -0.489316  -0.004141
    13  C   -0.511082  -0.024063
    14  N    0.054792  -0.003024
    15  C   -0.020520  -0.244402
    16  S   -0.008154   0.320785
    17  O   -0.144395  -0.009122
    18  O   -0.165711   0.007521
    19  C    0.112059  -0.726370
    20  H    0.173081   0.010130
    21  H    0.135521   0.016410
    22  H    0.144923  -0.003111
    23  H    0.059924   0.037107
    24  H    0.165485   0.028169
    25  H    0.137333  -0.010851
    26  H    0.260204   0.002069
    27  H    0.212674  -0.018599
    28  H    0.125586   0.000709
    29  H    0.117922   0.003386
    30  H    0.143290   0.000610
    31  H    0.164492   0.007528
    32  H    0.108796   0.019032
    33  H    0.112503   0.006880
    34  H    0.149091   0.000957
    35  H    0.134365   0.051660
    36  H    0.070869   0.072360
    37  H    0.060717   0.161944
    38  H   -0.062865   0.264072
    39  H   -0.105595   0.314827
 Sum of Mulliken charges =  -1.00000   1.00000

 Dipole moment (field-independent basis, Debye):
    X=              2.0843    Y=             -2.4841    Z=             -0.7332  Tot=              3.3246
 Quadrupole moment (field-independent basis, Debye-Ang):
   XX=           -186.3388   YY=           -154.4654   ZZ=           -140.6334
   XY=            -27.8392   XZ=              5.5936   YZ=              0.1342

 Summary of Natural Population Analysis:

                                       Natural Population
                Natural  -----------------------------------------------
    Atom  No    Charge         Core      Valence    Rydberg      Total
 -----------------------------------------------------------------------
      C    1   -0.29167      0.99960     2.28759    0.00448     3.29167
      C    2   -0.01394      0.99940     2.00500    0.00954     3.01394
      C    3    0.11305      0.99941     1.87339    0.01416     2.88695
      C    4   -0.10648      0.99952     2.09797    0.00899     3.10648
      C    5   -0.08491      0.99954     2.07532    0.01005     3.08491
      C    6   -0.02372      0.99946     2.01309    0.01117     3.02372
      C    7   -0.07531      0.99950     2.06671    0.00910     3.07531
      C    8    0.35869      0.99962     1.62022    0.02148     2.64131
      O    9   -0.31145      0.99988     3.30585    0.00571     4.31145
      N   10   -0.32743      0.99967     2.81551    0.01225     3.82743
      C   11   -0.02049      0.99961     2.01113    0.00975     3.02049
      C   12   -0.28502      0.99965     2.28077    0.00459     3.28502
      C   13   -0.28748      0.99965     2.28368    0.00415     3.28748
      N   14   -0.37109      0.99969     2.85683    0.01457     3.87109
      C   15   -0.17501      0.99964     2.16827    0.00711     3.17501
      S   16    1.11492      4.99926     1.78560    0.10022     6.88508
      O   17   -0.47045      0.99990     3.46495    0.00560     4.47045
      O   18   -0.46308      0.99990     3.45736    0.00581     4.46308
      C   19   -0.39751      0.99961     2.38990    0.00800     3.39751
      H   20    0.11354      0.00000     0.38519    0.00128     0.38646
      H   21    0.10254      0.00000     0.39628    0.00118     0.39746
      H   22    0.09308      0.00000     0.40600    0.00092     0.40692
      H   23    0.09403      0.00000     0.40439    0.00158     0.40597
      H   24    0.10409      0.00000     0.39489    0.00102     0.39591
      H   25    0.09292      0.00000     0.40590    0.00117     0.40708
      H   26    0.18220      0.00000     0.31599    0.00181     0.31780
      H   27    0.11136      0.00000     0.38685    0.00179     0.38864
      H   28    0.09227      0.00000     0.40688    0.00085     0.40773
      H   29    0.09573      0.00000     0.40352    0.00076     0.40427
      H   30    0.10380      0.00000     0.39545    0.00075     0.39620
      H   31    0.10528      0.00000     0.39381    0.00091     0.39472
      H   32    0.09647      0.00000     0.40254    0.00098     0.40353
      H   33    0.09127      0.00000     0.40780    0.00092     0.40873
      H   34    0.10138      0.00000     0.39776    0.00086     0.39862
      H   35    0.10783      0.00000     0.39114    0.00103     0.39217
      H   36    0.08393      0.00000     0.41479    0.00128     0.41607
      H   37    0.12102      0.00000     0.37771    0.00128     0.37898
      H   38    0.11004      0.00000     0.38884    0.00112     0.38996
      H   39    0.11561      0.00000     0.38315    0.00123     0.38439
 =======================================================================
   * Total *    0.00002     22.99251    52.71805    0.28943    75.99998

 Normal termination of Gaussian 16 at Sat Dec 12 11:37:29 2020.
