 Gaussian 16, Revision A.03,

 -----------------------------------------------------------
 # opt freq B3LYP/6-31G(d) empiricaldispersion=gd3bj scf=xqc
 -----------------------------------------------------------

 ------------------------------
 CID_83960398_JID_2080_neutraal
 ------------------------------
 Symbolic Z-matrix:
 Charge =  0 Multiplicity = 1

 SCF Done:  E(RB3LYP) =  -540.957570633     A.U. after   12 cycles
 SCF Done:  E(RB3LYP) =  -540.960751962     A.U. after   11 cycles
 SCF Done:  E(RB3LYP) =  -540.961157704     A.U. after   11 cycles
 SCF Done:  E(RB3LYP) =  -540.961340607     A.U. after   10 cycles
 SCF Done:  E(RB3LYP) =  -540.961426137     A.U. after   10 cycles
 SCF Done:  E(RB3LYP) =  -540.961460846     A.U. after   10 cycles
 SCF Done:  E(RB3LYP) =  -540.961471552     A.U. after    9 cycles
 SCF Done:  E(RB3LYP) =  -540.961473889     A.U. after    8 cycles
 SCF Done:  E(RB3LYP) =  -540.961475319     A.U. after    8 cycles
 SCF Done:  E(RB3LYP) =  -540.961475859     A.U. after    7 cycles
 SCF Done:  E(RB3LYP) =  -540.961476261     A.U. after    7 cycles
 SCF Done:  E(RB3LYP) =  -540.961476354     A.U. after    6 cycles
 Optimization completed.
    -- Stationary point found.
 Normal termination of Gaussian 16 at Wed Dec  9 16:48:52 2020.

 --------------------------------------------------------------------
 #N Geom=AllCheck Guess=TCheck SCRF=Check GenChk RB3LYP/6-31G(d) Freq
 --------------------------------------------------------------------

 Structure from the checkpoint file:  "JID_2080.chk"
 ------------------------------
 CID_83960398_JID_2080_neutraal
 ------------------------------
 Charge =  0 Multiplicity = 1

 SCF Done:  E(RB3LYP) =  -540.961476354     A.U. after    1 cycles

  Exact polarizability: 122.123   1.338 116.252  -0.701  -0.447 102.326
 Approx polarizability: 155.005  -2.132 152.454  -2.790  -0.488 153.274

                      1                      2                      3
                      A                      A                      A
 Frequencies --     32.4870                35.1745                58.3632
 Red. masses --      3.4293                 4.4926                 3.1369
 Frc consts  --      0.0021                 0.0033                 0.0063
 IR Inten    --      0.4639                 0.2358                 0.6877

                      4                      5                      6
                      A                      A                      A
 Frequencies --     65.2383               101.4026               156.9057
 Red. masses --      3.0241                 2.9052                 2.6339
 Frc consts  --      0.0076                 0.0176                 0.0382
 IR Inten    --      0.5113                 2.7766                 1.0575

                      7                      8                      9
                      A                      A                      A
 Frequencies --    174.9179               176.5202               214.8914
 Red. masses --      3.4792                 2.9334                 2.2819
 Frc consts  --      0.0627                 0.0539                 0.0621
 IR Inten    --      5.9673                 1.1622                 1.6694

                     10                     11                     12
                      A                      A                      A
 Frequencies --    233.9367               244.0230               261.7321
 Red. masses --      1.0515                 1.4967                 1.2630
 Frc consts  --      0.0339                 0.0525                 0.0510
 IR Inten    --      0.0743                45.0459                 1.7699

                     13                     14                     15
                      A                      A                      A
 Frequencies --    297.7967               314.1644               325.8841
 Red. masses --      1.2678                 1.6661                 1.7082
 Frc consts  --      0.0662                 0.0969                 0.1069
 IR Inten    --     79.6673                13.3954                 9.2853

                     16                     17                     18
                      A                      A                      A
 Frequencies --    338.3868               373.8964               412.9777
 Red. masses --      2.1599                 2.0955                 2.1092
 Frc consts  --      0.1457                 0.1726                 0.2119
 IR Inten    --      7.3616                 5.9739                 3.0900

                     19                     20                     21
                      A                      A                      A
 Frequencies --    445.0891               477.4462               480.9153
 Red. masses --      2.0365                 2.0311                 2.7111
 Frc consts  --      0.2377                 0.2728                 0.3694
 IR Inten    --     11.0511                 2.7582                 0.9137

                     22                     23                     24
                      A                      A                      A
 Frequencies --    550.3339               616.6275               743.2485
 Red. masses --      2.6154                 2.5283                 1.2336
 Frc consts  --      0.4667                 0.5664                 0.4015
 IR Inten    --      0.3992                17.5423                47.4352

                     25                     26                     27
                      A                      A                      A
 Frequencies --    783.9521               829.1452               838.8729
 Red. masses --      1.7483                 2.4371                 2.7633
 Frc consts  --      0.6331                 0.9871                 1.1457
 IR Inten    --     18.8262                 1.0119                 3.7992

                     28                     29                     30
                      A                      A                      A
 Frequencies --    853.3486               905.1835               939.3936
 Red. masses --      2.4597                 1.4864                 1.3616
 Frc consts  --      1.0553                 0.7176                 0.7079
 IR Inten    --     12.3487                34.1836                21.8047

                     31                     32                     33
                      A                      A                      A
 Frequencies --    946.2777               957.8170               963.8534
 Red. masses --      1.8044                 1.5251                 1.8753
 Frc consts  --      0.9520                 0.8244                 1.0265
 IR Inten    --     47.0029                73.0624                24.9350

                     34                     35                     36
                      A                      A                      A
 Frequencies --    978.0820               989.7998               995.7462
 Red. masses --      1.5916                 1.6134                 1.5755
 Frc consts  --      0.8971                 0.9313                 0.9204
 IR Inten    --      9.6944                31.0342                10.4982

                     37                     38                     39
                      A                      A                      A
 Frequencies --   1051.7264              1078.2135              1092.7023
 Red. masses --      1.9572                 1.9008                 2.8037
 Frc consts  --      1.2755                 1.3020                 1.9724
 IR Inten    --      7.9257                 7.8499                74.9602

                     40                     41                     42
                      A                      A                      A
 Frequencies --   1105.4780              1116.6791              1139.7640
 Red. masses --      2.1977                 1.7049                 2.1380
 Frc consts  --      1.5824                 1.2526                 1.6364
 IR Inten    --      5.7041                13.4556                74.5157

                     43                     44                     45
                      A                      A                      A
 Frequencies --   1162.5772              1172.0261              1208.3311
 Red. masses --      1.4140                 2.1003                 1.7097
 Frc consts  --      1.1260                 1.6999                 1.4708
 IR Inten    --     11.2652                18.3194                 3.9344

                     46                     47                     48
                      A                      A                      A
 Frequencies --   1215.9818              1234.9908              1236.4697
 Red. masses --      1.5739                 1.5381                 1.3831
 Frc consts  --      1.3711                 1.3822                 1.2459
 IR Inten    --     23.4777                 0.6385                 2.1940

                     49                     50                     51
                      A                      A                      A
 Frequencies --   1287.6871              1294.9905              1335.0839
 Red. masses --      1.3934                 1.2052                 1.2699
 Frc consts  --      1.3613                 1.1908                 1.3336
 IR Inten    --      1.2693                 1.4411                 7.9312

                     52                     53                     54
                      A                      A                      A
 Frequencies --   1347.4211              1372.2017              1386.9065
 Red. masses --      1.3200                 1.4350                 1.2990
 Frc consts  --      1.4120                 1.5919                 1.4722
 IR Inten    --      4.5854                12.8179                 3.0844

                     55                     56                     57
                      A                      A                      A
 Frequencies --   1391.1714              1398.6597              1403.1331
 Red. masses --      1.3417                 1.4522                 1.3608
 Frc consts  --      1.5299                 1.6738                 1.5785
 IR Inten    --     11.6295                 0.8445                 7.7291

                     58                     59                     60
                      A                      A                      A
 Frequencies --   1408.7121              1418.5490              1430.3383
 Red. masses --      1.2803                 1.2795                 1.2813
 Frc consts  --      1.4970                 1.5170                 1.5444
 IR Inten    --     31.5301                 6.2618                 6.3541

                     61                     62                     63
                      A                      A                      A
 Frequencies --   1440.6988              1443.6289              1449.9743
 Red. masses --      1.3021                 1.3951                 1.2453
 Frc consts  --      1.5923                 1.7130                 1.5425
 IR Inten    --     31.8963                 8.6717                 2.7153

                     64                     65                     66
                      A                      A                      A
 Frequencies --   1501.1847              1509.0977              1517.5609
 Red. masses --      1.1024                 1.1261                 1.0629
 Frc consts  --      1.4637                 1.5110                 1.4422
 IR Inten    --      7.2284                13.5628                 2.0294

                     67                     68                     69
                      A                      A                      A
 Frequencies --   1519.6234              1522.6785              1532.9115
 Red. masses --      1.0763                 1.0810                 1.0865
 Frc consts  --      1.4644                 1.4767                 1.5043
 IR Inten    --      3.0343                 2.3193                 6.5413

                     70                     71                     72
                      A                      A                      A
 Frequencies --   1535.5278              1538.1966              1540.9083
 Red. masses --      1.0706                 1.0842                 1.0971
 Frc consts  --      1.4872                 1.5115                 1.5348
 IR Inten    --      1.4998                 1.4625                24.1015

                     73                     74                     75
                      A                      A                      A
 Frequencies --   1541.7198              1705.7902              2967.3165
 Red. masses --      1.0511                 1.0871                 1.0706
 Frc consts  --      1.4720                 1.8636                 5.5542
 IR Inten    --      8.3509                17.8531                58.2273

                     76                     77                     78
                      A                      A                      A
 Frequencies --   2982.7987              3001.6222              3024.5974
 Red. masses --      1.0730                 1.0814                 1.0663
 Frc consts  --      5.6248                 5.7406                 5.7476
 IR Inten    --     93.2510                32.6733                18.3482

                     79                     80                     81
                      A                      A                      A
 Frequencies --   3033.2067              3038.1429              3043.7340
 Red. masses --      1.0645                 1.0361                 1.0378
 Frc consts  --      5.7703                 5.6346                 5.6649
 IR Inten    --     42.2733                31.1594                15.9806

                     82                     83                     84
                      A                      A                      A
 Frequencies --   3045.8994              3049.8783              3056.0926
 Red. masses --      1.0633                 1.0873                 1.0840
 Frc consts  --      5.8122                 5.9590                 5.9651
 IR Inten    --     17.2738                37.3458                38.2610

                     85                     86                     87
                      A                      A                      A
 Frequencies --   3078.1298              3079.6489              3090.1945
 Red. masses --      1.0978                 1.0961                 1.1037
 Frc consts  --      6.1284                 6.1250                 6.2098
 IR Inten    --     41.6469                42.0752                55.8934

                     88                     89                     90
                      A                      A                      A
 Frequencies --   3102.6076              3107.1041              3108.5043
 Red. masses --      1.1018                 1.1016                 1.0915
 Frc consts  --      6.2491                 6.2658                 6.2138
 IR Inten    --      8.8145                58.1355                33.1267

                     91                     92                     93
                      A                      A                      A
 Frequencies --   3111.0232              3116.6033              3440.1010
 Red. masses --      1.1018                 1.1011                 1.0496
 Frc consts  --      6.2831                 6.3017                 7.3181
 IR Inten    --     59.0761                44.4724                 4.5108

                     94                     95                     96
                      A                      A                      A
 Frequencies --   3497.0531              3523.0540              3752.8259
 Red. masses --      1.0731                 1.0910                 1.0660
 Frc consts  --      7.7320                 7.9781                 8.8459
 IR Inten    --      1.4784                 2.7118                 5.8204

 - Thermochemistry -
 -------------------
 Temperature   298.150 Kelvin.  Pressure   1.00000 Atm.
 Atom     1 has atomic number  6 and mass  12.00000

 Molecular mass:   174.17321 amu.
 Principal axes and moments of inertia in atomic units:
                           1         2         3
     Eigenvalues --  1798.657393532.059624560.74870
           X            0.99930   0.03714   0.00362
           Y           -0.03715   0.99931   0.00258
           Z           -0.00352  -0.00271   0.99999
 This molecule is an asymmetric top.
 Rotational symmetry number  1.
 Warning -- assumption of classical behavior for rotation
           may cause significant error
 Rotational temperatures (Kelvin)      0.04815     0.02452     0.01899
 Rotational constants (GHZ):           1.00338     0.51096     0.39571
 Zero-point vibrational energy     831125.1 (Joules/Mol)
                                  198.64366 (Kcal/Mol)
 Warning -- explicit consideration of  23 degrees of freedom as
           vibrations may cause significant error
 Vibrational temperatures:     46.74    50.61    83.97    93.86   145.90
          (Kelvin)            225.75   251.67   253.97   309.18   336.58
                              351.09   376.57   428.46   452.01   468.87
                              486.86   537.95   594.18   640.38   686.94
                              691.93   791.81   887.19  1069.37  1127.93
                             1192.95  1206.95  1227.78  1302.36  1351.58
                             1361.48  1378.09  1386.77  1407.24  1424.10
                             1432.66  1513.20  1551.31  1572.15  1590.54
                             1606.65  1639.87  1672.69  1686.28  1738.52
                             1749.53  1776.88  1779.00  1852.69  1863.20
                             1920.89  1938.64  1974.29  1995.45  2001.59
                             2012.36  2018.80  2026.82  2040.98  2057.94
                             2072.84  2077.06  2086.19  2159.87  2171.25
                             2183.43  2186.40  2190.79  2205.52  2209.28
                             2213.12  2217.02  2218.19  2454.25  4269.31
                             4291.58  4318.66  4351.72  4364.11  4371.21
                             4379.25  4382.37  4388.09  4397.04  4428.74
                             4430.93  4446.10  4463.96  4470.43  4472.44
                             4476.07  4484.10  4949.54  5031.48  5068.89
                             5399.48

 Zero-point correction=                           0.316559 (Hartree/Particle)
 Thermal correction to Energy=                    0.331782
 Thermal correction to Enthalpy=                  0.332726
 Thermal correction to Gibbs Free Energy=         0.273568
 Sum of electronic and zero-point Energies=           -540.644918
 Sum of electronic and thermal Energies=              -540.629695
 Sum of electronic and thermal Enthalpies=            -540.628751
 Sum of electronic and thermal Free Energies=         -540.687908

                     E (Thermal)             CV                S
                      KCal/Mol        Cal/Mol-Kelvin    Cal/Mol-Kelvin
 Total                  208.196             56.096            124.507
 Electronic               0.000              0.000              0.000
 Translational            0.889              2.981             41.372
 Rotational               0.889              2.981             31.738
 Vibrational            206.419             50.134             51.397
 Vibration     1          0.594              1.983              5.671
 Vibration     2          0.594              1.982              5.514
 Vibration     3          0.596              1.974              4.512
 Vibration     4          0.597              1.971              4.292
 Vibration     5          0.604              1.948              3.427
 Vibration     6          0.621              1.895              2.587
 Vibration     7          0.627              1.873              2.382
 Vibration     8          0.628              1.871              2.365
 Vibration     9          0.645              1.818              2.002
 Vibration    10          0.654              1.789              1.849
 Vibration    11          0.659              1.773              1.773
 Vibration    12          0.669              1.743              1.650
 Vibration    13          0.691              1.678              1.429
 Vibration    14          0.702              1.647              1.340
 Vibration    15          0.710              1.624              1.280
 Vibration    16          0.719              1.599              1.220
 Vibration    17          0.745              1.526              1.064
 Vibration    18          0.777              1.442              0.916
 Vibration    19          0.804              1.372              0.811
 Vibration    20          0.834              1.300              0.717
 Vibration    21          0.837              1.292              0.708
 Vibration    22          0.906              1.139              0.543
 Vibration    23          0.976              0.997              0.422

 Optimization completed.
    -- Stationary point found.
 Normal termination of Gaussian 16 at Wed Dec  9 16:57:19 2020.

 ----------------------------------------------------------------------
 # B3LYP/6-311++G(d,p) empiricaldispersion=gd3bj scf=xqc pop=npa geom=c
 heck
 ----------------------------------------------------------------------

 --------------------------------------
 CID_83960398_JID_2080_Energie_neutraal
 --------------------------------------
 Structure from the checkpoint file:  "JID_2080.chk"
 Charge =  0 Multiplicity = 1

 SCF Done:  E(RB3LYP) =  -541.139438196     A.U. after   13 cycles
 Normal termination of Gaussian 16 at Wed Dec  9 17:01:01 2020.

 ----------------------------------------------------------------------
 # B3LYP/6-311++G(d,p) empiricaldispersion=gd3bj scf=xqc pop=npa geom=c
 heck
 ----------------------------------------------------------------------

 ------------------------------------
 CID_83960398_JID_2080_Energie_kation
 ------------------------------------
 Structure from the checkpoint file:  "JID_2080.chk"
 Charge =  1 Multiplicity = 2

 SCF Done:  E(UB3LYP) =  -540.829042171     A.U. after   24 cycles
 Normal termination of Gaussian 16 at Wed Dec  9 17:09:08 2020.
 Gaussian 16:  ES64L-G16RevA.03 25-Dec-2016

 ----------------------------------------------------------------------
 # B3LYP/6-311++G(d,p) empiricaldispersion=gd3bj scf=xqc pop=npa geom=c
 heck
 ----------------------------------------------------------------------

 -----------------------------------
 CID_83960398_JID_2080_Energie_anion
 -----------------------------------
 Structure from the checkpoint file:  "JID_2080.chk"
 Charge = -1 Multiplicity = 2

                         Standard orientation:
 ---------------------------------------------------------------------
 Center     Atomic      Atomic             Coordinates (Angstroms)
 Number     Number       Type             X           Y           Z
 ---------------------------------------------------------------------
      1          6           0       -2.632285   -1.260870    1.388930
      2          6           0       -1.879187   -1.189859    0.054456
      3          6           0       -2.364239   -2.290125   -0.897993
      4          6           0       -2.014921    0.186937   -0.617866
      5          6           0       -1.515288    1.400670    0.184606
      6          6           0       -0.064262    1.232844    0.678126
      7          7           0        0.851012    1.094408   -0.454216
      8          6           0        2.270938    1.206507   -0.121794
      9          6           0        2.839002    0.164592    0.860511
     10          6           0        2.709946   -1.277742    0.369216
     11          8           0        3.454332   -1.534986   -0.817464
     12          7           0       -1.705069    2.598238   -0.644804
     13          1           0       -3.696499   -1.035681    1.242835
     14          1           0       -2.239057   -0.548851    2.122235
     15          1           0       -2.559869   -2.262853    1.827259
     16          1           0       -0.813857   -1.378714    0.259763
     17          1           0       -3.428950   -2.160655   -1.129614
     18          1           0       -1.813531   -2.268809   -1.845868
     19          1           0       -2.236787   -3.284664   -0.455210
     20          1           0       -1.486251    0.168520   -1.582215
     21          1           0       -3.067970    0.369251   -0.865230
     22          1           0       -2.150207    1.516681    1.071887
     23          1           0        0.226208    2.141206    1.222954
     24          1           0       -0.002553    0.402190    1.402627
     25          1           0        0.673288    0.206979   -0.920043
     26          1           0        2.837097    1.165705   -1.062515
     27          1           0        2.436686    2.211511    0.285146
     28          1           0        3.900859    0.382964    1.029999
     29          1           0        2.333647    0.252748    1.831106
     30          1           0        3.111685   -1.965474    1.119125
     31          1           0        1.647081   -1.540655    0.231941
     32          1           0        3.071145   -1.004072   -1.531656
     33          1           0       -1.542162    3.427298   -0.072872
     34          1           0       -0.954492    2.599011   -1.337945
 ---------------------------------------------------------------------

 SCF Done:  E(UB3LYP) =  -541.127253122     A.U. after   27 cycles

 The electronic state is 2-A.
 Alpha  occ. eigenvalues --  -19.02174 -14.19937 -14.18645 -10.11492 -10.09492
 Alpha  occ. eigenvalues --  -10.09383 -10.08772 -10.07636 -10.06598 -10.06078
 Alpha  occ. eigenvalues --  -10.06021 -10.06011  -0.92237  -0.81555  -0.77718
 Alpha  occ. eigenvalues --   -0.70900  -0.66791  -0.62525  -0.58876  -0.58574
 Alpha  occ. eigenvalues --   -0.55747  -0.49847  -0.48406  -0.45425  -0.41271
 Alpha  occ. eigenvalues --   -0.40286  -0.39102  -0.36634  -0.35408  -0.35127
 Alpha  occ. eigenvalues --   -0.34406  -0.33729  -0.32746  -0.31044  -0.30289
 Alpha  occ. eigenvalues --   -0.29241  -0.28608  -0.28042  -0.26578  -0.26145
 Alpha  occ. eigenvalues --   -0.25220  -0.24278  -0.23124  -0.22807  -0.22270
 Alpha  occ. eigenvalues --   -0.21747  -0.17756  -0.14500  -0.13021   0.04350
 Alpha virt. eigenvalues --    0.06468   0.06708   0.07596   0.08695   0.08890
 Alpha virt. eigenvalues --    0.09374   0.09574   0.10477   0.11181   0.11440
 Alpha virt. eigenvalues --    0.11828   0.12139   0.12833   0.13028   0.13729

  Beta  occ. eigenvalues --  -19.02136 -14.19917 -14.18629 -10.11468 -10.09482
  Beta  occ. eigenvalues --  -10.09355 -10.08749 -10.07625 -10.06583 -10.06067
  Beta  occ. eigenvalues --  -10.05995 -10.05985  -0.92154  -0.81520  -0.77681
  Beta  occ. eigenvalues --   -0.70871  -0.66736  -0.62479  -0.58823  -0.58515
  Beta  occ. eigenvalues --   -0.55671  -0.49793  -0.48334  -0.45376  -0.41197
  Beta  occ. eigenvalues --   -0.40240  -0.39050  -0.36591  -0.35348  -0.35085
  Beta  occ. eigenvalues --   -0.34363  -0.33682  -0.32711  -0.31007  -0.30246
  Beta  occ. eigenvalues --   -0.29212  -0.28577  -0.28009  -0.26537  -0.26105
  Beta  occ. eigenvalues --   -0.25177  -0.24238  -0.23089  -0.22780  -0.22233
  Beta  occ. eigenvalues --   -0.21715  -0.17708  -0.14474  -0.12995
  Beta virt. eigenvalues --    0.06545   0.07388   0.07458   0.08034   0.09137
  Beta virt. eigenvalues --    0.09198   0.09758   0.09966   0.10739   0.11505
  Beta virt. eigenvalues --    0.11851   0.12187   0.12246   0.13001   0.13269

 Mulliken charges and spin densities:
               1          2
     1  C    0.306479  -0.968245
     2  C   -1.026553   1.496769
     3  C    0.325193  -0.925534
     4  C    0.521725  -1.026170
     5  C    0.582892  -0.879821
     6  C   -0.468755  -0.274520
     7  N   -0.167156   0.154658
     8  C    0.292455  -0.633115
     9  C   -0.558525   0.438516
    10  C    1.069858  -1.546700
    11  O   -0.253963   0.019956
    12  N   -0.287484   0.087621
    13  H   -0.006013   0.149274
    14  H   -0.250546   0.382300
    15  H   -0.246928   0.385140
    16  H    0.639629  -0.542701
    17  H    0.004368   0.120273
    18  H   -0.164124   0.304304
    19  H   -0.156718   0.301091
    20  H   -0.081412   0.259137
    21  H    0.190461  -0.021279
    22  H   -0.029042   0.225030
    23  H   -0.494734   0.670252
    24  H    0.494329  -0.354071
    25  H    0.044443   0.212715
    26  H   -0.305620   0.470365
    27  H   -0.133779   0.280033
    28  H   -0.128593   0.311433
    29  H   -0.265742   0.402119
    30  H   -0.094951   0.259779
    31  H   -0.602696   0.774188
    32  H    0.005108   0.244139
    33  H    0.023099   0.204235
    34  H    0.223292   0.018829
 Sum of Mulliken charges =  -1.00000   1.00000

 Dipole moment (field-independent basis, Debye):
    X=             -1.3579    Y=              0.8339    Z=              0.2060  Tot=              1.6067
 Quadrupole moment (field-independent basis, Debye-Ang):
   XX=           -140.3768   YY=           -130.7232   ZZ=           -116.9376
   XY=              3.2105   XZ=              3.6458   YZ=             -1.8560

 Summary of Natural Population Analysis:

                                       Natural Population
                Natural  -----------------------------------------------
    Atom  No    Charge         Core      Valence    Rydberg      Total
 -----------------------------------------------------------------------
      C    1   -0.28554      0.99965     2.27969    0.00620     3.28554
      C    2   -0.12139      0.99961     2.11146    0.01032     3.12139
      C    3   -0.27938      0.99965     2.27475    0.00498     3.27938
      C    4   -0.19167      0.99959     2.18257    0.00951     3.19167
      C    5   -0.01560      0.99960     2.00322    0.01279     3.01560
      C    6   -0.09652      0.99959     2.08504    0.01189     3.09652
      N    7   -0.35010      0.99975     2.83777    0.01259     3.85010
      C    8   -0.08754      0.99962     2.07551    0.01241     3.08754
      C    9   -0.21333      0.99962     2.20675    0.00696     3.21333
      C   10   -0.01149      0.99959     1.99956    0.01233     3.01149
      O   11   -0.36961      0.99990     3.36268    0.00703     4.36961
      N   12   -0.42361      0.99977     2.91394    0.00989     3.92361
      H   13    0.09508      0.00000     0.40401    0.00091     0.40492
      H   14    0.09983      0.00000     0.39900    0.00118     0.40017
      H   15    0.09983      0.00000     0.39925    0.00092     0.40017
      H   16    0.09124      0.00000     0.40518    0.00358     0.40876
      H   17    0.09404      0.00000     0.40497    0.00100     0.40596
      H   18    0.10027      0.00000     0.39856    0.00117     0.39973
      H   19    0.09906      0.00000     0.39993    0.00100     0.40094
      H   20    0.09778      0.00000     0.40095    0.00127     0.40222
      H   21    0.10215      0.00000     0.39657    0.00128     0.39785
      H   22    0.09098      0.00000     0.40744    0.00158     0.40902
      H   23    0.09412      0.00000     0.40413    0.00175     0.40588
      H   24    0.08361      0.00000     0.41436    0.00203     0.41639
      H   25    0.17282      0.00000     0.32263    0.00455     0.32718
      H   26    0.09104      0.00000     0.40752    0.00144     0.40896
      H   27    0.09514      0.00000     0.40330    0.00156     0.40486
      H   28    0.09979      0.00000     0.39895    0.00126     0.40021
      H   29    0.09975      0.00000     0.39893    0.00132     0.40025
      H   30    0.08634      0.00000     0.41235    0.00131     0.41366
      H   31    0.07471      0.00000     0.42287    0.00241     0.42529
      H   32    0.22832      0.00000     0.26739    0.00429     0.27168
      H   33    0.17164      0.00000     0.32672    0.00163     0.32836
      H   34    0.17825      0.00000     0.31939    0.00236     0.32175
 =======================================================================
   * Total *    0.00000     11.99595    36.84733    0.15672    49.00000

 Normal termination of Gaussian 16 at Wed Dec  9 17:18:35 2020.
