 Gaussian 16, Revision A.03,

 -----------------------------------------------------------
 # opt freq B3LYP/6-31G(d) empiricaldispersion=gd3bj scf=xqc
 -----------------------------------------------------------

 ------------------------------
 CID_23616492_JID_3989_neutraal
 ------------------------------
 Symbolic Z-matrix:
 Charge =  0 Multiplicity = 1

 SCF Done:  E(RB3LYP) =  -925.581837461     A.U. after   15 cycles
 SCF Done:  E(RB3LYP) =  -925.586588399     A.U. after   13 cycles
 SCF Done:  E(RB3LYP) =  -925.586410376     A.U. after   13 cycles
 SCF Done:  E(RB3LYP) =  -925.585167781     A.U. after   14 cycles
 SCF Done:  E(RB3LYP) =  -925.585223528     A.U. after   13 cycles
 SCF Done:  E(RB3LYP) =  -925.586824276     A.U. after   11 cycles
 SCF Done:  E(RB3LYP) =  -925.587029616     A.U. after   12 cycles
 SCF Done:  E(RB3LYP) =  -925.586975739     A.U. after   13 cycles
 SCF Done:  E(RB3LYP) =  -925.587168362     A.U. after   11 cycles
 SCF Done:  E(RB3LYP) =  -925.587188549     A.U. after   11 cycles
 SCF Done:  E(RB3LYP) =  -925.587186575     A.U. after   10 cycles
 SCF Done:  E(RB3LYP) =  -925.587185482     A.U. after   10 cycles
 SCF Done:  E(RB3LYP) =  -925.587186596     A.U. after   10 cycles
 SCF Done:  E(RB3LYP) =  -925.587185314     A.U. after   10 cycles
 SCF Done:  E(RB3LYP) =  -925.587186497     A.U. after    9 cycles
 SCF Done:  E(RB3LYP) =  -925.587186597     A.U. after    8 cycles
 Optimization completed on the basis of negligible forces.
    -- Stationary point found.
 Normal termination of Gaussian 16 at Mon Dec 14 18:43:53 2020.

 --------------------------------------------------------------------
 #N Geom=AllCheck Guess=TCheck SCRF=Check GenChk RB3LYP/6-31G(d) Freq
 --------------------------------------------------------------------

 Structure from the checkpoint file:  "JID_3989.chk"
 ------------------------------
 CID_23616492_JID_3989_neutraal
 ------------------------------
 Charge =  0 Multiplicity = 1

 SCF Done:  E(RB3LYP) =  -925.587186597     A.U. after    1 cycles

  Exact polarizability: 132.709   2.112  98.456   0.001  -0.001 100.788
 Approx polarizability: 193.902   2.190 164.833   0.001  -0.003 172.631

                      1                      2                      3
                      A                      A                      A
 Frequencies --     34.9307                72.2820                99.3453
 Red. masses --      7.2473                 9.7393                11.2476
 Frc consts  --      0.0052                 0.0300                 0.0654
 IR Inten    --      1.4514                 4.1693                 4.9795

                      4                      5                      6
                      A                      A                      A
 Frequencies --    116.7296               141.9225               143.7678
 Red. masses --     12.8681                 7.2674                10.9211
 Frc consts  --      0.1033                 0.0862                 0.1330
 IR Inten    --      0.0134                 6.0136                11.7149

                      7                      8                      9
                      A                      A                      A
 Frequencies --    163.9740               188.1467               190.9530
 Red. masses --      8.2568                 4.0310                 8.1894
 Frc consts  --      0.1308                 0.0841                 0.1759
 IR Inten    --      6.0973                 0.0193                10.3143

                     10                     11                     12
                      A                      A                      A
 Frequencies --    234.1251               246.9382               277.0075
 Red. masses --      3.1854                 4.2843                 1.0761
 Frc consts  --      0.1029                 0.1539                 0.0486
 IR Inten    --      0.6267                 0.0559                 0.0028

                     13                     14                     15
                      A                      A                      A
 Frequencies --    286.1666               306.1861               323.3913
 Red. masses --      1.1558                 3.8993                 4.2028
 Frc consts  --      0.0558                 0.2154                 0.2590
 IR Inten    --      0.5958                 1.9783                 0.0849

                     16                     17                     18
                      A                      A                      A
 Frequencies --    419.4663               457.4315               488.8532
 Red. masses --     11.7594                 8.4511                 7.0150
 Frc consts  --      1.2191                 1.0419                 0.9877
 IR Inten    --      2.9659                 0.5932                 0.2265

                     19                     20                     21
                      A                      A                      A
 Frequencies --    501.3351               508.5787               521.8682
 Red. masses --     10.8376                10.0682                 9.8612
 Frc consts  --      1.6049                 1.5343                 1.5824
 IR Inten    --      0.1687                 0.4286                 0.0087

                     22                     23                     24
                      A                      A                      A
 Frequencies --    585.0400               586.0277               620.8764
 Red. masses --     12.3103                12.2677                 5.7262
 Frc consts  --      2.4825                 2.4823                 1.3005
 IR Inten    --      0.0769                 0.1447                 3.3285

                     25                     26                     27
                      A                      A                      A
 Frequencies --    628.6304               819.9493               820.5321
 Red. masses --      5.9079                 4.0918                 4.0801
 Frc consts  --      1.3755                 1.6208                 1.6185
 IR Inten    --      1.1247                17.1703                 0.5606

                     28                     29                     30
                      A                      A                      A
 Frequencies --    945.1239               957.2195              1061.0611
 Red. masses --      2.1154                 1.9844                 4.2809
 Frc consts  --      1.1133                 1.0713                 2.8396
 IR Inten    --      1.8449                 0.2942                12.8818

                     31                     32                     33
                      A                      A                      A
 Frequencies --   1068.2666              1135.3241              1142.8037
 Red. masses --      4.0768                 1.9724                 2.0235
 Frc consts  --      2.7411                 1.4979                 1.5570
 IR Inten    --      1.4213                48.4443                 5.1245

                     34                     35                     36
                      A                      A                      A
 Frequencies --   1201.5017              1215.1606              1437.4974
 Red. masses --      2.6500                 2.9077                 1.1785
 Frc consts  --      2.2540                 2.5297                 1.4348
 IR Inten    --     18.3738                15.9102                 3.8790

                     37                     38                     39
                      A                      A                      A
 Frequencies --   1443.3795              1506.6573              1510.0116
 Red. masses --      1.1740                 1.0448                 1.0435
 Frc consts  --      1.4411                 1.3973                 1.4018
 IR Inten    --      2.0200                20.2392                 0.8366

                     40                     41                     42
                      A                      A                      A
 Frequencies --   1517.8735              1521.6232              2366.7671
 Red. masses --      1.0454                 1.0485                12.6991
 Frc consts  --      1.4191                 1.4303                41.9115
 IR Inten    --      5.0754                11.3285                 0.6093

                     43                     44                     45
                      A                      A                      A
 Frequencies --   2366.9549              2371.9541              2373.6545
 Red. masses --     12.7000                12.6960                12.6961
 Frc consts  --     41.9211                42.0853                42.1460
 IR Inten    --      0.0535                 0.3578                 0.3553

                     46                     47                     48
                      A                      A                      A
 Frequencies --   3088.5096              3089.0968              3169.6998
 Red. masses --      1.0351                 1.0354                 1.1027
 Frc consts  --      5.8177                 5.8214                 6.5273
 IR Inten    --      0.7373                 3.2979                 5.7317

                     49                     50                     51
                      A                      A                      A
 Frequencies --   3170.4403              3191.7833              3193.0176
 Red. masses --      1.1026                 1.1054                 1.1050
 Frc consts  --      6.5297                 6.6348                 6.6379
 IR Inten    --      0.0005                 2.0270                 1.9965

 - Thermochemistry -
 -------------------
 Temperature   298.150 Kelvin.  Pressure   1.00000 Atm.
 Atom     1 has atomic number  6 and mass  12.00000

 Molecular mass:   190.03132 amu.
 Principal axes and moments of inertia in atomic units:
                           1         2         3
     Eigenvalues --  1660.993523626.599793629.23735
           X            0.99972  -0.00002   0.02366
           Y           -0.02366  -0.00112   0.99972
           Z           -0.00001   1.00000   0.00112
 This molecule is an asymmetric top.
 Rotational symmetry number  1.
 Warning -- assumption of classical behavior for rotation
           may cause significant error
 Rotational temperatures (Kelvin)      0.05215     0.02388     0.02387
 Rotational constants (GHZ):           1.08654     0.49764     0.49728
 Zero-point vibrational energy     333936.6 (Joules/Mol)
                                   79.81276 (Kcal/Mol)
 Warning -- explicit consideration of  23 degrees of freedom as
           vibrations may cause significant error
 Vibrational temperatures:     50.26   104.00   142.94   167.95   204.19
          (Kelvin)            206.85   235.92   270.70   274.74   336.85
                              355.29   398.55   411.73   440.53   465.29
                              603.52   658.14   703.35   721.31   731.73
                              750.85   841.74   843.16   893.30   904.46
                             1179.72  1180.56  1359.82  1377.23  1526.63
                             1537.00  1633.48  1644.24  1728.69  1748.35
                             2068.24  2076.70  2167.74  2172.57  2183.88
                             2189.28  3405.25  3405.52  3412.71  3415.16
                             4443.68  4444.52  4560.49  4561.56  4592.26
                             4594.04

 Zero-point correction=                           0.127190 (Hartree/Particle)
 Thermal correction to Energy=                    0.141353
 Thermal correction to Enthalpy=                  0.142297
 Thermal correction to Gibbs Free Energy=         0.086142
 Sum of electronic and zero-point Energies=           -925.459997
 Sum of electronic and thermal Energies=              -925.445833
 Sum of electronic and thermal Enthalpies=            -925.444889
 Sum of electronic and thermal Free Energies=         -925.501044

                     E (Thermal)             CV                S
                      KCal/Mol        Cal/Mol-Kelvin    Cal/Mol-Kelvin
 Total                   88.700             49.390            118.188
 Electronic               0.000              0.000              0.000
 Translational            0.889              2.981             41.632
 Rotational               0.889              2.981             31.459
 Vibrational             86.923             43.429             45.098
 Vibration     1          0.594              1.983              5.528
 Vibration     2          0.598              1.967              4.090
 Vibration     3          0.604              1.950              3.467
 Vibration     4          0.608              1.935              3.154
 Vibration     5          0.615              1.911              2.778
 Vibration     6          0.616              1.909              2.753
 Vibration     7          0.623              1.887              2.503
 Vibration     8          0.633              1.856              2.246
 Vibration     9          0.634              1.852              2.219
 Vibration    10          0.654              1.789              1.847
 Vibration    11          0.661              1.768              1.752
 Vibration    12          0.678              1.716              1.552
 Vibration    13          0.684              1.699              1.497
 Vibration    14          0.697              1.662              1.383
 Vibration    15          0.708              1.629              1.293
 Vibration    16          0.782              1.428              0.894
 Vibration    17          0.816              1.344              0.774
 Vibration    18          0.845              1.275              0.687
 Vibration    19          0.857              1.247              0.655
 Vibration    20          0.864              1.231              0.637
 Vibration    21          0.877              1.202              0.606
 Vibration    22          0.942              1.064              0.476
 Vibration    23          0.943              1.062              0.474

 Optimization completed.
    -- Stationary point found.
 Normal termination of Gaussian 16 at Mon Dec 14 18:48:22 2020.

 ----------------------------------------------------------------------
 # B3LYP/6-311++G(d,p) empiricaldispersion=gd3bj scf=xqc pop=npa geom=c
 heck
 ----------------------------------------------------------------------

 --------------------------------------
 CID_23616492_JID_3989_Energie_neutraal
 --------------------------------------
 Structure from the checkpoint file:  "JID_3989.chk"
 Charge =  0 Multiplicity = 1

 SCF Done:  E(RB3LYP) =  -925.759412807     A.U. after   13 cycles
 Normal termination of Gaussian 16 at Mon Dec 14 18:49:56 2020.

 ----------------------------------------------------------------------
 # B3LYP/6-311++G(d,p) empiricaldispersion=gd3bj scf=xqc pop=npa geom=c
 heck
 ----------------------------------------------------------------------

 ------------------------------------
 CID_23616492_JID_3989_Energie_kation
 ------------------------------------
 Structure from the checkpoint file:  "JID_3989.chk"
 Charge =  1 Multiplicity = 2

 SCF Done:  E(UB3LYP) =  -925.371960898     A.U. after   22 cycles
 Normal termination of Gaussian 16 at Mon Dec 14 18:53:34 2020.
 Gaussian 16:  ES64L-G16RevA.03 25-Dec-2016

 ----------------------------------------------------------------------
 # B3LYP/6-311++G(d,p) empiricaldispersion=gd3bj scf=xqc pop=npa geom=c
 heck
 ----------------------------------------------------------------------

 -----------------------------------
 CID_23616492_JID_3989_Energie_anion
 -----------------------------------
 Structure from the checkpoint file:  "JID_3989.chk"
 Charge = -1 Multiplicity = 2

                         Standard orientation:
 ---------------------------------------------------------------------
 Center     Atomic      Atomic             Coordinates (Angstroms)
 Number     Number       Type             X           Y           Z
 ---------------------------------------------------------------------
      1          6           0       -1.403105   -1.293602    1.118515
      2          6           0       -1.492812   -0.145616    0.088175
      3          6           0       -1.763645    1.136821    0.755142
      4          7           0       -1.950877    2.136298    1.313479
      5          6           0       -2.575087   -0.420982   -0.870670
      6          7           0       -3.417595   -0.666054   -1.629004
      7         16           0       -0.000003    0.000309   -1.054281
      8          6           0        1.492809    0.145559    0.088255
      9          6           0        1.403102    1.292938    1.119268
     10          6           0        1.763650   -1.137271    0.754463
     11          7           0        1.950893   -2.137065    1.312228
     12          6           0        2.575081    0.421494   -0.870430
     13          7           0        3.417592    0.667028   -1.628611
     14          1           0       -2.366967   -1.391718    1.625359
     15          1           0       -1.160548   -2.226790    0.607764
     16          1           0       -0.634996   -1.084487    1.863274
     17          1           0        1.160560    2.226427    0.609063
     18          1           0        0.634980    1.083388    1.863887
     19          1           0        2.366959    1.390746    1.626185
 ---------------------------------------------------------------------

 SCF Done:  E(UB3LYP) =  -925.798113006     A.U. after   22 cycles

 The electronic state is 2-A.
 Alpha  occ. eigenvalues --  -88.72894 -14.20812 -14.20812 -14.19405 -14.19405
 Alpha  occ. eigenvalues --  -10.16474 -10.16474 -10.10938 -10.10938 -10.09818
 Alpha  occ. eigenvalues --  -10.09818 -10.08784 -10.08784  -7.81663  -5.78190
 Alpha  occ. eigenvalues --   -5.77674  -5.76890  -0.81705  -0.81219  -0.79625
 Alpha  occ. eigenvalues --   -0.79591  -0.74420  -0.71918  -0.61356  -0.58979
 Alpha  occ. eigenvalues --   -0.55230  -0.47454  -0.47182  -0.37818  -0.36260
 Alpha  occ. eigenvalues --   -0.35733  -0.33457  -0.31918  -0.31033  -0.30578
 Alpha  occ. eigenvalues --   -0.27236  -0.27063  -0.25993  -0.25894  -0.25688
 Alpha  occ. eigenvalues --   -0.24296  -0.24230  -0.23482  -0.22840  -0.22336
 Alpha  occ. eigenvalues --   -0.22183  -0.20884  -0.20807  -0.13627   0.02174
 Alpha virt. eigenvalues --    0.08100   0.08117   0.09481   0.10793   0.10832
 Alpha virt. eigenvalues --    0.11396   0.11780   0.12099   0.12632   0.12810
 Alpha virt. eigenvalues --    0.13970   0.14237   0.14853   0.15065   0.15716

  Beta  occ. eigenvalues --  -88.72651 -14.20701 -14.20701 -14.19081 -14.19081
  Beta  occ. eigenvalues --  -10.16280 -10.16279 -10.10912 -10.10912 -10.09825
  Beta  occ. eigenvalues --  -10.09825 -10.08774 -10.08774  -7.81398  -5.78060
  Beta  occ. eigenvalues --   -5.77115  -5.76694  -0.81393  -0.80966  -0.79239
  Beta  occ. eigenvalues --   -0.79188  -0.73810  -0.71487  -0.60826  -0.58750
  Beta  occ. eigenvalues --   -0.54334  -0.47042  -0.46811  -0.37163  -0.36064
  Beta  occ. eigenvalues --   -0.35474  -0.33257  -0.31823  -0.30966  -0.30258
  Beta  occ. eigenvalues --   -0.26992  -0.26827  -0.25503  -0.25383  -0.25125
  Beta  occ. eigenvalues --   -0.23854  -0.23817  -0.22641  -0.22587  -0.22048
  Beta  occ. eigenvalues --   -0.21898  -0.19874  -0.19830  -0.12866
  Beta virt. eigenvalues --    0.07730   0.08288   0.08692   0.09560   0.10964
  Beta virt. eigenvalues --    0.10977   0.11502   0.11874   0.12377   0.12801
  Beta virt. eigenvalues --    0.12831   0.14370   0.14921   0.15064   0.15537

 Mulliken charges and spin densities:
               1          2
     1  C   -0.563840  -0.041162
     2  C    1.264510   0.309018
     3  C   -0.561180  -0.149822
     4  N   -0.323913   0.086497
     5  C   -0.349751  -0.032049
     6  N   -0.345136   0.161821
     7  S   -0.257334   0.282459
     8  C    1.264514   0.309003
     9  C   -0.563840  -0.041158
    10  C   -0.561182  -0.149808
    11  N   -0.323914   0.086496
    12  C   -0.349759  -0.032053
    13  N   -0.345137   0.161822
    14  H    0.170143  -0.005399
    15  H    0.197688   0.015257
    16  H    0.140150   0.014611
    17  H    0.197690   0.015256
    18  H    0.140148   0.014611
    19  H    0.170143  -0.005399
 Sum of Mulliken charges =  -1.00000   1.00000

 Dipole moment (field-independent basis, Debye):
    X=             -0.0000    Y=             -0.0012    Z=              3.9507  Tot=              3.9507
 Quadrupole moment (field-independent basis, Debye-Ang):
   XX=           -137.0693   YY=           -105.2137   ZZ=           -105.3400
   XY=              7.6139   XZ=              0.0022   YZ=              0.0001

 Summary of Natural Population Analysis:

                                       Natural Population
                Natural  -----------------------------------------------
    Atom  No    Charge         Core      Valence    Rydberg      Total
 -----------------------------------------------------------------------
      C    1   -0.27371      0.99963     2.26661    0.00748     3.27371
      C    2   -0.16041      0.99939     2.14834    0.01268     3.16041
      C    3    0.15706      0.99961     1.82145    0.02188     2.84294
      N    4   -0.16888      0.99979     2.65807    0.01102     3.66888
      C    5    0.13688      0.99962     1.84182    0.02168     2.86312
      N    6   -0.12587      0.99978     2.61492    0.01117     3.62587
      S    7    0.22271      4.99963     2.76216    0.01550     7.77729
      C    8   -0.16041      0.99939     2.14834    0.01268     3.16041
      C    9   -0.27371      0.99963     2.26660    0.00748     3.27371
      C   10    0.15706      0.99961     1.82145    0.02188     2.84294
      N   11   -0.16888      0.99979     2.65807    0.01102     3.66888
      C   12    0.13688      0.99962     1.84182    0.02168     2.86312
      N   13   -0.12587      0.99978     2.61492    0.01117     3.62587
      H   14    0.10419      0.00000     0.39499    0.00081     0.39581
      H   15    0.11253      0.00000     0.38639    0.00108     0.38747
      H   16    0.10686      0.00000     0.39185    0.00129     0.39314
      H   17    0.11253      0.00000     0.38639    0.00108     0.38747
      H   18    0.10686      0.00000     0.39185    0.00129     0.39314
      H   19    0.10419      0.00000     0.39499    0.00081     0.39581
 =======================================================================
   * Total *    0.00000     16.99527    31.81105    0.19368    49.00000

 Normal termination of Gaussian 16 at Mon Dec 14 18:57:14 2020.
