 Gaussian 16, Revision A.03,

 -----------------------------------------------------------
 # opt freq B3LYP/6-31G(d) empiricaldispersion=gd3bj scf=xqc
 -----------------------------------------------------------

 ------------------------------
 CID_45097835_JID_6053_neutraal
 ------------------------------
 Symbolic Z-matrix:
 Charge =  0 Multiplicity = 1

 SCF Done:  E(RB3LYP) =  -794.915319862     A.U. after   15 cycles
 SCF Done:  E(RB3LYP) =  -794.923618163     A.U. after   12 cycles
 SCF Done:  E(RB3LYP) =  -794.925237256     A.U. after   12 cycles
 SCF Done:  E(RB3LYP) =  -794.927801303     A.U. after   14 cycles
 SCF Done:  E(RB3LYP) =  -794.930015411     A.U. after   14 cycles
 SCF Done:  E(RB3LYP) =  -794.931397076     A.U. after   12 cycles
 SCF Done:  E(RB3LYP) =  -794.932132073     A.U. after   12 cycles
 SCF Done:  E(RB3LYP) =  -794.932272599     A.U. after   11 cycles
 SCF Done:  E(RB3LYP) =  -794.932325518     A.U. after   10 cycles
 SCF Done:  E(RB3LYP) =  -794.932341700     A.U. after   10 cycles
 SCF Done:  E(RB3LYP) =  -794.933000373     A.U. after    9 cycles
 SCF Done:  E(RB3LYP) =  -794.933001199     A.U. after    8 cycles
 SCF Done:  E(RB3LYP) =  -794.933001525     A.U. after    7 cycles
 SCF Done:  E(RB3LYP) =  -794.933001719     A.U. after    7 cycles
 SCF Done:  E(RB3LYP) =  -794.933001782     A.U. after    7 cycles
 Optimization completed.
    -- Stationary point found.
 Normal termination of Gaussian 16 at Thu Dec 10 21:20:25 2020.

 --------------------------------------------------------------------
 #N Geom=AllCheck Guess=TCheck SCRF=Check GenChk RB3LYP/6-31G(d) Freq
 --------------------------------------------------------------------

 Structure from the checkpoint file:  "JID_6053.chk"
 ------------------------------
 CID_45097835_JID_6053_neutraal
 ------------------------------
 Charge =  0 Multiplicity = 1

 SCF Done:  E(RB3LYP) =  -794.933001783     A.U. after    1 cycles

  Exact polarizability: 183.872  -2.057 141.300  -0.001   0.002  69.279
 Approx polarizability: 244.395  -8.283 240.682  -0.001   0.002 104.365

                      1                      2                      3
                      A                      A                      A
 Frequencies --     60.9599                72.9946                88.6974
 Red. masses --      2.4310                 2.9941                 2.2001
 Frc consts  --      0.0053                 0.0094                 0.0102
 IR Inten    --      0.0085                 9.3169                 0.0785

                      4                      5                      6
                      A                      A                      A
 Frequencies --    112.4620               127.2819               134.7450
 Red. masses --      2.7422                 1.7464                 1.3920
 Frc consts  --      0.0204                 0.0167                 0.0149
 IR Inten    --      0.1157                 0.9703                 5.8013

                      7                      8                      9
                      A                      A                      A
 Frequencies --    146.4705               150.5699               159.0471
 Red. masses --      1.1918                 3.5709                 1.1925
 Frc consts  --      0.0151                 0.0477                 0.0178
 IR Inten    --      0.0565                 0.5920                 1.1864

                     10                     11                     12
                      A                      A                      A
 Frequencies --    187.7251               204.2792               217.8341
 Red. masses --      2.0318                 4.1908                 3.2190
 Frc consts  --      0.0422                 0.1030                 0.0900
 IR Inten    --      6.1294                 0.1751                11.2631

                     13                     14                     15
                      A                      A                      A
 Frequencies --    242.4359               268.6898               319.9917
 Red. masses --      3.2546                 5.2267                 3.8993
 Frc consts  --      0.1127                 0.2223                 0.2352
 IR Inten    --      2.2565                 0.1559                 2.3160

                     16                     17                     18
                      A                      A                      A
 Frequencies --    329.7665               356.3955               390.4741
 Red. masses --      9.0493                 3.7937                10.5258
 Frc consts  --      0.5798                 0.2839                 0.9456
 IR Inten    --      0.0026                 3.1389                 0.0000

                     19                     20                     21
                      A                      A                      A
 Frequencies --    407.8601               442.8366               510.3070
 Red. masses --      6.5324                 6.6636                 5.4109
 Frc consts  --      0.6402                 0.7699                 0.8302
 IR Inten    --      9.4359                12.6682                25.2901

                     22                     23                     24
                      A                      A                      A
 Frequencies --    563.7674               620.4752               681.1025
 Red. masses --      6.1194                 7.2837                11.2542
 Frc consts  --      1.1459                 1.6521                 3.0760
 IR Inten    --      2.1801                 1.3712                 9.8138

                     25                     26                     27
                      A                      A                      A
 Frequencies --    686.8742               706.6116               727.9921
 Red. masses --      6.9268                11.8250                11.5824
 Frc consts  --      1.9255                 3.4787                 3.6166
 IR Inten    --     16.0090                 1.6188                 0.4827

                     28                     29                     30
                      A                      A                      A
 Frequencies --    745.3408               757.0144               791.2622
 Red. masses --     12.0238                 5.7345                 6.4382
 Frc consts  --      3.9355                 1.9362                 2.3750
 IR Inten    --     27.0611                13.7540                16.5365

                     31                     32                     33
                      A                      A                      A
 Frequencies --    859.9786               963.8392              1006.0950
 Red. masses --      6.2753                 4.3485                 5.3618
 Frc consts  --      2.7344                 2.3801                 3.1977
 IR Inten    --      2.3065                17.1079               113.8196

                     34                     35                     36
                      A                      A                      A
 Frequencies --   1073.3971              1082.1237              1143.0578
 Red. masses --      3.4485                 3.2797                 4.5976
 Frc consts  --      2.3410                 2.2627                 3.5393
 IR Inten    --     96.4832                22.0429                14.8201

                     37                     38                     39
                      A                      A                      A
 Frequencies --   1166.5879              1167.4930              1188.8249
 Red. masses --      1.2866                 1.2759                 1.2633
 Frc consts  --      1.0317                 1.0247                 1.0519
 IR Inten    --      0.3683                 0.1623                 0.8572

                     40                     41                     42
                      A                      A                      A
 Frequencies --   1190.0509              1206.7512              1219.2296
 Red. masses --      1.2590                 2.2228                 1.5324
 Frc consts  --      1.0505                 1.9072                 1.3422
 IR Inten    --      0.7178                81.4720                 0.1144

                     43                     44                     45
                      A                      A                      A
 Frequencies --   1233.2139              1252.4981              1267.3173
 Red. masses --      2.2230                 3.0450                 3.9251
 Frc consts  --      1.9919                 2.8145                 3.7142
 IR Inten    --    151.8507               112.7549                 4.6413

                     46                     47                     48
                      A                      A                      A
 Frequencies --   1299.0897              1387.7182              1433.8907
 Red. masses --      7.1710                 3.2965                 4.6405
 Frc consts  --      7.1303                 3.7403                 5.6214
 IR Inten    --      6.4741               141.5477                90.3744

                     49                     50                     51
                      A                      A                      A
 Frequencies --   1445.9009              1461.1581              1467.5201
 Red. masses --      2.6741                 1.5508                 1.4261
 Frc consts  --      3.2938                 1.9507                 1.8095
 IR Inten    --     39.9120               328.2308                78.3789

                     52                     53                     54
                      A                      A                      A
 Frequencies --   1482.6921              1506.8888              1508.8012
 Red. masses --      1.4486                 1.0479                 1.0474
 Frc consts  --      1.8763                 1.4020                 1.4048
 IR Inten    --      8.0586                 5.6782                 6.2942

                     55                     56                     57
                      A                      A                      A
 Frequencies --   1510.0508              1525.2965              1526.5393
 Red. masses --      1.7858                 1.0616                 1.0631
 Frc consts  --      2.3993                 1.4552                 1.4597
 IR Inten    --     44.3260                19.5288                33.2766

                     58                     59                     60
                      A                      A                      A
 Frequencies --   1527.8155              1528.3895              1530.4606
 Red. masses --      1.0439                 1.1158                 1.0448
 Frc consts  --      1.4356                 1.5357                 1.4418
 IR Inten    --      5.6070                38.5347                10.7187

                     61                     62                     63
                      A                      A                      A
 Frequencies --   1536.0877              1566.2766              1574.4897
 Red. masses --      1.1117                 3.9039                 4.7126
 Frc consts  --      1.5455                 5.6426                 6.8832
 IR Inten    --     47.9154               160.3056               320.2198

                     64                     65                     66
                      A                      A                      A
 Frequencies --   1613.9292              1635.5005              1780.0086
 Red. masses --      5.8809                 8.0955                11.3963
 Frc consts  --      9.0253                12.7584                21.2744
 IR Inten    --    471.4920               179.9915               526.8536

                     67                     68                     69
                      A                      A                      A
 Frequencies --   3069.4684              3075.0186              3078.5795
 Red. masses --      1.0341                 1.0291                 1.0286
 Frc consts  --      5.7401                 5.7335                 5.7436
 IR Inten    --     52.6151                48.5275                41.4612

                     70                     71                     72
                      A                      A                      A
 Frequencies --   3084.6175              3132.0739              3150.1020
 Red. masses --      1.0336                 1.1063                 1.1063
 Frc consts  --      5.7944                 6.3942                 6.4680
 IR Inten    --     34.4618                17.6311                14.2511

                     73                     74                     75
                      A                      A                      A
 Frequencies --   3150.7756              3156.2816              3182.4267
 Red. masses --      1.1079                 1.1077                 1.1081
 Frc consts  --      6.4802                 6.5017                 6.6120
 IR Inten    --     19.9414                18.9985                22.1383

                     76                     77                     78
                      A                      A                      A
 Frequencies --   3183.9494              3190.5272              3201.9643
 Red. masses --      1.1075                 1.1037                 1.1028
 Frc consts  --      6.6149                 6.6195                 6.6616
 IR Inten    --     19.1503                 0.5247                 0.8196

 - Thermochemistry -
 -------------------
 Temperature   298.150 Kelvin.  Pressure   1.00000 Atm.
 Atom     1 has atomic number  6 and mass  12.00000

 Molecular mass:   224.09094 amu.
 Principal axes and moments of inertia in atomic units:
                           1         2         3
     Eigenvalues --  1899.675044831.491926685.61327
           X            0.99999   0.00393  -0.00000
           Y           -0.00393   0.99999   0.00000
           Z            0.00000  -0.00000   1.00000
 This molecule is an asymmetric top.
 Rotational symmetry number  1.
 Warning -- assumption of classical behavior for rotation
           may cause significant error
 Rotational temperatures (Kelvin)      0.04559     0.01793     0.01296
 Rotational constants (GHZ):           0.95003     0.37354     0.26994
 Zero-point vibrational energy     584597.2 (Joules/Mol)
                                  139.72207 (Kcal/Mol)
 Warning -- explicit consideration of  23 degrees of freedom as
           vibrations may cause significant error
 Vibrational temperatures:     87.71   105.02   127.62   161.81   183.13
          (Kelvin)            193.87   210.74   216.64   228.83   270.09
                              293.91   313.41   348.81   386.58   460.40
                              474.46   512.77   561.81   586.82   637.14
                              734.22   811.14   892.73   979.95   988.26
                             1016.66  1047.42  1072.38  1089.17  1138.45
                             1237.32  1386.75  1447.55  1544.38  1556.93
                             1644.61  1678.46  1679.76  1710.45  1712.22
                             1736.25  1754.20  1774.32  1802.07  1823.39
                             1869.10  1996.62  2063.05  2080.33  2102.28
                             2111.43  2133.26  2168.08  2170.83  2172.63
                             2194.56  2196.35  2198.19  2199.01  2201.99
                             2210.09  2253.52  2265.34  2322.08  2353.12
                             2561.04  4416.28  4424.27  4429.39  4438.08
                             4506.36  4532.29  4533.26  4541.19  4578.80
                             4580.99  4590.46  4606.91

 Zero-point correction=                           0.222661 (Hartree/Particle)
 Thermal correction to Energy=                    0.238216
 Thermal correction to Enthalpy=                  0.239161
 Thermal correction to Gibbs Free Energy=         0.179930
 Sum of electronic and zero-point Energies=           -794.710340
 Sum of electronic and thermal Energies=              -794.694785
 Sum of electronic and thermal Enthalpies=            -794.693841
 Sum of electronic and thermal Free Energies=         -794.753072

                     E (Thermal)             CV                S
                      KCal/Mol        Cal/Mol-Kelvin    Cal/Mol-Kelvin
 Total                  149.483             55.803            124.662
 Electronic               0.000              0.000              0.000
 Translational            0.889              2.981             42.123
 Rotational               0.889              2.981             32.484
 Vibrational            147.706             49.842             50.055
 Vibration     1          0.597              1.973              4.426
 Vibration     2          0.599              1.967              4.071
 Vibration     3          0.602              1.957              3.689
 Vibration     4          0.607              1.939              3.226
 Vibration     5          0.611              1.926              2.987
 Vibration     6          0.613              1.919              2.877
 Vibration     7          0.617              1.906              2.718
 Vibration     8          0.618              1.902              2.665
 Vibration     9          0.621              1.892              2.561
 Vibration    10          0.632              1.857              2.250
 Vibration    11          0.640              1.834              2.094
 Vibration    12          0.646              1.814              1.977
 Vibration    13          0.659              1.775              1.785
 Vibration    14          0.673              1.731              1.605
 Vibration    15          0.706              1.635              1.310
 Vibration    16          0.713              1.616              1.261
 Vibration    17          0.732              1.562              1.138
 Vibration    18          0.758              1.491              0.998
 Vibration    19          0.772              1.453              0.934
 Vibration    20          0.802              1.377              0.818
 Vibration    21          0.865              1.227              0.633
 Vibration    22          0.920              1.110              0.516
 Vibration    23          0.981              0.989              0.416

 Optimization completed.
    -- Stationary point found.
 Normal termination of Gaussian 16 at Thu Dec 10 21:28:37 2020.

 ----------------------------------------------------------------------
 # B3LYP/6-311++G(d,p) empiricaldispersion=gd3bj scf=xqc pop=npa geom=c
 heck
 ----------------------------------------------------------------------

 --------------------------------------
 CID_45097835_JID_6053_Energie_neutraal
 --------------------------------------
 Structure from the checkpoint file:  "JID_6053.chk"
 Charge =  0 Multiplicity = 1

 SCF Done:  E(RB3LYP) =  -795.151919607     A.U. after   14 cycles
 Normal termination of Gaussian 16 at Thu Dec 10 21:31:30 2020.

 ----------------------------------------------------------------------
 # B3LYP/6-311++G(d,p) empiricaldispersion=gd3bj scf=xqc pop=npa geom=c
 heck
 ----------------------------------------------------------------------

 ------------------------------------
 CID_45097835_JID_6053_Energie_kation
 ------------------------------------
 Structure from the checkpoint file:  "JID_6053.chk"
 Charge =  1 Multiplicity = 2

 SCF Done:  E(UB3LYP) =  -794.873646762     A.U. after   20 cycles
 Normal termination of Gaussian 16 at Thu Dec 10 21:37:45 2020.
 Gaussian 16:  ES64L-G16RevA.03 25-Dec-2016

 ----------------------------------------------------------------------
 # B3LYP/6-311++G(d,p) empiricaldispersion=gd3bj scf=xqc pop=npa geom=c
 heck
 ----------------------------------------------------------------------

 -----------------------------------
 CID_45097835_JID_6053_Energie_anion
 -----------------------------------
 Structure from the checkpoint file:  "JID_6053.chk"
 Charge = -1 Multiplicity = 2

                         Standard orientation:
 ---------------------------------------------------------------------
 Center     Atomic      Atomic             Coordinates (Angstroms)
 Number     Number       Type             X           Y           Z
 ---------------------------------------------------------------------
      1          6           0        2.426868    2.160504    0.000177
      2          7           0        1.743696    0.874940    0.000018
      3          6           0        0.370461    0.633840   -0.000019
      4          6           0        0.229297   -0.751254   -0.000015
      5          7           0        1.455532   -1.370583   -0.000014
      6          6           0        2.313083   -0.362759    0.000016
      7          8           0        3.644633   -0.444062    0.000039
      8          6           0        4.169457   -1.780907   -0.000125
      9          7           0       -0.979201   -1.384562   -0.000006
     10          6           0       -2.001846   -0.580391    0.000009
     11          7           0       -1.965637    0.795858   -0.000041
     12          6           0       -0.732498    1.527969   -0.000047
     13          8           0       -0.720446    2.760273   -0.000082
     14          6           0       -3.211841    1.565554   -0.000081
     15          8           0       -3.259161   -1.054797    0.000017
     16          6           0       -3.390075   -2.483692    0.000109
     17          1           0        3.055222    2.255944    0.890606
     18          1           0        1.660769    2.935420   -0.000320
     19          1           0        3.056225    2.255601   -0.889562
     20          1           0        3.835849   -2.321062    0.889775
     21          1           0        3.836067   -2.320742   -0.890301
     22          1           0        5.253451   -1.665263    0.000023
     23          1           0       -2.927536    2.616310   -0.000922
     24          1           0       -3.802268    1.329816   -0.888517
     25          1           0       -3.801570    1.331150    0.889190
     26          1           0       -4.464725   -2.668390    0.000166
     27          1           0       -2.919969   -2.911481   -0.888616
     28          1           0       -2.919888   -2.911364    0.888847
 ---------------------------------------------------------------------

 SCF Done:  E(UB3LYP) =  -795.137731907     A.U. after   33 cycles
 SCF Done:  E(UB3LYP) =  -795.137731907     a.u. after    1 cycles

 The electronic state is 2-A.
 Alpha  occ. eigenvalues --  -19.08801 -19.08502 -19.00315 -14.28737 -14.28737
 Alpha  occ. eigenvalues --  -14.21797 -14.21059 -10.22140 -10.20707 -10.19565
 Alpha  occ. eigenvalues --  -10.14690 -10.13582 -10.13327 -10.12177 -10.11451
 Alpha  occ. eigenvalues --  -10.11450  -1.01999  -1.01806  -0.95708  -0.92886
 Alpha  occ. eigenvalues --   -0.88478  -0.83518  -0.80221  -0.69369  -0.65299
 Alpha  occ. eigenvalues --   -0.65130  -0.63300  -0.60555  -0.55412  -0.54263
 Alpha  occ. eigenvalues --   -0.49677  -0.47950  -0.45911  -0.44035  -0.42014
 Alpha  occ. eigenvalues --   -0.40794  -0.40755  -0.39618  -0.37289  -0.37120
 Alpha  occ. eigenvalues --   -0.36519  -0.35732  -0.35318  -0.33505  -0.33096
 Alpha  occ. eigenvalues --   -0.32455  -0.31622  -0.30332  -0.29508  -0.28120
 Alpha  occ. eigenvalues --   -0.27234  -0.25547  -0.22296  -0.22086  -0.19822
 Alpha  occ. eigenvalues --   -0.19671  -0.17941  -0.17096  -0.12179   0.04098
 Alpha virt. eigenvalues --    0.05340   0.06470   0.06760   0.07325   0.08761
 Alpha virt. eigenvalues --    0.08921   0.09299   0.09843   0.09933   0.10351
 Alpha virt. eigenvalues --    0.10929   0.11246   0.11489   0.11834   0.13834

  Beta  occ. eigenvalues --  -19.08792 -19.08495 -19.00311 -14.28737 -14.28736
  Beta  occ. eigenvalues --  -14.21788 -14.21049 -10.22141 -10.20707 -10.19564
  Beta  occ. eigenvalues --  -10.14689 -10.13540 -10.13287 -10.12150 -10.11449
  Beta  occ. eigenvalues --  -10.11425  -1.01986  -1.01794  -0.95703  -0.92878
  Beta  occ. eigenvalues --   -0.88470  -0.83509  -0.80211  -0.69353  -0.65263
  Beta  occ. eigenvalues --   -0.65084  -0.63263  -0.60507  -0.55396  -0.54228
  Beta  occ. eigenvalues --   -0.49644  -0.47928  -0.45885  -0.44012  -0.41993
  Beta  occ. eigenvalues --   -0.40766  -0.40734  -0.39587  -0.37265  -0.37096
  Beta  occ. eigenvalues --   -0.36494  -0.35692  -0.35271  -0.33479  -0.33072
  Beta  occ. eigenvalues --   -0.32428  -0.31596  -0.30311  -0.29490  -0.28081
  Beta  occ. eigenvalues --   -0.27200  -0.25525  -0.22280  -0.22058  -0.19811
  Beta  occ. eigenvalues --   -0.19654  -0.17929  -0.17085  -0.12171
  Beta virt. eigenvalues --    0.06198   0.06504   0.06657   0.07343   0.07901
  Beta virt. eigenvalues --    0.09280   0.09474   0.09670   0.10075   0.10348
  Beta virt. eigenvalues --    0.10767   0.11227   0.11309   0.11753   0.12176

 Mulliken charges and spin densities:
               1          2
     1  C    0.760214  -1.091300
     2  N   -0.318165   0.092360
     3  C    1.178584  -0.778117
     4  C   -1.915651   1.511307
     5  N   -0.139524   0.008317
     6  C    0.358499  -0.209060
     7  O   -0.243661   0.067946
     8  C    1.112622  -1.325618
     9  N   -0.156673   0.015892
    10  C   -0.087982   0.165564
    11  N   -0.342037   0.092056
    12  C   -0.136054   0.139465
    13  O   -0.335065  -0.013547
    14  C    0.882145  -1.146392
    15  O   -0.232405   0.078474
    16  C    0.843034  -1.084509
    17  H   -0.214819   0.394455
    18  H    0.188595   0.036758
    19  H   -0.214534   0.394112
    20  H   -0.137627   0.323195
    21  H   -0.137549   0.323099
    22  H   -0.620727   0.785571
    23  H    0.179993   0.017601
    24  H   -0.233960   0.428216
    25  H   -0.234482   0.428793
    26  H   -0.605192   0.770695
    27  H   -0.098737   0.287273
    28  H   -0.098840   0.287394
 Sum of Mulliken charges =  -1.00000   1.00000

 Dipole moment (field-independent basis, Debye):
    X=             -0.4864    Y=              2.3228    Z=             -0.0029  Tot=              2.3732
 Quadrupole moment (field-independent basis, Debye-Ang):
   XX=           -200.7781   YY=           -143.0618   ZZ=           -117.2497
   XY=             -2.4661   XZ=              0.0033   YZ=             -0.0034

 Summary of Natural Population Analysis:

                                       Natural Population
                Natural  -----------------------------------------------
    Atom  No    Charge         Core      Valence    Rydberg      Total
 -----------------------------------------------------------------------
      C    1   -0.17860      0.99964     2.17197    0.00699     3.17860
      N    2   -0.20712      0.99959     2.69799    0.00953     3.70712
      C    3   -0.01223      0.99938     2.00312    0.00973     3.01223
      C    4    0.18320      0.99946     1.80106    0.01628     2.81680
      N    5   -0.28474      0.99966     2.77544    0.00964     3.78474
      C    6    0.37134      0.99952     1.61043    0.01871     2.62866
      O    7   -0.26688      0.99985     3.25730    0.00973     4.26688
      C    8   -0.09840      0.99959     2.08992    0.00889     3.09840
      N    9   -0.28318      0.99962     2.77363    0.00993     3.78318
      C   10    0.38935      0.99953     1.59413    0.01700     2.61065
      N   11   -0.24097      0.99962     2.73209    0.00926     3.74097
      C   12    0.31574      0.99956     1.66483    0.01987     2.68426
      O   13   -0.33424      0.99988     3.32873    0.00563     4.33424
      C   14   -0.18240      0.99963     2.17415    0.00862     3.18240
      O   15   -0.27083      0.99985     3.26092    0.01005     4.27083
      C   16   -0.09921      0.99959     2.09070    0.00892     3.09921
      H   17    0.09997      0.00000     0.39827    0.00176     0.40003
      H   18    0.11811      0.00000     0.38071    0.00118     0.38189
      H   19    0.09998      0.00000     0.39826    0.00176     0.40002
      H   20    0.09227      0.00000     0.40611    0.00162     0.40773
      H   21    0.09226      0.00000     0.40612    0.00162     0.40774
      H   22    0.09496      0.00000     0.40263    0.00242     0.40504
      H   23    0.11570      0.00000     0.38318    0.00111     0.38430
      H   24    0.10258      0.00000     0.39598    0.00144     0.39742
      H   25    0.10257      0.00000     0.39599    0.00144     0.39743
      H   26    0.09467      0.00000     0.40312    0.00221     0.40533
      H   27    0.09306      0.00000     0.40529    0.00165     0.40694
      H   28    0.09306      0.00000     0.40529    0.00165     0.40694
 =======================================================================
   * Total *   -0.00000     15.99397    42.80739    0.19864    59.00000

 Normal termination of Gaussian 16 at Thu Dec 10 21:47:57 2020.
