 Gaussian 16, Revision A.03,

 -----------------------------------------------------------
 # opt freq B3LYP/6-31G(d) empiricaldispersion=gd3bj scf=xqc
 -----------------------------------------------------------

 ------------------------------
 CID_62731980_JID_6738_neutraal
 ------------------------------
 Symbolic Z-matrix:
 Charge =  0 Multiplicity = 1

 SCF Done:  E(RB3LYP) =  -674.742005447     A.U. after   14 cycles
 SCF Done:  E(RB3LYP) =  -674.747096411     A.U. after   12 cycles
 SCF Done:  E(RB3LYP) =  -674.748290025     A.U. after   11 cycles
 SCF Done:  E(RB3LYP) =  -674.748959890     A.U. after   12 cycles
 SCF Done:  E(RB3LYP) =  -674.749703895     A.U. after   12 cycles
 SCF Done:  E(RB3LYP) =  -674.750478207     A.U. after   14 cycles
 SCF Done:  E(RB3LYP) =  -674.751144149     A.U. after   11 cycles
 SCF Done:  E(RB3LYP) =  -674.751286897     A.U. after   11 cycles
 SCF Done:  E(RB3LYP) =  -674.751632657     A.U. after   14 cycles
 SCF Done:  E(RB3LYP) =  -674.751732417     A.U. after   12 cycles
 SCF Done:  E(RB3LYP) =  -674.752022462     A.U. after   10 cycles
 SCF Done:  E(RB3LYP) =  -674.752023083     A.U. after    9 cycles
 SCF Done:  E(RB3LYP) =  -674.752022866     A.U. after   10 cycles
 SCF Done:  E(RB3LYP) =  -674.752023629     A.U. after    9 cycles
 SCF Done:  E(RB3LYP) =  -674.752023727     A.U. after    7 cycles
 SCF Done:  E(RB3LYP) =  -674.752023688     A.U. after    7 cycles
 Optimization completed.
    -- Stationary point found.
 Normal termination of Gaussian 16 at Thu Dec 10 23:20:13 2020.

 --------------------------------------------------------------------
 #N Geom=AllCheck Guess=TCheck SCRF=Check GenChk RB3LYP/6-31G(d) Freq
 --------------------------------------------------------------------

 Structure from the checkpoint file:  "JID_6738.chk"
 ------------------------------
 CID_62731980_JID_6738_neutraal
 ------------------------------
 Charge =  0 Multiplicity = 1

 SCF Done:  E(RB3LYP) =  -674.752023688     A.U. after    1 cycles

  Exact polarizability: 192.669   6.673 134.928  -5.525   2.385 137.418
 Approx polarizability: 236.270  20.190 191.138 -10.754   9.624 222.779

                      1                      2                      3
                      A                      A                      A
 Frequencies --     19.9870                22.6733                36.8252
 Red. masses --      3.4495                 3.7807                 2.9132
 Frc consts  --      0.0008                 0.0011                 0.0023
 IR Inten    --      0.1530                 0.3066                 0.1115

                      4                      5                      6
                      A                      A                      A
 Frequencies --     55.7362                74.0519                77.4644
 Red. masses --      2.6933                 2.5410                 3.6252
 Frc consts  --      0.0049                 0.0082                 0.0128
 IR Inten    --      0.1716                 0.1008                 1.5593

                      7                      8                      9
                      A                      A                      A
 Frequencies --     93.4787               119.5030               159.6338
 Red. masses --      3.2396                 1.8966                 2.6211
 Frc consts  --      0.0167                 0.0160                 0.0394
 IR Inten    --      0.5353                 0.0523                 0.8888

                     10                     11                     12
                      A                      A                      A
 Frequencies --    171.6292               198.7089               229.9729
 Red. masses --      2.2095                 2.7874                 1.5180
 Frc consts  --      0.0383                 0.0648                 0.0473
 IR Inten    --      0.1744                 0.3952                 0.4217

                     13                     14                     15
                      A                      A                      A
 Frequencies --    239.7562               240.1567               253.2583
 Red. masses --      1.3137                 1.4495                 1.3518
 Frc consts  --      0.0445                 0.0493                 0.0511
 IR Inten    --      0.3411                 0.1566                 0.3780

                     16                     17                     18
                      A                      A                      A
 Frequencies --    265.4436               303.6678               328.4845
 Red. masses --      1.3888                 2.0829                 2.6582
 Frc consts  --      0.0577                 0.1132                 0.1690
 IR Inten    --      0.0912                 1.0667                 1.1041

                     19                     20                     21
                      A                      A                      A
 Frequencies --    337.6196               385.2747               416.4700
 Red. masses --      2.5713                 2.1191                 2.5475
 Frc consts  --      0.1727                 0.1853                 0.2603
 IR Inten    --      1.9843                 0.6017                 1.7307

                     22                     23                     24
                      A                      A                      A
 Frequencies --    422.7255               449.2678               465.1762
 Red. masses --      2.0215                 2.8087                 2.7033
 Frc consts  --      0.2128                 0.3340                 0.3447
 IR Inten    --      1.0282                 0.9644                 2.1053

                     25                     26                     27
                      A                      A                      A
 Frequencies --    504.8998               532.8769               656.9061
 Red. masses --      3.1578                 3.0970                 4.9770
 Frc consts  --      0.4743                 0.5181                 1.2654
 IR Inten    --     17.5121                 2.8039                 2.0119

                     28                     29                     30
                      A                      A                      A
 Frequencies --    677.4587               693.6944               724.6684
 Red. masses --      2.3405                 3.2065                 2.2939
 Frc consts  --      0.6329                 0.9091                 0.7098
 IR Inten    --      3.7966                17.2333                 1.7119

                     31                     32                     33
                      A                      A                      A
 Frequencies --    759.3572               769.4792               788.8737
 Red. masses --      1.2230                 2.3711                 1.4119
 Frc consts  --      0.4155                 0.8272                 0.5177
 IR Inten    --     39.9725                 3.2029                14.9634

                     34                     35                     36
                      A                      A                      A
 Frequencies --    820.8823               840.6746               875.6188
 Red. masses --      1.4566                 1.4405                 1.3701
 Frc consts  --      0.5783                 0.5998                 0.6189
 IR Inten    --     35.9622                13.0910                11.7859

                     37                     38                     39
                      A                      A                      A
 Frequencies --    881.6488               900.2587               921.3889
 Red. masses --      2.1045                 1.6183                 1.9617
 Frc consts  --      0.9638                 0.7728                 0.9812
 IR Inten    --      1.7857                 5.2968                 6.1809

                     40                     41                     42
                      A                      A                      A
 Frequencies --    922.0413               947.9349               981.3660
 Red. masses --      1.9275                 1.2014                 1.4066
 Frc consts  --      0.9655                 0.6361                 0.7981
 IR Inten    --      3.6206                 3.5724                 0.0397

                     43                     44                     45
                      A                      A                      A
 Frequencies --    996.9971              1014.5355              1021.8794
 Red. masses --      2.4629                 2.4301                 2.1836
 Frc consts  --      1.4424                 1.4737                 1.3435
 IR Inten    --     25.2900                 4.8818                 0.5634

                     46                     47                     48
                      A                      A                      A
 Frequencies --   1027.9096              1041.5778              1063.7438
 Red. masses --      2.0645                 2.6768                 2.6314
 Frc consts  --      1.2852                 1.7110                 1.7544
 IR Inten    --     20.3851                 2.0541                 3.1336

                     49                     50                     51
                      A                      A                      A
 Frequencies --   1083.5168              1109.7153              1121.2574
 Red. masses --      2.0163                 1.8383                 1.7539
 Frc consts  --      1.3947                 1.3338                 1.2992
 IR Inten    --      6.9053                11.8567                14.8739

                     52                     53                     54
                      A                      A                      A
 Frequencies --   1140.4609              1162.0011              1176.6193
 Red. masses --      1.7501                 1.9103                 2.5543
 Frc consts  --      1.3411                 1.5197                 2.0835
 IR Inten    --      1.8443                 0.4613                16.3247

                     55                     56                     57
                      A                      A                      A
 Frequencies --   1186.8082              1200.6420              1208.1818
 Red. masses --      2.1001                 1.7033                 1.7940
 Frc consts  --      1.7428                 1.4466                 1.5429
 IR Inten    --     54.7197                 6.6643                11.6452

                     58                     59                     60
                      A                      A                      A
 Frequencies --   1215.3701              1241.8507              1286.0068
 Red. masses --      1.7927                 1.5659                 1.4198
 Frc consts  --      1.5601                 1.4228                 1.3835
 IR Inten    --      0.4148                 0.8838                 0.2471

                     61                     62                     63
                      A                      A                      A
 Frequencies --   1290.8270              1332.0715              1337.9529
 Red. masses --      1.3013                 1.3780                 1.1548
 Frc consts  --      1.2775                 1.4406                 1.2180
 IR Inten    --      1.6479                11.9547                 7.4682

                     64                     65                     66
                      A                      A                      A
 Frequencies --   1349.5698              1362.2059              1383.7979
 Red. masses --      1.4379                 1.5344                 1.3585
 Frc consts  --      1.5430                 1.6776                 1.5327
 IR Inten    --      3.4721                18.1773                11.3725

                     67                     68                     69
                      A                      A                      A
 Frequencies --   1392.1716              1396.5376              1401.5148
 Red. masses --      1.7068                 1.4215                 1.3699
 Frc consts  --      1.9490                 1.6334                 1.5854
 IR Inten    --      8.6654                27.0755                 3.3210

                     70                     71                     72
                      A                      A                      A
 Frequencies --   1408.7766              1417.0833              1421.9949
 Red. masses --      1.8627                 1.6826                 2.2334
 Frc consts  --      2.1782                 1.9907                 2.6608
 IR Inten    --     11.5617                 1.2065                16.7006

                     73                     74                     75
                      A                      A                      A
 Frequencies --   1430.1249              1433.2830              1437.7820
 Red. masses --      1.2761                 1.3084                 1.3296
 Frc consts  --      1.5377                 1.5836                 1.6194
 IR Inten    --      8.8126                16.1945                 7.6017

                     76                     77                     78
                      A                      A                      A
 Frequencies --   1446.2903              1450.0004              1480.9789
 Red. masses --      2.4797                 1.2381                 2.7772
 Frc consts  --      3.0560                 1.5337                 3.5888
 IR Inten    --     24.1548                12.3758                19.3896

                     79                     80                     81
                      A                      A                      A
 Frequencies --   1506.7643              1513.8219              1516.1899
 Red. masses --      1.0961                 1.0847                 1.1164
 Frc consts  --      1.4662                 1.4646                 1.5121
 IR Inten    --      0.9422                 5.4406                 4.4140

                     82                     83                     84
                      A                      A                      A
 Frequencies --   1518.5183              1519.4698              1522.3148
 Red. masses --      1.0769                 1.1212                 1.0672
 Frc consts  --      1.4631                 1.5251                 1.4572
 IR Inten    --      2.8427                 7.5293                 2.6890

                     85                     86                     87
                      A                      A                      A
 Frequencies --   1526.8373              1528.0032              1529.6380
 Red. masses --      1.0506                 1.0454                 1.1281
 Frc consts  --      1.4430                 1.4380                 1.5551
 IR Inten    --      8.5089                 1.6786                 4.6652

                     88                     89                     90
                      A                      A                      A
 Frequencies --   1535.3216              1538.6105              1539.7018
 Red. masses --      1.0585                 1.0754                 1.0858
 Frc consts  --      1.4700                 1.5000                 1.5166
 IR Inten    --      1.0389                 2.6724                13.8925

                     91                     92                     93
                      A                      A                      A
 Frequencies --   1552.1864              1619.6667              2931.1863
 Red. masses --      1.0488                 5.2425                 1.0803
 Frc consts  --      1.4888                 8.1029                 5.4689
 IR Inten    --      6.9140                17.4528                47.7646

                     94                     95                     96
                      A                      A                      A
 Frequencies --   3025.6591              3032.5985              3035.3165
 Red. masses --      1.0602                 1.0705                 1.0403
 Frc consts  --      5.7183                 5.8003                 5.6469
 IR Inten    --     15.1811                 7.3853                23.2726

                     97                     98                     99
                      A                      A                      A
 Frequencies --   3042.5845              3043.1178              3044.2656
 Red. masses --      1.0486                 1.0365                 1.0395
 Frc consts  --      5.7196                 5.6551                 5.6757
 IR Inten    --     46.8977                21.6282                33.3498

                    100                    101                    102
                      A                      A                      A
 Frequencies --   3047.2003              3055.6730              3065.0903
 Red. masses --      1.0605                 1.0631                 1.1002
 Frc consts  --      5.8019                 5.8482                 6.0901
 IR Inten    --      6.5599                69.9012                30.0914

                    103                    104                    105
                      A                      A                      A
 Frequencies --   3071.3782              3083.5636              3089.7858
 Red. masses --      1.0709                 1.1007                 1.1002
 Frc consts  --      5.9519                 6.1662                 6.1885
 IR Inten    --     58.4528                10.3967                 7.9729

                    106                    107                    108
                      A                      A                      A
 Frequencies --   3098.2517              3103.0975              3109.5550
 Red. masses --      1.1000                 1.1004                 1.1003
 Frc consts  --      6.2215                 6.2430                 6.2684
 IR Inten    --     15.9882                57.5016                46.5343

                    109                    110                    111
                      A                      A                      A
 Frequencies --   3110.6920              3112.0496              3119.5991
 Red. masses --      1.1014                 1.1014                 1.1025
 Frc consts  --      6.2791                 6.2850                 6.3218
 IR Inten    --     48.1135                51.9952                52.4533

                    112                    113                    114
                      A                      A                      A
 Frequencies --   3126.2367              3136.8620              3154.2065
 Red. masses --      1.1024                 1.0998                 1.0962
 Frc consts  --      6.3479                 6.3761                 6.4258
 IR Inten    --     53.9652                17.2687                 9.1367

                    115                    116                    117
                      A                      A                      A
 Frequencies --   3265.8342              3269.6700              3492.2718
 Red. masses --      1.0968                 1.0963                 1.0742
 Frc consts  --      6.8925                 6.9056                 7.7185
 IR Inten    --      1.0838                 1.9052                 0.7279

 - Thermochemistry -
 -------------------
 Temperature   298.150 Kelvin.  Pressure   1.00000 Atm.
 Atom     1 has atomic number  6 and mass  12.00000

 Molecular mass:   223.20485 amu.
 Principal axes and moments of inertia in atomic units:
                           1         2         3
     Eigenvalues --  1749.223717607.915178255.08666
           X            0.99999  -0.00299   0.00441
           Y            0.00303   0.99996  -0.00794
           Z           -0.00438   0.00795   0.99996
 This molecule is an asymmetric top.
 Rotational symmetry number  1.
 Warning -- assumption of classical behavior for rotation
           may cause significant error
 Rotational temperatures (Kelvin)      0.04952     0.01138     0.01049
 Rotational constants (GHZ):           1.03174     0.23722     0.21862
 Zero-point vibrational energy     981965.6 (Joules/Mol)
                                  234.69540 (Kcal/Mol)
 Warning -- explicit consideration of  26 degrees of freedom as
           vibrations may cause significant error
 Vibrational temperatures:     28.76    32.62    52.98    80.19   106.54
          (Kelvin)            111.45   134.50   171.94   229.68   246.94
                              285.90   330.88   344.96   345.53   364.38
                              381.91   436.91   472.62   485.76   554.32
                              599.21   608.21   646.40   669.28   726.44
                              766.69   945.14   974.71   998.07  1042.64
                             1092.55  1107.11  1135.01  1181.07  1209.54
                             1259.82  1268.50  1295.27  1325.67  1326.61
                             1363.87  1411.97  1434.46  1459.69  1470.26
                             1478.93  1498.60  1530.49  1558.94  1596.63
                             1613.24  1640.87  1671.86  1692.89  1707.55
                             1727.46  1738.30  1748.65  1786.75  1850.28
                             1857.21  1916.55  1925.02  1941.73  1959.91
                             1990.98  2003.02  2009.31  2016.47  2026.92
                             2038.87  2045.93  2057.63  2062.17  2068.65
                             2080.89  2086.23  2130.80  2167.90  2178.05
                             2181.46  2184.81  2186.18  2190.27  2196.78
                             2198.46  2200.81  2208.99  2213.72  2215.29
                             2233.25  2330.34  4217.32  4353.25  4363.23
                             4367.14  4377.60  4378.37  4380.02  4384.24
                             4396.43  4409.98  4419.03  4436.56  4445.51
                             4457.69  4464.67  4473.96  4475.59  4477.55
                             4488.41  4497.96  4513.24  4538.20  4698.81
                             4704.33  5024.60

 Zero-point correction=                           0.374011 (Hartree/Particle)
 Thermal correction to Energy=                    0.392459
 Thermal correction to Enthalpy=                  0.393403
 Thermal correction to Gibbs Free Energy=         0.325404
 Sum of electronic and zero-point Energies=           -674.378013
 Sum of electronic and thermal Energies=              -674.359565
 Sum of electronic and thermal Enthalpies=            -674.358621
 Sum of electronic and thermal Free Energies=         -674.426620

                     E (Thermal)             CV                S
                      KCal/Mol        Cal/Mol-Kelvin    Cal/Mol-Kelvin
 Total                  246.272             68.199            143.117
 Electronic               0.000              0.000              0.000
 Translational            0.889              2.981             42.111
 Rotational               0.889              2.981             33.063
 Vibrational            244.494             62.237             67.943
 Vibration     1          0.593              1.986              6.635
 Vibration     2          0.593              1.985              6.385
 Vibration     3          0.594              1.982              5.423
 Vibration     4          0.596              1.975              4.603
 Vibration     5          0.599              1.966              4.043
 Vibration     6          0.599              1.964              3.954
 Vibration     7          0.602              1.954              3.586
 Vibration     8          0.609              1.933              3.108
 Vibration     9          0.621              1.892              2.554
 Vibration    10          0.626              1.877              2.418
 Vibration    11          0.637              1.842              2.145
 Vibration    12          0.652              1.795              1.879
 Vibration    13          0.657              1.780              1.805
 Vibration    14          0.657              1.779              1.802
 Vibration    15          0.664              1.757              1.708
 Vibration    16          0.671              1.736              1.626
 Vibration    17          0.695              1.667              1.397
 Vibration    18          0.712              1.619              1.268
 Vibration    19          0.718              1.600              1.223
 Vibration    20          0.754              1.502              1.018
 Vibration    21          0.780              1.434              0.904
 Vibration    22          0.785              1.421              0.883
 Vibration    23          0.808              1.363              0.798
 Vibration    24          0.823              1.327              0.751
 Vibration    25          0.860              1.239              0.646
 Vibration    26          0.888              1.177              0.581

 Optimization completed.
    -- Stationary point found.
 Normal termination of Gaussian 16 at Thu Dec 10 23:33:42 2020.

 ----------------------------------------------------------------------
 # B3LYP/6-311++G(d,p) empiricaldispersion=gd3bj scf=xqc pop=npa geom=c
 heck
 ----------------------------------------------------------------------

 --------------------------------------
 CID_62731980_JID_6738_Energie_neutraal
 --------------------------------------
 Structure from the checkpoint file:  "JID_6738.chk"
 Charge =  0 Multiplicity = 1

 SCF Done:  E(RB3LYP) =  -674.938442172     A.U. after   14 cycles
 Normal termination of Gaussian 16 at Thu Dec 10 23:40:02 2020.

 ----------------------------------------------------------------------
 # B3LYP/6-311++G(d,p) empiricaldispersion=gd3bj scf=xqc pop=npa geom=c
 heck
 ----------------------------------------------------------------------

 ------------------------------------
 CID_62731980_JID_6738_Energie_kation
 ------------------------------------
 Structure from the checkpoint file:  "JID_6738.chk"
 Charge =  1 Multiplicity = 2

 SCF Done:  E(UB3LYP) =  -674.646236370     A.U. after   23 cycles
 Normal termination of Gaussian 16 at Thu Dec 10 23:54:30 2020.
 Gaussian 16:  ES64L-G16RevA.03 25-Dec-2016

 ----------------------------------------------------------------------
 # B3LYP/6-311++G(d,p) empiricaldispersion=gd3bj scf=xqc pop=npa geom=c
 heck
 ----------------------------------------------------------------------

 -----------------------------------
 CID_62731980_JID_6738_Energie_anion
 -----------------------------------
 Structure from the checkpoint file:  "JID_6738.chk"
 Charge = -1 Multiplicity = 2

                         Standard orientation:
 ---------------------------------------------------------------------
 Center     Atomic      Atomic             Coordinates (Angstroms)
 Number     Number       Type             X           Y           Z
 ---------------------------------------------------------------------
      1          6           0        1.157908    2.566003    0.131632
      2          6           0        2.167184    1.637612   -0.545049
      3          6           0        2.206335    0.224953    0.073903
      4          6           0        0.871934   -0.456602   -0.031604
      5          6           0       -0.084100   -0.630517    0.954977
      6          7           0       -1.136048   -1.280138    0.387751
      7          7           0       -0.928349   -1.534359   -0.926581
      8          6           0        0.285330   -1.043146   -1.180712
      9          6           0       -2.441372   -1.536590    0.976292
     10          6           0       -3.269008   -0.255572    1.144180
     11          6           0       -3.439684    0.579616   -0.135867
     12          6           0       -4.123647   -0.210034   -1.258522
     13          6           0       -4.208146    1.867963    0.181950
     14          7           0        3.199725   -0.608349   -0.621917
     15          6           0        4.608128   -0.248100   -0.448927
     16          6           0        5.133937   -0.212276    0.993407
     17          1           0        0.136673    2.185275    0.027734
     18          1           0        1.192871    3.568872   -0.307269
     19          1           0        1.368351    2.665219    1.204288
     20          1           0        1.939565    1.533432   -1.612586
     21          1           0        3.166227    2.085395   -0.476273
     22          1           0        2.435020    0.348341    1.149292
     23          1           0       -0.089634   -0.346055    1.997970
     24          1           0        0.714251   -1.136065   -2.168809
     25          1           0       -2.932588   -2.248577    0.311490
     26          1           0       -2.297901   -2.025209    1.946666
     27          1           0       -4.256894   -0.540963    1.533662
     28          1           0       -2.799364    0.367769    1.917240
     29          1           0       -2.436302    0.859088   -0.486027
     30          1           0       -5.097551   -0.596818   -0.929080
     31          1           0       -4.299984    0.433124   -2.128274
     32          1           0       -3.505276   -1.049256   -1.588945
     33          1           0       -3.709734    2.449553    0.966847
     34          1           0       -4.292743    2.504312   -0.706136
     35          1           0       -5.225494    1.642697    0.527660
     36          1           0        3.063995   -1.572298   -0.323300
     37          1           0        5.189831   -0.975046   -1.028610
     38          1           0        4.780244    0.723159   -0.926153
     39          1           0        4.974463   -1.176428    1.492191
     40          1           0        6.209342    0.000606    1.007395
     41          1           0        4.636536    0.559927    1.590298
 ---------------------------------------------------------------------

 SCF Done:  E(UB3LYP) =  -674.926074581     A.U. after   29 cycles

 The electronic state is 2-A.
 Alpha  occ. eigenvalues --  -14.28993 -14.23155 -14.20351 -10.11787 -10.10919
 Alpha  occ. eigenvalues --  -10.10441 -10.10121 -10.08930 -10.08299 -10.07803
 Alpha  occ. eigenvalues --  -10.07233 -10.07143 -10.06887 -10.06639 -10.06466
 Alpha  occ. eigenvalues --  -10.06363  -0.95244  -0.81637  -0.75627  -0.71277
 Alpha  occ. eigenvalues --   -0.70685  -0.67311  -0.64688  -0.63128  -0.59453
 Alpha  occ. eigenvalues --   -0.58239  -0.55127  -0.52731  -0.50722  -0.48436
 Alpha  occ. eigenvalues --   -0.47142  -0.45477  -0.42238  -0.39319  -0.39028
 Alpha  occ. eigenvalues --   -0.38209  -0.37100  -0.35916  -0.34932  -0.34532
 Alpha  occ. eigenvalues --   -0.33297  -0.32857  -0.31610  -0.31149  -0.30615
 Alpha  occ. eigenvalues --   -0.29853  -0.29620  -0.28975  -0.28688  -0.27543
 Alpha  occ. eigenvalues --   -0.27344  -0.26629  -0.25007  -0.24563  -0.24090
 Alpha  occ. eigenvalues --   -0.23875  -0.23507  -0.23168  -0.19732  -0.15815
 Alpha  occ. eigenvalues --   -0.14772  -0.13404   0.04072
 Alpha virt. eigenvalues --    0.05691   0.06635   0.07000   0.07793   0.08090
 Alpha virt. eigenvalues --    0.08321   0.09192   0.09211   0.09618   0.10167
 Alpha virt. eigenvalues --    0.10256   0.10537   0.10967   0.11411   0.11661

  Beta  occ. eigenvalues --  -14.28990 -14.23147 -14.20347 -10.11768 -10.10910
  Beta  occ. eigenvalues --  -10.10410 -10.10110 -10.08928 -10.08297 -10.07779
  Beta  occ. eigenvalues --  -10.07233 -10.07135 -10.06868 -10.06603 -10.06454
  Beta  occ. eigenvalues --  -10.06345  -0.95229  -0.81623  -0.75604  -0.71259
  Beta  occ. eigenvalues --   -0.70662  -0.67284  -0.64655  -0.63094  -0.59421
  Beta  occ. eigenvalues --   -0.58198  -0.55085  -0.52682  -0.50691  -0.48394
  Beta  occ. eigenvalues --   -0.47102  -0.45433  -0.42198  -0.39284  -0.38998
  Beta  occ. eigenvalues --   -0.38183  -0.37068  -0.35891  -0.34912  -0.34509
  Beta  occ. eigenvalues --   -0.33267  -0.32829  -0.31571  -0.31120  -0.30583
  Beta  occ. eigenvalues --   -0.29828  -0.29593  -0.28945  -0.28658  -0.27509
  Beta  occ. eigenvalues --   -0.27318  -0.26596  -0.24982  -0.24539  -0.24060
  Beta  occ. eigenvalues --   -0.23853  -0.23485  -0.23141  -0.19717  -0.15770
  Beta  occ. eigenvalues --   -0.14738  -0.13390
  Beta virt. eigenvalues --    0.06087   0.06413   0.07209   0.07609   0.07991
  Beta virt. eigenvalues --    0.08413   0.08541   0.09388   0.09667   0.09964
  Beta virt. eigenvalues --    0.10239   0.10440   0.10672   0.11321   0.11723

 Mulliken charges and spin densities:
               1          2
     1  C   -0.267837  -0.435452
     2  C   -0.207912   0.192793
     3  C   -0.660500  -0.050495
     4  C    1.981588  -0.985801
     5  C   -1.143157   0.044338
     6  N    0.435433  -0.006068
     7  N   -0.295818   0.094538
     8  C   -0.229470  -0.106690
     9  C   -0.157744  -0.302619
    10  C    0.740429  -0.917709
    11  C   -0.525134   0.910155
    12  C   -0.049950  -0.671019
    13  C    0.116355  -0.693983
    14  N    0.051861  -0.001989
    15  C   -0.369234   0.122828
    16  C    0.684966  -1.106111
    17  H    0.353029  -0.220201
    18  H   -0.061823   0.202151
    19  H   -0.184361   0.329608
    20  H    0.065414   0.111385
    21  H    0.108511  -0.000384
    22  H    0.557297  -0.319813
    23  H   -0.857654   1.030737
    24  H    0.115363   0.019581
    25  H    0.173552  -0.002675
    26  H   -0.611436   0.819554
    27  H   -0.355394   0.518600
    28  H    0.101848   0.042115
    29  H    0.022402   0.120101
    30  H   -0.044963   0.181557
    31  H    0.088043   0.038376
    32  H    0.156834  -0.006550
    33  H   -0.121929   0.257855
    34  H    0.015446   0.116985
    35  H   -0.009203   0.141184
    36  H    0.202893   0.020153
    37  H   -0.067889   0.217465
    38  H    0.078324   0.057664
    39  H   -0.066171   0.196389
    40  H   -0.329488   0.468771
    41  H   -0.432522   0.572676
 Sum of Mulliken charges =  -1.00000   1.00000

 Dipole moment (field-independent basis, Debye):
    X=             -0.9927    Y=             -0.1007    Z=             -5.3054  Tot=              5.3984
 Quadrupole moment (field-independent basis, Debye-Ang):
   XX=           -200.5025   YY=           -141.1139   ZZ=           -149.0957
   XY=             -3.5318   XZ=             -0.3691   YZ=             -0.5159

 Summary of Natural Population Analysis:

                                       Natural Population
                Natural  -----------------------------------------------
    Atom  No    Charge         Core      Valence    Rydberg      Total
 -----------------------------------------------------------------------
      C    1   -0.28709      0.99966     2.28243    0.00500     3.28709
      C    2   -0.18878      0.99962     2.18026    0.00890     3.18878
      C    3   -0.01764      0.99954     2.00450    0.01360     3.01764
      C    4   -0.07612      0.99951     2.06425    0.01236     3.07612
      C    5   -0.00033      0.99948     1.98906    0.01178     3.00033
      N    6   -0.10919      0.99966     2.59516    0.01437     3.60919
      N    7   -0.15600      0.99974     2.64522    0.01105     3.65600
      C    8   -0.01165      0.99956     1.99888    0.01321     3.01165
      C    9   -0.08165      0.99960     2.07008    0.01196     3.08165
      C   10   -0.19087      0.99960     2.18161    0.00965     3.19087
      C   11   -0.12087      0.99961     2.11196    0.00929     3.12087
      C   12   -0.28841      0.99965     2.28382    0.00494     3.28841
      C   13   -0.28023      0.99965     2.27590    0.00468     3.28023
      N   14   -0.33785      0.99974     2.82745    0.01066     3.83785
      C   15   -0.08865      0.99964     2.07746    0.01156     3.08865
      C   16   -0.29797      0.99967     2.29378    0.00452     3.29797
      H   17    0.10012      0.00000     0.39837    0.00151     0.39988
      H   18    0.09718      0.00000     0.40211    0.00071     0.40282
      H   19    0.09803      0.00000     0.40079    0.00118     0.40197
      H   20    0.09673      0.00000     0.40208    0.00119     0.40327
      H   21    0.09505      0.00000     0.40371    0.00124     0.40495
      H   22    0.08689      0.00000     0.41033    0.00278     0.41311
      H   23    0.11005      0.00000     0.38800    0.00195     0.38995
      H   24    0.10139      0.00000     0.39764    0.00098     0.39861
      H   25    0.10562      0.00000     0.39273    0.00165     0.39438
      H   26    0.10368      0.00000     0.39455    0.00177     0.39632
      H   27    0.09992      0.00000     0.39859    0.00150     0.40008
      H   28    0.10105      0.00000     0.39715    0.00180     0.39895
      H   29    0.09768      0.00000     0.39977    0.00256     0.40232
      H   30    0.09317      0.00000     0.40600    0.00083     0.40683
      H   31    0.09670      0.00000     0.40253    0.00077     0.40330
      H   32    0.10908      0.00000     0.38984    0.00108     0.39092
      H   33    0.10050      0.00000     0.39859    0.00091     0.39950
      H   34    0.09675      0.00000     0.40244    0.00082     0.40325
      H   35    0.09518      0.00000     0.40385    0.00097     0.40482
      H   36    0.17349      0.00000     0.32409    0.00243     0.32651
      H   37    0.09077      0.00000     0.40833    0.00091     0.40923
      H   38    0.08911      0.00000     0.40963    0.00126     0.41089
      H   39    0.09619      0.00000     0.40253    0.00128     0.40381
      H   40    0.09962      0.00000     0.39909    0.00129     0.40038
      H   41    0.09936      0.00000     0.39925    0.00139     0.40064
 =======================================================================
   * Total *   -0.00000     15.99394    45.81379    0.19228    62.00000

 Normal termination of Gaussian 16 at Fri Dec 11 00:11:56 2020.
