 Gaussian 16, Revision A.03,

 -----------------------------------------------------------
 # opt freq B3LYP/6-31G(d) empiricaldispersion=gd3bj scf=xqc
 -----------------------------------------------------------

 -----------------------------
 CID_434831_JID_10094_neutraal
 -----------------------------
 Symbolic Z-matrix:
 Charge =  0 Multiplicity = 1

 SCF Done:  E(RB3LYP) =  -1785.10928026     A.U. after   15 cycles
 SCF Done:  E(RB3LYP) =  -1785.12138771     A.U. after   13 cycles
 SCF Done:  E(RB3LYP) =  -1785.12405048     A.U. after   12 cycles
 SCF Done:  E(RB3LYP) =  -1785.12563501     A.U. after   13 cycles
 SCF Done:  E(RB3LYP) =  -1785.12650504     A.U. after   13 cycles
 SCF Done:  E(RB3LYP) =  -1785.12679642     A.U. after   13 cycles
 SCF Done:  E(RB3LYP) =  -1785.12731615     A.U. after   12 cycles
 SCF Done:  E(RB3LYP) =  -1785.12751682     A.U. after   12 cycles
 SCF Done:  E(RB3LYP) =  -1785.12757028     A.U. after   11 cycles
 SCF Done:  E(RB3LYP) =  -1785.12759847     A.U. after   11 cycles
 SCF Done:  E(RB3LYP) =  -1785.12760808     A.U. after   10 cycles
 SCF Done:  E(RB3LYP) =  -1785.12760959     A.U. after    9 cycles
 SCF Done:  E(RB3LYP) =  -1785.12761214     A.U. after   10 cycles
 SCF Done:  E(RB3LYP) =  -1785.12761524     A.U. after   10 cycles
 SCF Done:  E(RB3LYP) =  -1785.12761714     A.U. after   10 cycles
 SCF Done:  E(RB3LYP) =  -1785.12761737     A.U. after    8 cycles
 Optimization completed.
    -- Stationary point found.
 Normal termination of Gaussian 16 at Sat Dec 12 15:01:13 2020.

 --------------------------------------------------------------------
 #N Geom=AllCheck Guess=TCheck SCRF=Check GenChk RB3LYP/6-31G(d) Freq
 --------------------------------------------------------------------

 Structure from the checkpoint file:  "JID_10094.chk"
 -----------------------------
 CID_434831_JID_10094_neutraal
 -----------------------------
 Charge =  0 Multiplicity = 1

 SCF Done:  E(RB3LYP) =  -1785.12761737     A.U. after    1 cycles

  Exact polarizability: 264.103  17.394 151.222  24.971  16.025 107.837
 Approx polarizability: 429.826  67.512 262.419  77.853  43.867 195.703

                      1                      2                      3
                      A                      A                      A
 Frequencies --     26.1917                36.7375                46.0408
 Red. masses --      8.3884                 9.5455                11.1562
 Frc consts  --      0.0034                 0.0076                 0.0139
 IR Inten    --      0.8876                 0.0360                 2.6238

                      4                      5                      6
                      A                      A                      A
 Frequencies --     69.7267               112.0166               125.5380
 Red. masses --      7.0037                 7.5255                 6.0854
 Frc consts  --      0.0201                 0.0556                 0.0565
 IR Inten    --      3.3158                 3.2177                 8.3856

                      7                      8                      9
                      A                      A                      A
 Frequencies --    136.5317               161.0408               174.9390
 Red. masses --      6.8808                 5.4186                 2.5346
 Frc consts  --      0.0756                 0.0828                 0.0457
 IR Inten    --      7.5626                 2.4990                46.3312

                     10                     11                     12
                      A                      A                      A
 Frequencies --    215.7832               234.0464               236.3530
 Red. masses --      3.8775                 6.3481                 4.2135
 Frc consts  --      0.1064                 0.2049                 0.1387
 IR Inten    --     16.0429                 9.1501                11.3651

                     13                     14                     15
                      A                      A                      A
 Frequencies --    246.9897               275.3739               281.7488
 Red. masses --      8.3275                 4.3089                 5.5722
 Frc consts  --      0.2993                 0.1925                 0.2606
 IR Inten    --     11.3531                 6.9015                 8.1393

                     16                     17                     18
                      A                      A                      A
 Frequencies --    301.7934               334.6908               391.2629
 Red. masses --      8.2352                 4.8340                 4.6946
 Frc consts  --      0.4419                 0.3190                 0.4234
 IR Inten    --      9.4348                 1.6621                 5.6147

                     19                     20                     21
                      A                      A                      A
 Frequencies --    397.2303               410.4436               414.7409
 Red. masses --      4.7422                 2.5989                 3.0477
 Frc consts  --      0.4409                 0.2580                 0.3089
 IR Inten    --      6.6842                63.6477                 4.9436

                     22                     23                     24
                      A                      A                      A
 Frequencies --    425.0679               434.6116               450.6695
 Red. masses --      3.5662                 2.7892                 2.7913
 Frc consts  --      0.3796                 0.3104                 0.3340
 IR Inten    --     12.9894                23.2048                41.4257

                     25                     26                     27
                      A                      A                      A
 Frequencies --    462.0841               469.7272               480.0467
 Red. masses --      5.3621                 1.5098                 5.3098
 Frc consts  --      0.6746                 0.1963                 0.7209
 IR Inten    --      9.7780                62.3215                86.4471

                     28                     29                     30
                      A                      A                      A
 Frequencies --    501.4387               529.0979               550.0950
 Red. masses --      6.8853                 5.8704                 4.6756
 Frc consts  --      1.0200                 0.9683                 0.8336
 IR Inten    --     13.0060                39.5788                25.8950

                     31                     32                     33
                      A                      A                      A
 Frequencies --    587.7593               609.1173               632.5485
 Red. masses --      5.5633                 8.9700                 3.6933
 Frc consts  --      1.1324                 1.9609                 0.8707
 IR Inten    --     17.4251               108.2690                18.0507

                     34                     35                     36
                      A                      A                      A
 Frequencies --    658.5056               678.6832               708.7029
 Red. masses --      4.3222                 1.6470                 6.1841
 Frc consts  --      1.1043                 0.4470                 1.8300
 IR Inten    --     32.8531               272.7622                19.9553

                     37                     38                     39
                      A                      A                      A
 Frequencies --    727.6894               738.8551               783.8851
 Red. masses --      4.9998                 4.1353                 6.1934
 Frc consts  --      1.5599                 1.3301                 2.2423
 IR Inten    --     12.0524                15.9331                63.5730

                     40                     41                     42
                      A                      A                      A
 Frequencies --    810.7214               815.2358               826.5598
 Red. masses --      2.2095                 3.8716                 6.1788
 Frc consts  --      0.8556                 1.5160                 2.4872
 IR Inten    --     28.6142                94.2398               196.8154

                     43                     44                     45
                      A                      A                      A
 Frequencies --    847.5079               886.7324               898.8847
 Red. masses --      2.1221                 1.5571                 1.8180
 Frc consts  --      0.8980                 0.7213                 0.8655
 IR Inten    --      3.9452                 3.6714                71.0945

                     46                     47                     48
                      A                      A                      A
 Frequencies --    942.8487               954.1033               997.5936
 Red. masses --      3.1299                 1.4979                 4.3015
 Frc consts  --      1.6393                 0.8034                 2.5222
 IR Inten    --     11.0412                25.5147                80.5307

                     49                     50                     51
                      A                      A                      A
 Frequencies --   1051.7519              1090.0292              1124.2130
 Red. masses --      4.6732                 1.9855                 2.1700
 Frc consts  --      3.0457                 1.3899                 1.6158
 IR Inten    --     87.2570                13.2288                 6.2101

                     52                     53                     54
                      A                      A                      A
 Frequencies --   1132.2628              1152.8213              1162.4800
 Red. masses --      3.2294                 9.3373                 1.5335
 Frc consts  --      2.4393                 7.3113                 1.2210
 IR Inten    --    138.1752               204.5946               110.8488

                     55                     56                     57
                      A                      A                      A
 Frequencies --   1193.1771              1210.1438              1235.5555
 Red. masses --      1.7506                 2.3979                 1.3266
 Frc consts  --      1.4684                 2.0690                 1.1932
 IR Inten    --    276.1606                 7.6120                 2.1729

                     58                     59                     60
                      A                      A                      A
 Frequencies --   1239.7366              1250.8627              1271.3675
 Red. masses --      1.3240                 1.3963                 1.2728
 Frc consts  --      1.1989                 1.2872                 1.2122
 IR Inten    --     30.8410               138.3014                38.2003

                     61                     62                     63
                      A                      A                      A
 Frequencies --   1294.9884              1307.3168              1323.7173
 Red. masses --      1.7579                 2.0021                 1.5906
 Frc consts  --      1.7369                 2.0161                 1.6421
 IR Inten    --      1.1265                39.0758                 2.7312

                     64                     65                     66
                      A                      A                      A
 Frequencies --   1354.5949              1378.8603              1383.1649
 Red. masses --      1.7741                 6.4992                 3.8790
 Frc consts  --      1.9180                 7.2803                 4.3724
 IR Inten    --     10.0088               206.2890               192.3558

                     67                     68                     69
                      A                      A                      A
 Frequencies --   1388.9162              1436.9549              1455.3183
 Red. masses --      2.0539                 1.1963                 2.4243
 Frc consts  --      2.3345                 1.4554                 3.0251
 IR Inten    --      9.5197               130.4122                10.3386

                     70                     71                     72
                      A                      A                      A
 Frequencies --   1475.1758              1666.5388              1674.9727
 Red. masses --      3.0549                 7.3954                 8.3129
 Frc consts  --      3.9168                12.1017                13.7410
 IR Inten    --     16.6715                 2.9117                53.0660

                     73                     74                     75
                      A                      A                      A
 Frequencies --   1711.3060              1741.6218              3016.3121
 Red. masses --      8.1127                 7.6232                 1.0814
 Frc consts  --     13.9981                13.6236                 5.7968
 IR Inten    --     31.3750               102.8264                 8.9027

                     76                     77                     78
                      A                      A                      A
 Frequencies --   3084.2298              3173.7703              3194.0688
 Red. masses --      1.0848                 1.0907                 1.0903
 Frc consts  --      6.0797                 6.4728                 6.5534
 IR Inten    --      2.7658                14.7593                 8.6217

                     79                     80                     81
                      A                      A                      A
 Frequencies --   3205.1332              3223.5915              3500.9235
 Red. masses --      1.0916                 1.0912                 1.0652
 Frc consts  --      6.6069                 6.6809                 7.6919
 IR Inten    --      0.0867                 1.6098               159.1344

                     82                     83                     84
                      A                      A                      A
 Frequencies --   3697.7911              3709.6322              3733.1990
 Red. masses --      1.0661                 1.0660                 1.0656
 Frc consts  --      8.5885                 8.6429                 8.7502
 IR Inten    --     40.7966               105.7599                55.4917

 - Thermochemistry -
 -------------------
 Temperature   298.150 Kelvin.  Pressure   1.00000 Atm.
 Atom     1 has atomic number  6 and mass  12.00000

 Molecular mass:   321.98171 amu.
 Principal axes and moments of inertia in atomic units:
                           1         2         3
     Eigenvalues --  2695.39641********************
           X            0.99999  -0.00032   0.00373
           Y            0.00025   0.99982   0.01918
           Z           -0.00373  -0.01918   0.99981
 This molecule is an asymmetric top.
 Rotational symmetry number  1.
 Warning -- assumption of classical behavior for rotation
           may cause significant error
 Rotational temperatures (Kelvin)      0.03213     0.00699     0.00633
 Rotational constants (GHZ):           0.66956     0.14564     0.13187
 Zero-point vibrational energy     546002.5 (Joules/Mol)
                                  130.49773 (Kcal/Mol)
 Warning -- explicit consideration of  32 degrees of freedom as
           vibrations may cause significant error
 Vibrational temperatures:     37.68    52.86    66.24   100.32   161.17
          (Kelvin)            180.62   196.44   231.70   251.70   310.46
                              336.74   340.06   355.36   396.20   405.37
                              434.21   481.55   562.94   571.53   590.54
                              596.72   611.58   625.31   648.41   664.84
                              675.83   690.68   721.46   761.25   791.46
                              845.65   876.38   910.10   947.44   976.47
                             1019.67  1046.98  1063.05  1127.84  1166.45
                             1172.94  1189.24  1219.37  1275.81  1293.29
                             1356.55  1372.74  1435.31  1513.24  1568.31
                             1617.49  1629.07  1658.65  1672.55  1716.72
                             1741.13  1777.69  1783.70  1799.71  1829.21
                             1863.20  1880.94  1904.53  1948.96  1983.87
                             1990.07  1998.34  2067.46  2093.88  2122.45
                             2397.78  2409.91  2462.19  2505.81  4339.80
                             4437.52  4566.35  4595.55  4611.47  4638.03
                             5037.05  5320.30  5337.33  5371.24

 Zero-point correction=                           0.207961 (Hartree/Particle)
 Thermal correction to Energy=                    0.226567
 Thermal correction to Enthalpy=                  0.227511
 Thermal correction to Gibbs Free Energy=         0.160499
 Sum of electronic and zero-point Energies=          -1784.919656
 Sum of electronic and thermal Energies=             -1784.901051
 Sum of electronic and thermal Enthalpies=           -1784.900107
 Sum of electronic and thermal Free Energies=        -1784.967118

                     E (Thermal)             CV                S
                      KCal/Mol        Cal/Mol-Kelvin    Cal/Mol-Kelvin
 Total                  142.173             71.383            141.037
 Electronic               0.000              0.000              0.000
 Translational            0.889              2.981             43.204
 Rotational               0.889              2.981             34.479
 Vibrational            140.395             65.421             63.354
 Vibration     1          0.593              1.985              6.099
 Vibration     2          0.594              1.982              5.428
 Vibration     3          0.595              1.979              4.981
 Vibration     4          0.598              1.969              4.161
 Vibration     5          0.607              1.940              3.234
 Vibration     6          0.610              1.928              3.013
 Vibration     7          0.614              1.917              2.852
 Vibration     8          0.622              1.890              2.538
 Vibration     9          0.627              1.873              2.382
 Vibration    10          0.645              1.817              1.994
 Vibration    11          0.654              1.789              1.848
 Vibration    12          0.655              1.785              1.830
 Vibration    13          0.661              1.768              1.752
 Vibration    14          0.677              1.719              1.562
 Vibration    15          0.681              1.707              1.523
 Vibration    16          0.694              1.670              1.407
 Vibration    17          0.716              1.606              1.237
 Vibration    18          0.759              1.489              0.995
 Vibration    19          0.764              1.476              0.973
 Vibration    20          0.775              1.448              0.925
 Vibration    21          0.778              1.438              0.910
 Vibration    22          0.787              1.416              0.875
 Vibration    23          0.795              1.395              0.844
 Vibration    24          0.809              1.359              0.794
 Vibration    25          0.820              1.334              0.760
 Vibration    26          0.827              1.317              0.738
 Vibration    27          0.836              1.294              0.710
 Vibration    28          0.857              1.247              0.655
 Vibration    29          0.884              1.186              0.589
 Vibration    30          0.905              1.139              0.544
 Vibration    31          0.945              1.058              0.471
 Vibration    32          0.968              1.013              0.434

                           ! Non-Optimized Parameters !
 Normal termination of Gaussian 16 at Sat Dec 12 15:16:34 2020.

 ----------------------------------------------------------------------
 # B3LYP/6-311++G(d,p) empiricaldispersion=gd3bj scf=xqc pop=npa geom=c
 heck
 ----------------------------------------------------------------------

 -------------------------------------
 CID_434831_JID_10094_Energie_neutraal
 -------------------------------------
 Structure from the checkpoint file:  "JID_10094.chk"
 Charge =  0 Multiplicity = 1

 SCF Done:  E(RB3LYP) =  -1785.48928429     A.U. after   17 cycles
 Normal termination of Gaussian 16 at Sat Dec 12 15:22:53 2020.

 ----------------------------------------------------------------------
 # B3LYP/6-311++G(d,p) empiricaldispersion=gd3bj scf=xqc pop=npa geom=c
 heck
 ----------------------------------------------------------------------

 -----------------------------------
 CID_434831_JID_10094_Energie_kation
 -----------------------------------
 Structure from the checkpoint file:  "JID_10094.chk"
 Charge =  1 Multiplicity = 2

 SCF Done:  E(UB3LYP) =  -1785.17480965     A.U. after   28 cycles
 Normal termination of Gaussian 16 at Sat Dec 12 15:36:42 2020.
 Gaussian 16:  ES64L-G16RevA.03 25-Dec-2016

 ----------------------------------------------------------------------
 # B3LYP/6-311++G(d,p) empiricaldispersion=gd3bj scf=xqc pop=npa geom=c
 heck
 ----------------------------------------------------------------------

 ----------------------------------
 CID_434831_JID_10094_Energie_anion
 ----------------------------------
 Structure from the checkpoint file:  "JID_10094.chk"
 Charge = -1 Multiplicity = 2

                         Standard orientation:
 ---------------------------------------------------------------------
 Center     Atomic      Atomic             Coordinates (Angstroms)
 Number     Number       Type             X           Y           Z
 ---------------------------------------------------------------------
      1          6           0        0.813879    1.870379    0.588167
      2          6           0       -0.256787    1.293265   -0.000932
      3          6           0       -1.510655    1.997252   -0.211909
      4          6           0       -2.596846    1.375113   -0.710150
      5          6           0       -2.612490   -0.096390   -0.973709
      6          6           0       -1.255820   -0.712481   -1.013606
      7          6           0       -0.170293   -0.087463   -0.511540
      8          6           0        1.141368   -0.718678   -0.527024
      9          6           0        2.196605   -0.124682    0.045498
     10          6           0        2.105532    1.153730    0.842966
     11          8           0        3.260432    1.994053    0.653159
     12         16           0        3.834161   -0.767006   -0.229839
     13          8           0        3.808021   -2.214931   -0.341314
     14          8           0        4.427870    0.067614   -1.278690
     15          8           0        4.556397   -0.406209    1.184236
     16         16           0       -3.596458   -0.995529    0.346567
     17          8           0       -4.906309   -0.376170    0.528997
     18          8           0       -3.439298   -2.418331    0.086399
     19          8           0       -2.699776   -0.640923    1.679779
     20          8           0       -3.781654    1.964663   -1.004142
     21          1           0        0.761085    2.888066    0.966123
     22          1           0       -1.541208    3.063518    0.002828
     23          1           0       -3.203458   -0.320836   -1.869197
     24          1           0       -1.187946   -1.726024   -1.393392
     25          1           0        1.256217   -1.672239   -1.034796
     26          1           0        2.169692    0.895532    1.910576
     27          1           0        3.387894    2.117885   -0.304748
     28          1           0        4.572050    0.580738    1.217513
     29          1           0       -3.215969    0.003374    2.198850
     30          1           0       -3.734039    2.912148   -0.795352
 ---------------------------------------------------------------------

 SCF Done:  E(UB3LYP) =  -1785.54216328     A.U. after   24 cycles

 The electronic state is 2-A.
 Alpha  occ. eigenvalues --  -88.96942 -88.95538 -19.07333 -19.07030 -19.06694
 Alpha  occ. eigenvalues --  -19.03389 -19.02184 -19.02080 -19.01954 -19.01482
 Alpha  occ. eigenvalues --  -10.14088 -10.13224 -10.11609 -10.07815 -10.07223
 Alpha  occ. eigenvalues --  -10.07125 -10.06993 -10.05782 -10.04853 -10.04385
 Alpha  occ. eigenvalues --   -8.02993  -8.01935  -5.99408  -5.99205  -5.99000
 Alpha  occ. eigenvalues --   -5.98311  -5.98114  -5.97869  -1.04348  -1.04328
 Alpha  occ. eigenvalues --   -0.98302  -0.94052  -0.93912  -0.93035  -0.91611
 Alpha  occ. eigenvalues --   -0.91093  -0.76064  -0.71980  -0.67801  -0.64788
 Alpha  occ. eigenvalues --   -0.62995  -0.57124  -0.57028  -0.54635  -0.51937
 Alpha  occ. eigenvalues --   -0.49253  -0.47826  -0.45269  -0.43931  -0.43114
 Alpha  occ. eigenvalues --   -0.41014  -0.40210  -0.38968  -0.38416  -0.37410
 Alpha  occ. eigenvalues --   -0.37265  -0.36097  -0.34784  -0.33952  -0.33922
 Alpha  occ. eigenvalues --   -0.32827  -0.31746  -0.31518  -0.30540  -0.28906
 Alpha  occ. eigenvalues --   -0.27467  -0.26842  -0.26566  -0.25719  -0.24951
 Alpha  occ. eigenvalues --   -0.24612  -0.24408  -0.23418  -0.23316  -0.22683
 Alpha  occ. eigenvalues --   -0.22068  -0.21463  -0.20911  -0.20470  -0.19184
 Alpha  occ. eigenvalues --   -0.18009  -0.12779  -0.11154   0.00240
 Alpha virt. eigenvalues --    0.05930   0.06886   0.07988   0.08455   0.09290
 Alpha virt. eigenvalues --    0.09903   0.10819   0.11497   0.11817   0.12697
 Alpha virt. eigenvalues --    0.13123   0.13457   0.14118   0.14841   0.15335

  Beta  occ. eigenvalues --  -88.96943 -88.95442 -19.07296 -19.07025 -19.06687
  Beta  occ. eigenvalues --  -19.03307 -19.02109 -19.02046 -19.01948 -19.01445
  Beta  occ. eigenvalues --  -10.14045 -10.13262 -10.11616 -10.07616 -10.07207
  Beta  occ. eigenvalues --  -10.07131 -10.06881 -10.05708 -10.04547 -10.03916
  Beta  occ. eigenvalues --   -8.02994  -8.01826  -5.99406  -5.99205  -5.99006
  Beta  occ. eigenvalues --   -5.98235  -5.98044  -5.97681  -1.04294  -1.04178
  Beta  occ. eigenvalues --   -0.98281  -0.93975  -0.93805  -0.92901  -0.91460
  Beta  occ. eigenvalues --   -0.91033  -0.75700  -0.71628  -0.67455  -0.64407
  Beta  occ. eigenvalues --   -0.62650  -0.56963  -0.56639  -0.54475  -0.51782
  Beta  occ. eigenvalues --   -0.49009  -0.47417  -0.45044  -0.43730  -0.42929
  Beta  occ. eigenvalues --   -0.40881  -0.40007  -0.38810  -0.38293  -0.37282
  Beta  occ. eigenvalues --   -0.37125  -0.35745  -0.34630  -0.33805  -0.33762
  Beta  occ. eigenvalues --   -0.32746  -0.31594  -0.31363  -0.30415  -0.28633
  Beta  occ. eigenvalues --   -0.27365  -0.26715  -0.26492  -0.25153  -0.24795
  Beta  occ. eigenvalues --   -0.24354  -0.24218  -0.23188  -0.23120  -0.22587
  Beta  occ. eigenvalues --   -0.21936  -0.21077  -0.20808  -0.20415  -0.18832
  Beta  occ. eigenvalues --   -0.17498  -0.11560  -0.09386
  Beta virt. eigenvalues --    0.05467   0.06033   0.07845   0.08460   0.08616
  Beta virt. eigenvalues --    0.09304   0.09933   0.10870   0.11498   0.12216
  Beta virt. eigenvalues --    0.12695   0.13262   0.13547   0.14144   0.14978

 Mulliken charges and spin densities:
               1          2
     1  C   -0.589901   0.191448
     2  C    0.363329  -0.019464
     3  C   -0.410974   0.092044
     4  C   -0.583968  -0.023895
     5  C   -0.505470   0.032754
     6  C   -0.097579   0.403093
     7  C    0.359414  -0.058645
     8  C    0.010428   0.011632
     9  C   -0.871938   0.121268
    10  C   -0.213059   0.064904
    11  O   -0.192464  -0.001666
    12  S    0.584712  -0.041787
    13  O   -0.113337   0.001420
    14  O   -0.205875  -0.005367
    15  O   -0.195096  -0.003675
    16  S    0.434767   0.081740
    17  O   -0.196864   0.017056
    18  O   -0.184089   0.013448
    19  O   -0.160781   0.008679
    20  O   -0.171917   0.002177
    21  H    0.098901  -0.005837
    22  H    0.097286   0.001434
    23  H    0.289516   0.007250
    24  H    0.158847  -0.017855
    25  H    0.164184  -0.001539
    26  H    0.177241   0.064791
    27  H    0.200144   0.042966
    28  H    0.260015   0.013812
    29  H    0.235617   0.006989
    30  H    0.258909   0.000825
 Sum of Mulliken charges =  -1.00000   1.00000

 Dipole moment (field-independent basis, Debye):
    X=             -2.5637    Y=              5.8787    Z=              1.1277  Tot=              6.5118
 Quadrupole moment (field-independent basis, Debye-Ang):
   XX=           -214.8059   YY=           -147.2908   ZZ=           -137.5406
   XY=             -7.1947   XZ=              3.4170   YZ=              2.8136

 Summary of Natural Population Analysis:

                                       Natural Population
                Natural  -----------------------------------------------
    Atom  No    Charge         Core      Valence    Rydberg      Total
 -----------------------------------------------------------------------
      C    1   -0.03444      0.99950     2.02462    0.01033     3.03444
      C    2   -0.03292      0.99947     2.02398    0.00948     3.03292
      C    3   -0.13844      0.99946     2.12983    0.00915     3.13844
      C    4    0.16295      0.99938     1.82333    0.01434     2.83705
      C    5   -0.21608      0.99949     2.20064    0.01596     3.21608
      C    6    0.00992      0.99949     1.97921    0.01138     2.99008
      C    7   -0.03607      0.99947     2.02471    0.01190     3.03607
      C    8   -0.02752      0.99945     2.02065    0.00742     3.02752
      C    9   -0.12748      0.99937     2.11078    0.01732     3.12748
      C   10    0.02948      0.99949     1.95735    0.01369     2.97052
      O   11   -0.38017      0.99990     3.37310    0.00717     4.38017
      S   12    1.13004      4.99923     1.76256    0.10816     6.86996
      O   13   -0.45203      0.99990     3.44621    0.00591     4.45203
      O   14   -0.46358      0.99990     3.45794    0.00574     4.46358
      O   15   -0.44502      0.99990     3.43881    0.00630     4.44502
      S   16    1.13119      4.99941     1.76795    0.10145     6.86881
      O   17   -0.45803      0.99990     3.45099    0.00714     4.45803
      O   18   -0.44921      0.99990     3.44350    0.00580     4.44921
      O   19   -0.43278      0.99991     3.42567    0.00720     4.43278
      O   20   -0.33760      0.99987     3.33061    0.00711     4.33760
      H   21    0.08925      0.00000     0.40895    0.00180     0.41075
      H   22    0.09247      0.00000     0.40562    0.00191     0.40753
      H   23    0.12261      0.00000     0.37591    0.00148     0.37739
      H   24    0.09677      0.00000     0.40153    0.00170     0.40323
      H   25    0.10568      0.00000     0.39306    0.00125     0.39432
      H   26    0.09983      0.00000     0.39779    0.00238     0.40017
      H   27    0.23633      0.00000     0.25976    0.00391     0.26367
      H   28    0.25276      0.00000     0.24247    0.00477     0.24724
      H   29    0.24207      0.00000     0.25378    0.00415     0.25793
      H   30    0.23014      0.00000     0.26744    0.00242     0.26986
 =======================================================================
   * Total *    0.00012     27.99239    54.59875    0.40874    82.99988

 Normal termination of Gaussian 16 at Sat Dec 12 15:48:48 2020.
