 Gaussian 16, Revision A.03,

 -----------------------------------------------------------
 # opt freq B3LYP/6-31G(d) empiricaldispersion=gd3bj scf=xqc
 -----------------------------------------------------------

 -------------------------------
 CID_106997123_JID_9984_neutraal
 -------------------------------
 Symbolic Z-matrix:
 Charge =  0 Multiplicity = 1

 SCF Done:  E(RB3LYP) =  -1241.99555206     A.U. after   15 cycles
 SCF Done:  E(RB3LYP) =  -1242.00200361     A.U. after   12 cycles
 SCF Done:  E(RB3LYP) =  -1242.00316140     A.U. after   12 cycles
 SCF Done:  E(RB3LYP) =  -1242.00396239     A.U. after   12 cycles
 SCF Done:  E(RB3LYP) =  -1242.00513667     A.U. after   14 cycles
 SCF Done:  E(RB3LYP) =  -1242.00583215     A.U. after   12 cycles
 SCF Done:  E(RB3LYP) =  -1242.00550356     A.U. after   12 cycles
 SCF Done:  E(RB3LYP) =  -1242.00633171     A.U. after   12 cycles
 SCF Done:  E(RB3LYP) =  -1242.00642044     A.U. after   11 cycles
 SCF Done:  E(RB3LYP) =  -1242.00646932     A.U. after   11 cycles
 SCF Done:  E(RB3LYP) =  -1242.00651494     A.U. after    8 cycles
 SCF Done:  E(RB3LYP) =  -1242.00651508     A.U. after    7 cycles
 SCF Done:  E(RB3LYP) =  -1242.00651515     A.U. after    7 cycles
 SCF Done:  E(RB3LYP) =  -1242.00651519     A.U. after    6 cycles
 Optimization completed.
    -- Stationary point found.
 Normal termination of Gaussian 16 at Sat Dec 12 10:22:25 2020.

 --------------------------------------------------------------------
 #N Geom=AllCheck Guess=TCheck SCRF=Check GenChk RB3LYP/6-31G(d) Freq
 --------------------------------------------------------------------

 Structure from the checkpoint file:  "JID_9984.chk"
 -------------------------------
 CID_106997123_JID_9984_neutraal
 -------------------------------
 Charge =  0 Multiplicity = 1

 SCF Done:  E(RB3LYP) =  -1242.00651519     A.U. after    1 cycles

  Exact polarizability: 240.075   9.838 161.492 -12.573   8.284 131.687
 Approx polarizability: 290.781  14.969 275.874 -25.266  23.312 205.647

                      1                      2                      3
                      A                      A                      A
 Frequencies --     13.9871                31.8308                43.5867
 Red. masses --      4.8248                 4.0510                 3.8228
 Frc consts  --      0.0006                 0.0024                 0.0043
 IR Inten    --      0.9423                 0.1026                 3.6161

                      4                      5                      6
                      A                      A                      A
 Frequencies --     50.1893                56.3231                62.9325
 Red. masses --      2.9492                 3.5625                 3.3810
 Frc consts  --      0.0044                 0.0067                 0.0079
 IR Inten    --      0.4861                 0.8164                 0.8479

                      7                      8                      9
                      A                      A                      A
 Frequencies --     96.0087               126.3933               148.2426
 Red. masses --      3.8299                 3.8749                 1.4886
 Frc consts  --      0.0208                 0.0365                 0.0193
 IR Inten    --      1.4752                 0.8351                 0.9121

                     10                     11                     12
                      A                      A                      A
 Frequencies --    156.7837               170.9046               208.1205
 Red. masses --      3.1667                 3.3449                 2.2514
 Frc consts  --      0.0459                 0.0576                 0.0575
 IR Inten    --      2.0160                 1.4752                 8.7666

                     13                     14                     15
                      A                      A                      A
 Frequencies --    226.8547               234.3436               236.3201
 Red. masses --      1.1691                 4.8435                 2.1682
 Frc consts  --      0.0354                 0.1567                 0.0713
 IR Inten    --      1.9724                 1.8319                 7.2994

                     16                     17                     18
                      A                      A                      A
 Frequencies --    245.4723               271.8720               276.9410
 Red. masses --      2.4855                 1.4979                 1.3333
 Frc consts  --      0.0882                 0.0652                 0.0602
 IR Inten    --      2.2304                15.3352                22.5168

                     19                     20                     21
                      A                      A                      A
 Frequencies --    290.9241               314.3257               327.2828
 Red. masses --      4.0956                 2.5618                 3.4027
 Frc consts  --      0.2042                 0.1491                 0.2147
 IR Inten    --      3.9336                25.9236                 1.6621

                     22                     23                     24
                      A                      A                      A
 Frequencies --    346.3906               374.9328               395.7160
 Red. masses --      2.5212                 3.5957                 3.4471
 Frc consts  --      0.1782                 0.2978                 0.3180
 IR Inten    --      2.2814                21.6762                 7.6067

                     25                     26                     27
                      A                      A                      A
 Frequencies --    430.0437               438.7459               452.9425
 Red. masses --      5.2608                 3.0903                 3.1606
 Frc consts  --      0.5732                 0.3505                 0.3820
 IR Inten    --     13.0152                 1.5215                 0.2082

                     28                     29                     30
                      A                      A                      A
 Frequencies --    483.4287               494.6026               501.0501
 Red. masses --      2.5598                 2.9995                 4.6183
 Frc consts  --      0.3525                 0.4323                 0.6831
 IR Inten    --      2.9010                11.1754                36.4273

                     31                     32                     33
                      A                      A                      A
 Frequencies --    543.9900               553.9803               574.0499
 Red. masses --      4.4275                 3.1782                 4.0591
 Frc consts  --      0.7719                 0.5747                 0.7881
 IR Inten    --     26.3875                 2.1580                 4.8720

                     34                     35                     36
                      A                      A                      A
 Frequencies --    599.8526               646.7741               669.2376
 Red. masses --      4.8827                 4.7773                 2.7893
 Frc consts  --      1.0351                 1.1774                 0.7360
 IR Inten    --     47.0493                28.1412               119.8338

                     37                     38                     39
                      A                      A                      A
 Frequencies --    721.1010               745.3834               787.6210
 Red. masses --      3.8669                 4.5798                 1.7258
 Frc consts  --      1.1847                 1.4992                 0.6308
 IR Inten    --      8.2945                 2.3082               113.4089

                     40                     41                     42
                      A                      A                      A
 Frequencies --    842.0508               853.2242               879.0069
 Red. masses --      2.3345                 1.2410                 1.2970
 Frc consts  --      0.9753                 0.5323                 0.5905
 IR Inten    --     29.7522                52.2706                64.8999

                     43                     44                     45
                      A                      A                      A
 Frequencies --    906.8947               911.9035               931.8268
 Red. masses --      1.3273                 2.1937                 2.7125
 Frc consts  --      0.6432                 1.0748                 1.3877
 IR Inten    --     15.6261                12.7466                55.4269

                     46                     47                     48
                      A                      A                      A
 Frequencies --    941.5884               943.8162               958.3434
 Red. masses --      2.9373                 1.2913                 1.4730
 Frc consts  --      1.5343                 0.6777                 0.7971
 IR Inten    --     47.8417                 8.1787                11.7659

                     49                     50                     51
                      A                      A                      A
 Frequencies --    988.7967               994.9735              1013.0361
 Red. masses --      2.1961                 1.2959                 1.6696
 Frc consts  --      1.2651                 0.7559                 1.0095
 IR Inten    --    114.3853                 2.1188                22.9771

                     52                     53                     54
                      A                      A                      A
 Frequencies --   1036.3166              1062.1039              1079.6026
 Red. masses --      1.5316                 6.5331                 1.5097
 Frc consts  --      0.9691                 4.3422                 1.0367
 IR Inten    --      4.9876                25.6039                 8.2630

                     55                     56                     57
                      A                      A                      A
 Frequencies --   1091.0554              1110.7723              1122.5417
 Red. masses --      2.6719                 3.3272                 5.1977
 Frc consts  --      1.8740                 2.4187                 3.8589
 IR Inten    --      6.3974                51.3601               160.2409

                     58                     59                     60
                      A                      A                      A
 Frequencies --   1125.7309              1137.3514              1162.2602
 Red. masses --      3.6639                 2.3788                 2.0195
 Frc consts  --      2.7357                 1.8130                 1.6073
 IR Inten    --     18.3496                23.2918                52.3413

                     61                     62                     63
                      A                      A                      A
 Frequencies --   1173.3747              1184.2283              1187.2338
 Red. masses --      1.4719                 2.0407                 1.3164
 Frc consts  --      1.1940                 1.6861                 1.0932
 IR Inten    --     14.1059                86.0484                14.3682

                     64                     65                     66
                      A                      A                      A
 Frequencies --   1202.5240              1214.3047              1265.9232
 Red. masses --      1.4948                 1.8983                 2.8613
 Frc consts  --      1.2736                 1.6492                 2.7017
 IR Inten    --      9.0108                11.8786                 7.5067

                     67                     68                     69
                      A                      A                      A
 Frequencies --   1266.8767              1286.6453              1307.8518
 Red. masses --      1.5144                 1.2008                 3.4962
 Frc consts  --      1.4321                 1.1712                 3.5235
 IR Inten    --     15.0550                10.0946               125.1098

                     70                     71                     72
                      A                      A                      A
 Frequencies --   1311.7581              1329.1576              1362.8160
 Red. masses --      1.4962                 1.6322                 3.2584
 Frc consts  --      1.5169                 1.6990                 3.5656
 IR Inten    --     19.5697                 3.9312                 0.6842

                     73                     74                     75
                      A                      A                      A
 Frequencies --   1380.0318              1386.2981              1395.5728
 Red. masses --      1.2243                 1.3523                 1.2157
 Frc consts  --      1.3738                 1.5313                 1.3950
 IR Inten    --     60.9702                 7.8647                 1.3851

                     76                     77                     78
                      A                      A                      A
 Frequencies --   1425.2328              1430.6254              1444.0437
 Red. masses --      1.7704                 1.3167                 1.2301
 Frc consts  --      2.1188                 1.5878                 1.5112
 IR Inten    --     14.7439                 8.5121                 5.1855

                     79                     80                     81
                      A                      A                      A
 Frequencies --   1446.0538              1450.8718              1451.7527
 Red. masses --      1.2849                 1.3079                 1.3098
 Frc consts  --      1.5830                 1.6221                 1.6265
 IR Inten    --      4.0683                48.6732                11.4649

                     82                     83                     84
                      A                      A                      A
 Frequencies --   1466.2465              1506.1198              1510.1122
 Red. masses --      2.2213                 1.0486                 1.0863
 Frc consts  --      2.8137                 1.4015                 1.4595
 IR Inten    --     33.2314                 3.8915                 2.8582

                     85                     86                     87
                      A                      A                      A
 Frequencies --   1512.5780              1516.9769              1517.9557
 Red. masses --      1.0482                 1.7986                 1.0809
 Frc consts  --      1.4130                 2.4385                 1.4675
 IR Inten    --      1.4904                14.7217                 3.8037

                     88                     89                     90
                      A                      A                      A
 Frequencies --   1527.9855              1529.3514              1540.0481
 Red. masses --      1.0586                 1.0929                 1.2086
 Frc consts  --      1.4561                 1.5061                 1.6889
 IR Inten    --      3.6764                 7.9808                17.8764

                     91                     92                     93
                      A                      A                      A
 Frequencies --   1540.8097              1552.9548              1626.8444
 Red. masses --      1.1242                 1.0783                 6.2768
 Frc consts  --      1.5724                 1.5322                 9.7878
 IR Inten    --      1.2863                13.0597                 6.6496

                     94                     95                     96
                      A                      A                      A
 Frequencies --   1663.2299              1695.0521              2965.7205
 Red. masses --      5.5937                 1.1002                 1.0729
 Frc consts  --      9.1170                 1.8625                 5.5600
 IR Inten    --     18.3733                36.4657                67.3591

                     97                     98                     99
                      A                      A                      A
 Frequencies --   2999.1993              3009.3836              3042.3872
 Red. masses --      1.0825                 1.0718                 1.0879
 Frc consts  --      5.7369                 5.7189                 5.9329
 IR Inten    --     19.5179                90.6984                25.3600

                    100                    101                    102
                      A                      A                      A
 Frequencies --   3052.1064              3057.8917              3066.7754
 Red. masses --      1.0366                 1.0358                 1.0355
 Frc consts  --      5.6893                 5.7067                 5.7379
 IR Inten    --      9.8648                19.7230                16.6826

                    103                    104                    105
                      A                      A                      A
 Frequencies --   3076.9587              3111.4921              3117.0647
 Red. masses --      1.0641                 1.0926                 1.1024
 Frc consts  --      5.9359                 6.2322                 6.3110
 IR Inten    --     22.5391                10.7329                13.6990

                    106                    107                    108
                      A                      A                      A
 Frequencies --   3128.0286              3132.1897              3133.4207
 Red. masses --      1.1019                 1.1035                 1.1007
 Frc consts  --      6.3526                 6.3785                 6.3672
 IR Inten    --     54.5642                12.3967                 5.6472

                    109                    110                    111
                      A                      A                      A
 Frequencies --   3135.7517              3140.8597              3145.0161
 Red. masses --      1.1032                 1.1007                 1.1030
 Frc consts  --      6.3914                 6.3975                 6.4280
 IR Inten    --     27.1932                14.7179                 9.8033

                    112                    113                    114
                      A                      A                      A
 Frequencies --   3173.5000              3224.1150              3237.4181
 Red. masses --      1.0895                 1.0880                 1.0937
 Frc consts  --      6.4649                 6.6636                 6.7537
 IR Inten    --     19.4631                 0.6742                 0.8167

                    115                    116                    117
                      A                      A                      A
 Frequencies --   3473.9217              3495.4698              3562.5118
 Red. masses --      1.0500                 1.0733                 1.0929
 Frc consts  --      7.4655                 7.7263                 8.1719
 IR Inten    --      1.0576                68.6555                 0.3476

 - Thermochemistry -
 -------------------
 Temperature   298.150 Kelvin.  Pressure   1.00000 Atm.
 Atom     1 has atomic number  6 and mass  12.00000

 Molecular mass:   286.13511 amu.
 Principal axes and moments of inertia in atomic units:
                           1         2         3
     Eigenvalues --  1970.45115********************
           X            1.00000  -0.00093  -0.00273
           Y            0.00109   0.99834   0.05753
           Z            0.00267  -0.05753   0.99834
 This molecule is an asymmetric top.
 Rotational symmetry number  1.
 Warning -- assumption of classical behavior for rotation
           may cause significant error
 Rotational temperatures (Kelvin)      0.04396     0.00703     0.00686
 Rotational constants (GHZ):           0.91590     0.14651     0.14288
 Zero-point vibrational energy     918333.1 (Joules/Mol)
                                  219.48687 (Kcal/Mol)
 Warning -- explicit consideration of  34 degrees of freedom as
           vibrations may cause significant error
 Vibrational temperatures:     20.12    45.80    62.71    72.21    81.04
          (Kelvin)             90.55   138.14   181.85   213.29   225.58
                              245.89   299.44   326.39   337.17   340.01
                              353.18   391.16   398.46   418.57   452.24
                              470.89   498.38   539.44   569.35   618.74
                              631.26   651.68   695.55   711.62   720.90
                              782.68   797.05   825.93   863.05   930.56
                              962.88  1037.50  1072.44  1133.21  1211.52
                             1227.60  1264.69  1304.82  1312.03  1340.69
                             1354.74  1357.94  1378.84  1422.66  1431.54
                             1457.53  1491.03  1528.13  1553.31  1569.79
                             1598.15  1615.09  1619.68  1636.40  1672.23
                             1688.22  1703.84  1708.16  1730.16  1747.11
                             1821.38  1822.75  1851.20  1881.71  1887.33
                             1912.36  1960.79  1985.56  1994.57  2007.92
                             2050.59  2058.35  2077.66  2080.55  2087.48
                             2088.75  2109.60  2166.97  2172.71  2176.26
                             2182.59  2184.00  2198.43  2200.40  2215.79
                             2216.88  2234.36  2340.67  2393.02  2438.80
                             4267.01  4315.18  4329.83  4377.32  4391.30
                             4399.62  4412.41  4427.06  4476.74  4484.76
                             4500.54  4506.52  4508.29  4511.65  4519.00
                             4524.98  4565.96  4638.78  4657.92  4998.20
                             5029.20  5125.66

 Zero-point correction=                           0.349775 (Hartree/Particle)
 Thermal correction to Energy=                    0.370594
 Thermal correction to Enthalpy=                  0.371539
 Thermal correction to Gibbs Free Energy=         0.298510
 Sum of electronic and zero-point Energies=          -1241.656741
 Sum of electronic and thermal Energies=             -1241.635921
 Sum of electronic and thermal Enthalpies=           -1241.634977
 Sum of electronic and thermal Free Energies=        -1241.708006

                     E (Thermal)             CV                S
                      KCal/Mol        Cal/Mol-Kelvin    Cal/Mol-Kelvin
 Total                  232.552             77.655            153.702
 Electronic               0.000              0.000              0.000
 Translational            0.889              2.981             42.852
 Rotational               0.889              2.981             34.082
 Vibrational            230.774             71.693             76.768
 Vibration     1          0.593              1.986              7.344
 Vibration     2          0.594              1.983              5.712
 Vibration     3          0.595              1.980              5.089
 Vibration     4          0.595              1.978              4.810
 Vibration     5          0.596              1.975              4.582
 Vibration     6          0.597              1.972              4.363
 Vibration     7          0.603              1.952              3.534
 Vibration     8          0.611              1.927              3.000
 Vibration     9          0.618              1.905              2.695
 Vibration    10          0.620              1.895              2.588
 Vibration    11          0.626              1.878              2.426
 Vibration    12          0.641              1.828              2.060
 Vibration    13          0.651              1.800              1.904
 Vibration    14          0.654              1.788              1.845
 Vibration    15          0.655              1.785              1.830
 Vibration    16          0.660              1.770              1.763
 Vibration    17          0.675              1.725              1.584
 Vibration    18          0.678              1.716              1.552
 Vibration    19          0.687              1.691              1.469
 Vibration    20          0.702              1.646              1.339
 Vibration    21          0.711              1.621              1.273
 Vibration    22          0.724              1.583              1.183
 Vibration    23          0.746              1.523              1.060
 Vibration    24          0.762              1.479              0.979
 Vibration    25          0.791              1.405              0.859
 Vibration    26          0.799              1.386              0.831
 Vibration    27          0.811              1.354              0.787
 Vibration    28          0.840              1.287              0.701
 Vibration    29          0.850              1.262              0.672
 Vibration    30          0.856              1.248              0.656
 Vibration    31          0.899              1.153              0.557
 Vibration    32          0.909              1.131              0.536
 Vibration    33          0.930              1.087              0.497
 Vibration    34          0.958              1.032              0.450

 Optimization completed.
    -- Stationary point found.
 Normal termination of Gaussian 16 at Sat Dec 12 10:41:25 2020.

 ----------------------------------------------------------------------
 # B3LYP/6-311++G(d,p) empiricaldispersion=gd3bj scf=xqc pop=npa geom=c
 heck
 ----------------------------------------------------------------------

 ---------------------------------------
 CID_106997123_JID_9984_Energie_neutraal
 ---------------------------------------
 Structure from the checkpoint file:  "JID_9984.chk"
 Charge =  0 Multiplicity = 1

 SCF Done:  E(RB3LYP) =  -1242.27966355     A.U. after   16 cycles
 Normal termination of Gaussian 16 at Sat Dec 12 10:51:48 2020.

 ----------------------------------------------------------------------
 # B3LYP/6-311++G(d,p) empiricaldispersion=gd3bj scf=xqc pop=npa geom=c
 heck
 ----------------------------------------------------------------------

 -------------------------------------
 CID_106997123_JID_9984_Energie_kation
 -------------------------------------
 Structure from the checkpoint file:  "JID_9984.chk"
 Charge =  1 Multiplicity = 2

 SCF Done:  E(UB3LYP) =  -1241.97079918     A.U. after   33 cycles
 SCF Done:  E(UB3LYP) =  -1241.97079918     a.u. after    1 cycles
 Normal termination of Gaussian 16 at Sat Dec 12 11:22:09 2020.
 Gaussian 16:  ES64L-G16RevA.03 25-Dec-2016

 ----------------------------------------------------------------------
 # B3LYP/6-311++G(d,p) empiricaldispersion=gd3bj scf=xqc pop=npa geom=c
 heck
 ----------------------------------------------------------------------

 ------------------------------------
 CID_106997123_JID_9984_Energie_anion
 ------------------------------------
 Structure from the checkpoint file:  "JID_9984.chk"
 Charge = -1 Multiplicity = 2

                         Standard orientation:
 ---------------------------------------------------------------------
 Center     Atomic      Atomic             Coordinates (Angstroms)
 Number     Number       Type             X           Y           Z
 ---------------------------------------------------------------------
      1          6           0       -1.357810    2.584638    0.554506
      2          6           0       -2.008606    1.259121    0.255876
      3          6           0       -1.325290    0.173243   -0.325806
      4          6           0       -1.967894   -1.034775   -0.601815
      5          6           0       -3.313971   -1.196193   -0.287175
      6          6           0       -4.022060   -0.144373    0.299079
      7          6           0       -3.359811    1.061240    0.552860
      8          6           0       -5.479830   -0.303142    0.680075
      9          7           0       -6.168167   -1.249974   -0.199617
     10         16           0        0.400828    0.292252   -0.786348
     11          8           0        0.774272   -1.002059   -1.382305
     12          8           0        0.664524    1.533114   -1.524081
     13          7           0        1.136256    0.514632    0.718236
     14          6           0        1.450582   -0.685541    1.507707
     15          6           0        2.738826   -1.361141    1.045483
     16          8           0        3.747130   -0.360646    1.035735
     17          6           0        4.785202   -0.554335    0.061955
     18          6           0        4.316418   -0.120349   -1.326893
     19          6           0        5.981849    0.250681    0.550447
     20          1           0       -0.507851    2.453175    1.231576
     21          1           0       -0.966142    3.044265   -0.357097
     22          1           0       -2.077141    3.266341    1.016557
     23          1           0       -1.401452   -1.835242   -1.063482
     24          1           0       -3.828353   -2.126914   -0.498810
     25          1           0       -3.915468    1.885572    0.994937
     26          1           0       -5.535497   -0.709431    1.699750
     27          1           0       -5.942707    0.698290    0.724929
     28          1           0       -7.119731   -1.397554    0.129661
     29          1           0       -6.239747   -0.856982   -1.136912
     30          1           0        1.981909    1.067297    0.568083
     31          1           0        1.551665   -0.356936    2.547354
     32          1           0        0.605649   -1.378350    1.458297
     33          1           0        3.011208   -2.174877    1.735873
     34          1           0        2.587803   -1.785190    0.048557
     35          1           0        5.051897   -1.622791    0.043379
     36          1           0        4.072857    0.948448   -1.325766
     37          1           0        5.105127   -0.291050   -2.068419
     38          1           0        3.424877   -0.666520   -1.648316
     39          1           0        6.825835    0.145863   -0.139393
     40          1           0        5.718682    1.312486    0.614150
     41          1           0        6.293669   -0.086245    1.543729
 ---------------------------------------------------------------------

 SCF Done:  E(UB3LYP) =  -1242.27640969     A.U. after   33 cycles
 SCF Done:  E(UB3LYP) =  -1242.27640969     a.u. after    1 cycles

 The electronic state is 2-A.
 Alpha  occ. eigenvalues --  -88.95063 -19.04531 -19.00810 -19.00633 -14.23866
 Alpha  occ. eigenvalues --  -14.18723 -10.14679 -10.13449 -10.12379 -10.08786
 Alpha  occ. eigenvalues --  -10.08440 -10.07758 -10.07646 -10.07596 -10.06358
 Alpha  occ. eigenvalues --  -10.05924 -10.05820 -10.05658 -10.05052  -8.01220
 Alpha  occ. eigenvalues --   -5.97531  -5.97483  -5.97269  -1.00907  -0.95811
 Alpha  occ. eigenvalues --   -0.89914  -0.82729  -0.78146  -0.74956  -0.71120
 Alpha  occ. eigenvalues --   -0.66992  -0.65862  -0.64713  -0.61277  -0.58970
 Alpha  occ. eigenvalues --   -0.57221  -0.55071  -0.52311  -0.50346  -0.49080
 Alpha  occ. eigenvalues --   -0.45973  -0.43458  -0.41719  -0.41204  -0.40144
 Alpha  occ. eigenvalues --   -0.38908  -0.38404  -0.37643  -0.36303  -0.35491
 Alpha  occ. eigenvalues --   -0.34121  -0.33924  -0.32748  -0.32516  -0.32104
 Alpha  occ. eigenvalues --   -0.31553  -0.31142  -0.30159  -0.29961  -0.29826
 Alpha  occ. eigenvalues --   -0.29283  -0.28079  -0.27958  -0.27518  -0.24892
 Alpha  occ. eigenvalues --   -0.24591  -0.23937  -0.23865  -0.23416  -0.21917
 Alpha  occ. eigenvalues --   -0.20240  -0.19716  -0.18470  -0.17666  -0.14922
 Alpha  occ. eigenvalues --   -0.14128  -0.13340   0.04028
 Alpha virt. eigenvalues --    0.04982   0.06626   0.07091   0.07448   0.08014
 Alpha virt. eigenvalues --    0.08712   0.08989   0.09541   0.09712   0.09910
 Alpha virt. eigenvalues --    0.10097   0.10482   0.10899   0.11666   0.12095

  Beta  occ. eigenvalues --  -88.95056 -19.04524 -19.00789 -19.00589 -14.23840
  Beta  occ. eigenvalues --  -14.18662 -10.14674 -10.13448 -10.12380 -10.08791
  Beta  occ. eigenvalues --  -10.08421 -10.07649 -10.07592 -10.07469 -10.06294
  Beta  occ. eigenvalues --  -10.05934 -10.05852 -10.05398 -10.05050  -8.01212
  Beta  occ. eigenvalues --   -5.97518  -5.97457  -5.97268  -1.00816  -0.95801
  Beta  occ. eigenvalues --   -0.89839  -0.82675  -0.77987  -0.74704  -0.71100
  Beta  occ. eigenvalues --   -0.66713  -0.65678  -0.64573  -0.61255  -0.58777
  Beta  occ. eigenvalues --   -0.57116  -0.55015  -0.52229  -0.50298  -0.48992
  Beta  occ. eigenvalues --   -0.45720  -0.43371  -0.41656  -0.41133  -0.40104
  Beta  occ. eigenvalues --   -0.38784  -0.38353  -0.37546  -0.36254  -0.35466
  Beta  occ. eigenvalues --   -0.34045  -0.33781  -0.32694  -0.32432  -0.32012
  Beta  occ. eigenvalues --   -0.31357  -0.31126  -0.30135  -0.29903  -0.29784
  Beta  occ. eigenvalues --   -0.29078  -0.28024  -0.27928  -0.27500  -0.24626
  Beta  occ. eigenvalues --   -0.24435  -0.23861  -0.23545  -0.23329  -0.21836
  Beta  occ. eigenvalues --   -0.20164  -0.19567  -0.18454  -0.17537  -0.14448
  Beta  occ. eigenvalues --   -0.13655  -0.12584
  Beta virt. eigenvalues --    0.05380   0.06884   0.07103   0.07418   0.08050
  Beta virt. eigenvalues --    0.08343   0.08778   0.09271   0.09674   0.09804
  Beta virt. eigenvalues --    0.09990   0.10223   0.10535   0.11065   0.11722

 Mulliken charges and spin densities:
               1          2
     1  C   -0.429451  -0.006315
     2  C    0.288661  -0.105367
     3  C   -0.299299   0.023159
     4  C   -0.073745   0.269141
     5  C   -0.347884  -0.235279
     6  C   -0.043808   0.632840
     7  C   -0.710377   0.135895
     8  C    0.902301  -1.219177
     9  N   -0.373352   0.030509
    10  S   -0.110703  -0.009550
    11  O   -0.048823   0.001161
    12  O   -0.164938  -0.015318
    13  N   -0.138218  -0.020806
    14  C   -0.379554  -0.007847
    15  C   -0.314478   0.002367
    16  O   -0.044741   0.006420
    17  C   -0.356459   0.253233
    18  C   -0.326488  -0.111718
    19  C    0.250068  -0.702166
    20  H    0.176998   0.000840
    21  H    0.177467   0.016855
    22  H    0.126294   0.015042
    23  H    0.202611   0.014486
    24  H    0.198314  -0.010361
    25  H    0.111973  -0.029654
    26  H   -0.245331   0.428376
    27  H   -0.091205   0.251641
    28  H   -0.247999   0.495273
    29  H    0.050648   0.148468
    30  H    0.281849   0.008517
    31  H    0.191004   0.000048
    32  H    0.196489   0.001437
    33  H    0.120962   0.031063
    34  H    0.189638  -0.007672
    35  H    0.027661   0.099617
    36  H    0.151129   0.000003
    37  H    0.078264   0.057889
    38  H    0.134566   0.017225
    39  H   -0.107857   0.243432
    40  H    0.053183   0.094404
    41  H   -0.055372   0.201889
 Sum of Mulliken charges =  -1.00000   1.00000

 Dipole moment (field-independent basis, Debye):
    X=              8.0462    Y=              1.2195    Z=              1.5290  Tot=              8.2805
 Quadrupole moment (field-independent basis, Debye-Ang):
   XX=           -260.0502   YY=           -145.4417   ZZ=           -148.0160
   XY=            -19.8373   XZ=              5.9448   YZ=              2.3341

 Summary of Natural Population Analysis:

                                       Natural Population
                Natural  -----------------------------------------------
    Atom  No    Charge         Core      Valence    Rydberg      Total
 -----------------------------------------------------------------------
      C    1   -0.29717      0.99960     2.29312    0.00446     3.29717
      C    2    0.01078      0.99949     1.98017    0.00956     2.98922
      C    3   -0.12026      0.99929     2.10589    0.01508     3.12026
      C    4   -0.07922      0.99952     2.06999    0.00970     3.07922
      C    5   -0.11314      0.99951     2.10330    0.01033     3.11314
      C    6    0.03610      0.99951     1.95444    0.00995     2.96390
      C    7   -0.11083      0.99945     2.10277    0.00862     3.11083
      C    8   -0.09634      0.99960     2.08439    0.01235     3.09634
      N    9   -0.42051      0.99978     2.90971    0.01102     3.92051
      S   10    1.10990      4.99918     1.79313    0.09779     6.89010
      O   11   -0.47661      0.99991     3.47105    0.00565     4.47661
      O   12   -0.46634      0.99991     3.46152    0.00492     4.46634
      N   13   -0.43432      0.99977     2.92226    0.01229     3.93432
      C   14   -0.10337      0.99963     2.09175    0.01199     3.10337
      C   15   -0.02202      0.99958     2.01084    0.01160     3.02202
      O   16   -0.31717      0.99988     3.30647    0.01082     4.31717
      C   17    0.06487      0.99958     1.92201    0.01354     2.93513
      C   18   -0.30690      0.99964     2.29973    0.00753     3.30690
      C   19   -0.29142      0.99964     2.28540    0.00638     3.29142
      H   20    0.11022      0.00000     0.38874    0.00104     0.38978
      H   21    0.11420      0.00000     0.38482    0.00098     0.38580
      H   22    0.09470      0.00000     0.40441    0.00089     0.40530
      H   23    0.11066      0.00000     0.38825    0.00109     0.38934
      H   24    0.10950      0.00000     0.38931    0.00119     0.39050
      H   25    0.09345      0.00000     0.40529    0.00126     0.40655
      H   26    0.10019      0.00000     0.39749    0.00232     0.39981
      H   27    0.07913      0.00000     0.41935    0.00152     0.42087
      H   28    0.17781      0.00000     0.31745    0.00474     0.32219
      H   29    0.17211      0.00000     0.32621    0.00168     0.32789
      H   30    0.19772      0.00000     0.29993    0.00235     0.30228
      H   31    0.09702      0.00000     0.40207    0.00091     0.40298
      H   32    0.10857      0.00000     0.39058    0.00085     0.39143
      H   33    0.07985      0.00000     0.41917    0.00098     0.42015
      H   34    0.09706      0.00000     0.40167    0.00127     0.40294
      H   35    0.07733      0.00000     0.42136    0.00132     0.42267
      H   36    0.10153      0.00000     0.39732    0.00115     0.39847
      H   37    0.09839      0.00000     0.40084    0.00077     0.40161
      H   38    0.11257      0.00000     0.38622    0.00121     0.38743
      H   39    0.09969      0.00000     0.39944    0.00087     0.40031
      H   40    0.10027      0.00000     0.39869    0.00104     0.39973
      H   41    0.10206      0.00000     0.39681    0.00113     0.39794
 =======================================================================
   * Total *    0.00005     22.99245    53.70334    0.30415    76.99995

 Normal termination of Gaussian 16 at Sat Dec 12 11:49:21 2020.
