 Gaussian 16, Revision A.03,

 -----------------------------------------------------------
 # opt freq B3LYP/6-31G(d) empiricaldispersion=gd3bj scf=xqc
 -----------------------------------------------------------

 ------------------------------
 CID_79695416_JID_8912_neutraal
 ------------------------------
 Symbolic Z-matrix:
 Charge =  0 Multiplicity = 1

 SCF Done:  E(RB3LYP) =  -829.005171043     A.U. after   14 cycles
 SCF Done:  E(RB3LYP) =  -829.012039007     A.U. after   12 cycles
 SCF Done:  E(RB3LYP) =  -829.014171810     A.U. after   12 cycles
 SCF Done:  E(RB3LYP) =  -829.016054955     A.U. after   13 cycles
 SCF Done:  E(RB3LYP) =  -829.018027618     A.U. after   12 cycles
 SCF Done:  E(RB3LYP) =  -829.019466449     A.U. after   12 cycles
 SCF Done:  E(RB3LYP) =  -829.021235963     A.U. after   12 cycles
 SCF Done:  E(RB3LYP) =  -829.022167842     A.U. after   12 cycles
 SCF Done:  E(RB3LYP) =  -829.022399923     A.U. after   12 cycles
 SCF Done:  E(RB3LYP) =  -829.022857895     A.U. after   11 cycles
 SCF Done:  E(RB3LYP) =  -829.022897085     A.U. after    9 cycles
 SCF Done:  E(RB3LYP) =  -829.022899148     A.U. after    9 cycles
 SCF Done:  E(RB3LYP) =  -829.022899144     A.U. after    7 cycles
 SCF Done:  E(RB3LYP) =  -829.022899224     A.U. after    6 cycles
 SCF Done:  E(RB3LYP) =  -829.022899174     A.U. after    6 cycles
 Optimization completed.
    -- Stationary point found.
 Normal termination of Gaussian 16 at Fri Dec 11 23:03:30 2020.

 --------------------------------------------------------------------
 #N Geom=AllCheck Guess=TCheck SCRF=Check GenChk RB3LYP/6-31G(d) Freq
 --------------------------------------------------------------------

 Structure from the checkpoint file:  "JID_8912.chk"
 ------------------------------
 CID_79695416_JID_8912_neutraal
 ------------------------------
 Charge =  0 Multiplicity = 1

 SCF Done:  E(RB3LYP) =  -829.022899174     A.U. after    1 cycles

  Exact polarizability: 181.257  -0.862 150.303   2.902   3.201 139.685
 Approx polarizability: 213.218  -2.159 221.783  10.033  -2.714 221.604

                      1                      2                      3
                      A                      A                      A
 Frequencies --     17.0825                32.7955                35.8743
 Red. masses --      5.0728                 4.4426                 3.6584
 Frc consts  --      0.0009                 0.0028                 0.0028
 IR Inten    --      0.1721                 0.0190                 0.2574

                      4                      5                      6
                      A                      A                      A
 Frequencies --     43.3587                50.8148                79.4908
 Red. masses --      5.0834                 3.7830                 6.3467
 Frc consts  --      0.0056                 0.0058                 0.0236
 IR Inten    --      1.2058                 0.5900                 2.1668

                      7                      8                      9
                      A                      A                      A
 Frequencies --    100.9588               114.1960               170.2546
 Red. masses --      3.7011                 4.0127                 2.1534
 Frc consts  --      0.0222                 0.0308                 0.0368
 IR Inten    --      0.7075                 0.0841                 0.4631

                     10                     11                     12
                      A                      A                      A
 Frequencies --    202.0208               217.6486               237.4727
 Red. masses --      2.2368                 4.3007                 2.6208
 Frc consts  --      0.0538                 0.1200                 0.0871
 IR Inten    --      1.2446                 2.2535                 0.4964

                     13                     14                     15
                      A                      A                      A
 Frequencies --    243.8142               265.5791               293.2523
 Red. masses --      1.2773                 3.1299                 2.1438
 Frc consts  --      0.0447                 0.1301                 0.1086
 IR Inten    --      0.3671                 2.1167                 2.0033

                     16                     17                     18
                      A                      A                      A
 Frequencies --    315.0704               346.9590               371.0986
 Red. masses --      2.9823                 2.2058                 2.3015
 Frc consts  --      0.1744                 0.1564                 0.1867
 IR Inten    --      1.3325                 2.8593                 1.2479

                     19                     20                     21
                      A                      A                      A
 Frequencies --    393.5303               402.4917               420.9093
 Red. masses --      2.0511                 2.0364                 1.7803
 Frc consts  --      0.1872                 0.1944                 0.1858
 IR Inten    --      3.2455                 0.0386                 0.0990

                     22                     23                     24
                      A                      A                      A
 Frequencies --    436.2422               458.1083               487.7386
 Red. masses --      2.3559                 2.1767                 2.9060
 Frc consts  --      0.2642                 0.2691                 0.4073
 IR Inten    --      5.1266                 1.0361                 0.0123

                     25                     26                     27
                      A                      A                      A
 Frequencies --    506.2643               543.0026               573.8814
 Red. masses --      3.1744                 2.4250                 2.8846
 Frc consts  --      0.4794                 0.4213                 0.5597
 IR Inten    --      1.1513                31.6666                 5.1328

                     28                     29                     30
                      A                      A                      A
 Frequencies --    589.2861               635.3204               656.6781
 Red. masses --      2.4460                 2.2338                 2.2299
 Frc consts  --      0.5005                 0.5312                 0.5666
 IR Inten    --      9.0021                27.3645                 3.0425

                     31                     32                     33
                      A                      A                      A
 Frequencies --    716.9928               737.4011               763.6033
 Red. masses --      1.6682                 2.8236                 2.2723
 Frc consts  --      0.5053                 0.9046                 0.7806
 IR Inten    --    118.3793                 6.9510                 3.5406

                     34                     35                     36
                      A                      A                      A
 Frequencies --    817.0869               832.7983               860.7764
 Red. masses --      2.4870                 1.6856                 2.7054
 Frc consts  --      0.9783                 0.6888                 1.1810
 IR Inten    --      8.6690                 0.9451                 5.1192

                     37                     38                     39
                      A                      A                      A
 Frequencies --    876.2711               891.0361               903.3887
 Red. masses --      2.3545                 2.1301                 1.8135
 Frc consts  --      1.0652                 0.9964                 0.8720
 IR Inten    --      8.5151                 2.6557                 1.3695

                     40                     41                     42
                      A                      A                      A
 Frequencies --    946.1048               948.9152               955.9314
 Red. masses --      2.3050                 2.1697                 2.2283
 Frc consts  --      1.2156                 1.1511                 1.1997
 IR Inten    --      2.9014                 9.5324                 1.6282

                     43                     44                     45
                      A                      A                      A
 Frequencies --    972.2644               975.6940               996.9542
 Red. masses --      1.6524                 1.6358                 1.7616
 Frc consts  --      0.9203                 0.9175                 1.0316
 IR Inten    --      7.5397                 0.7342                 5.8124

                     46                     47                     48
                      A                      A                      A
 Frequencies --   1005.3743              1017.8988              1028.7025
 Red. masses --      1.8540                 2.1068                 2.0310
 Frc consts  --      1.1041                 1.2861                 1.2663
 IR Inten    --      4.9308                 8.3491                13.4586

                     49                     50                     51
                      A                      A                      A
 Frequencies --   1029.7415              1046.2066              1071.4784
 Red. masses --      1.8682                 2.2551                 1.6991
 Frc consts  --      1.1672                 1.4543                 1.1493
 IR Inten    --      1.2113                 1.0639                14.8083

                     52                     53                     54
                      A                      A                      A
 Frequencies --   1078.8590              1109.9687              1133.1892
 Red. masses --      2.6039                 2.0457                 1.8458
 Frc consts  --      1.7857                 1.4849                 1.3965
 IR Inten    --     15.3621                 0.5970                83.8648

                     55                     56                     57
                      A                      A                      A
 Frequencies --   1136.3545              1145.3010              1146.9655
 Red. masses --      2.3556                 1.2347                 2.8802
 Frc consts  --      1.7922                 0.9543                 2.2324
 IR Inten    --      6.2405                11.9267                54.3502

                     58                     59                     60
                      A                      A                      A
 Frequencies --   1174.5892              1185.2065              1189.4909
 Red. masses --      1.6273                 2.2442                 2.3766
 Frc consts  --      1.3228                 1.8573                 1.9812
 IR Inten    --     22.7542               139.1729                 7.0084

                     61                     62                     63
                      A                      A                      A
 Frequencies --   1204.7434              1216.8927              1222.9655
 Red. masses --      2.2520                 1.2930                 1.5883
 Frc consts  --      1.9258                 1.1281                 1.3997
 IR Inten    --     12.5455                 6.7278                13.5157

                     64                     65                     66
                      A                      A                      A
 Frequencies --   1241.8537              1262.6573              1267.8098
 Red. masses --      1.6930                 1.2504                 1.3925
 Frc consts  --      1.5383                 1.1745                 1.3187
 IR Inten    --     51.9298                19.9428                22.1358

                     67                     68                     69
                      A                      A                      A
 Frequencies --   1276.1619              1301.3425              1311.6138
 Red. masses --      1.3165                 1.3480                 1.4996
 Frc consts  --      1.2632                 1.3450                 1.5200
 IR Inten    --     12.6894                10.0612                 2.0862

                     70                     71                     72
                      A                      A                      A
 Frequencies --   1316.6566              1330.3014              1332.9360
 Red. masses --      1.6038                 1.5303                 1.4313
 Frc consts  --      1.6381                 1.5956                 1.4983
 IR Inten    --      8.9018                 9.9485                 7.9208

                     73                     74                     75
                      A                      A                      A
 Frequencies --   1341.0648              1350.0601              1368.9167
 Red. masses --      1.3282                 1.2988                 1.6022
 Frc consts  --      1.4073                 1.3948                 1.7689
 IR Inten    --     35.8688                 0.0868                 3.0418

                     76                     77                     78
                      A                      A                      A
 Frequencies --   1381.1332              1394.6886              1400.2587
 Red. masses --      1.6034                 1.4285                 1.4394
 Frc consts  --      1.8020                 1.6372                 1.6628
 IR Inten    --      4.2115                 7.7259                 6.7561

                     79                     80                     81
                      A                      A                      A
 Frequencies --   1401.7218              1405.1902              1420.0598
 Red. masses --      1.3096                 1.6441                 1.4710
 Frc consts  --      1.5161                 1.9127                 1.7478
 IR Inten    --      5.4300                 4.3183                 6.2349

                     82                     83                     84
                      A                      A                      A
 Frequencies --   1425.6850              1433.7139              1443.3990
 Red. masses --      1.5373                 1.6224                 1.3345
 Frc consts  --      1.8411                 1.9649                 1.6381
 IR Inten    --     18.2100                47.6434                10.8965

                     85                     86                     87
                      A                      A                      A
 Frequencies --   1444.5398              1499.8691              1501.3888
 Red. masses --      1.2932                 1.1046                 1.0915
 Frc consts  --      1.5899                 1.4640                 1.4496
 IR Inten    --     14.6912                13.6702                 2.4945

                     88                     89                     90
                      A                      A                      A
 Frequencies --   1512.7976              1513.6488              1518.4947
 Red. masses --      1.0771                 1.0937                 1.0816
 Frc consts  --      1.4524                 1.4764                 1.4694
 IR Inten    --      5.4696                 2.8792                 6.5896

                     91                     92                     93
                      A                      A                      A
 Frequencies --   1522.3547              1527.6992              1529.2529
 Red. masses --      1.0833                 1.0872                 1.0842
 Frc consts  --      1.4792                 1.4949                 1.4939
 IR Inten    --      0.4195                 1.0129                 2.0352

                     94                     95                     96
                      A                      A                      A
 Frequencies --   1531.6748              1535.1106              1545.0420
 Red. masses --      1.0626                 1.1007                 1.0616
 Frc consts  --      1.4688                 1.5283                 1.4931
 IR Inten    --     10.3908                 0.9618                12.0584

                     97                     98                     99
                      A                      A                      A
 Frequencies --   1556.6180              1843.3236              2908.3974
 Red. masses --      1.1121                 9.3408                 1.0743
 Frc consts  --      1.5877                18.6998                 5.3540
 IR Inten    --      3.1979               211.6952                73.6545

                    100                    101                    102
                      A                      A                      A
 Frequencies --   2962.6709              2968.3349              2974.0761
 Red. masses --      1.0671                 1.0721                 1.0699
 Frc consts  --      5.5185                 5.5654                 5.5759
 IR Inten    --     36.5231                27.7169                72.0014

                    103                    104                    105
                      A                      A                      A
 Frequencies --   2976.4578              3037.5539              3037.9422
 Red. masses --      1.0728                 1.0616                 1.0603
 Frc consts  --      5.5997                 5.7709                 5.7654
 IR Inten    --     82.9356                11.0144                39.9225

                    106                    107                    108
                      A                      A                      A
 Frequencies --   3041.3161              3044.1968              3046.6680
 Red. masses --      1.0474                 1.0616                 1.0629
 Frc consts  --      5.7082                 5.7965                 5.8127
 IR Inten    --     11.7620                21.2375                 3.9705

                    109                    110                    111
                      A                      A                      A
 Frequencies --   3052.7799              3059.4410              3062.8606
 Red. masses --      1.0725                 1.0753                 1.0835
 Frc consts  --      5.8887                 5.9300                 5.9887
 IR Inten    --     33.3117                28.5599                10.5073

                    112                    113                    114
                      A                      A                      A
 Frequencies --   3063.6588              3067.5115              3081.0732
 Red. masses --      1.0933                 1.0936                 1.1036
 Frc consts  --      6.0459                 6.0632                 6.1726
 IR Inten    --     47.7470                27.8603                44.2231

                    115                    116                    117
                      A                      A                      A
 Frequencies --   3084.8654              3092.2062              3095.4563
 Red. masses --      1.0989                 1.1024                 1.1010
 Frc consts  --      6.1617                 6.2105                 6.2155
 IR Inten    --     43.9543                33.0701                21.2683

                    118                    119                    120
                      A                      A                      A
 Frequencies --   3103.3171              3107.7446              3110.2305
 Red. masses --      1.1011                 1.0915                 1.0931
 Frc consts  --      6.2479                 6.2108                 6.2300
 IR Inten    --     45.4694                51.2147                48.3791

                    121                    122                    123
                      A                      A                      A
 Frequencies --   3123.9447              3128.2064              3677.5504
 Red. masses --      1.0986                 1.0935                 1.0638
 Frc consts  --      6.3171                 6.3044                 8.4765
 IR Inten    --     36.9239                17.8176                41.4826

 - Thermochemistry -
 -------------------
 Temperature   298.150 Kelvin.  Pressure   1.00000 Atm.
 Atom     1 has atomic number  6 and mass  12.00000

 Molecular mass:   255.18344 amu.
 Principal axes and moments of inertia in atomic units:
                           1         2         3
     Eigenvalues --  1737.27842********************
           X            0.99995  -0.00970  -0.00061
           Y            0.00972   0.99959   0.02687
           Z            0.00035  -0.02687   0.99964
 This molecule is an asymmetric top.
 Rotational symmetry number  1.
 Warning -- assumption of classical behavior for rotation
           may cause significant error
 Rotational temperatures (Kelvin)      0.04986     0.00705     0.00678
 Rotational constants (GHZ):           1.03883     0.14682     0.14132
 Zero-point vibrational energy    1013702.6 (Joules/Mol)
                                  242.28074 (Kcal/Mol)
 Warning -- explicit consideration of  28 degrees of freedom as
           vibrations may cause significant error
 Vibrational temperatures:     24.58    47.19    51.62    62.38    73.11
          (Kelvin)            114.37   145.26   164.30   244.96   290.66
                              313.15   341.67   350.79   382.11   421.92
                              453.32   499.20   533.93   566.20   579.10
                              605.59   627.66   659.12   701.75   728.40
                              781.26   825.69   847.85   914.08   944.81
                             1031.59  1060.96  1098.65  1175.61  1198.21
                             1238.47  1260.76  1282.00  1299.77  1361.23
                             1365.28  1375.37  1398.87  1403.81  1434.39
                             1446.51  1464.53  1480.07  1481.57  1505.26
                             1541.62  1552.24  1597.00  1630.41  1634.96
                             1647.83  1650.23  1689.97  1705.25  1711.41
                             1733.36  1750.84  1759.57  1786.75  1816.68
                             1824.10  1836.11  1872.34  1887.12  1894.38
                             1914.01  1917.80  1929.49  1942.44  1969.57
                             1987.14  2006.65  2014.66  2016.77  2021.76
                             2043.15  2051.24  2062.79  2076.73  2078.37
                             2157.98  2160.16  2176.58  2177.80  2184.78
                             2190.33  2198.02  2200.25  2203.74  2208.68
                             2222.97  2239.63  2652.13  4184.54  4262.62
                             4270.77  4279.03  4282.46  4370.36  4370.92
                             4375.78  4379.92  4383.48  4392.27  4401.85
                             4406.77  4407.92  4413.46  4432.98  4438.43
                             4448.99  4453.67  4464.98  4471.35  4474.93
                             4494.66  4500.79  5291.17

 Zero-point correction=                           0.386099 (Hartree/Particle)
 Thermal correction to Energy=                    0.404483
 Thermal correction to Enthalpy=                  0.405427
 Thermal correction to Gibbs Free Energy=         0.337043
 Sum of electronic and zero-point Energies=           -828.636800
 Sum of electronic and thermal Energies=              -828.618416
 Sum of electronic and thermal Enthalpies=            -828.617472
 Sum of electronic and thermal Free Energies=         -828.685856

                     E (Thermal)             CV                S
                      KCal/Mol        Cal/Mol-Kelvin    Cal/Mol-Kelvin
 Total                  253.817             70.312            143.927
 Electronic               0.000              0.000              0.000
 Translational            0.889              2.981             42.510
 Rotational               0.889              2.981             33.966
 Vibrational            252.040             64.350             67.450
 Vibration     1          0.593              1.986              6.947
 Vibration     2          0.594              1.983              5.653
 Vibration     3          0.594              1.982              5.475
 Vibration     4          0.595              1.980              5.099
 Vibration     5          0.595              1.977              4.785
 Vibration     6          0.600              1.963              3.903
 Vibration     7          0.604              1.948              3.436
 Vibration     8          0.607              1.938              3.196
 Vibration     9          0.625              1.879              2.433
 Vibration    10          0.639              1.837              2.115
 Vibration    11          0.646              1.814              1.979
 Vibration    12          0.656              1.783              1.822
 Vibration    13          0.659              1.773              1.775
 Vibration    14          0.671              1.736              1.625
 Vibration    15          0.688              1.686              1.455
 Vibration    16          0.702              1.645              1.336
 Vibration    17          0.725              1.581              1.180
 Vibration    18          0.743              1.532              1.075
 Vibration    19          0.761              1.484              0.987
 Vibration    20          0.768              1.465              0.954
 Vibration    21          0.783              1.425              0.889
 Vibration    22          0.797              1.391              0.839
 Vibration    23          0.816              1.343              0.772
 Vibration    24          0.844              1.277              0.689
 Vibration    25          0.861              1.236              0.643
 Vibration    26          0.898              1.155              0.559
 Vibration    27          0.930              1.088              0.497
 Vibration    28          0.947              1.055              0.468

 Optimization completed.
    -- Stationary point found.
 Normal termination of Gaussian 16 at Fri Dec 11 23:22:18 2020.

 ----------------------------------------------------------------------
 # B3LYP/6-311++G(d,p) empiricaldispersion=gd3bj scf=xqc pop=npa geom=c
 heck
 ----------------------------------------------------------------------

 --------------------------------------
 CID_79695416_JID_8912_Energie_neutraal
 --------------------------------------
 Structure from the checkpoint file:  "JID_8912.chk"
 Charge =  0 Multiplicity = 1

 SCF Done:  E(RB3LYP) =  -829.264508521     A.U. after   14 cycles
 Normal termination of Gaussian 16 at Fri Dec 11 23:30:02 2020.

 ----------------------------------------------------------------------
 # B3LYP/6-311++G(d,p) empiricaldispersion=gd3bj scf=xqc pop=npa geom=c
 heck
 ----------------------------------------------------------------------

 ------------------------------------
 CID_79695416_JID_8912_Energie_kation
 ------------------------------------
 Structure from the checkpoint file:  "JID_8912.chk"
 Charge =  1 Multiplicity = 2

 SCF Done:  E(UB3LYP) =  -828.971556072     A.U. after   25 cycles
 Normal termination of Gaussian 16 at Fri Dec 11 23:48:07 2020.
 Gaussian 16:  ES64L-G16RevA.03 25-Dec-2016

 ----------------------------------------------------------------------
 # B3LYP/6-311++G(d,p) empiricaldispersion=gd3bj scf=xqc pop=npa geom=c
 heck
 ----------------------------------------------------------------------

 -----------------------------------
 CID_79695416_JID_8912_Energie_anion
 -----------------------------------
 Structure from the checkpoint file:  "JID_8912.chk"
 Charge = -1 Multiplicity = 2

                         Standard orientation:
 ---------------------------------------------------------------------
 Center     Atomic      Atomic             Coordinates (Angstroms)
 Number     Number       Type             X           Y           Z
 ---------------------------------------------------------------------
      1          6           0       -2.213392    2.292814   -0.882200
      2          6           0       -2.001667    1.167041    0.139293
      3          6           0       -3.165019    1.076134    1.146941
      4          6           0       -4.519052    0.644446    0.560241
      5          6           0       -4.627251   -0.852230    0.370398
      6          8           0       -4.197250   -1.693961    1.128856
      7          8           0       -5.304457   -1.177486   -0.760759
      8          6           0       -1.716376   -0.181978   -0.544433
      9          6           0       -0.429070   -0.206393   -1.373293
     10          7           0        0.720182    0.185818   -0.582295
     11          6           0        2.052216    0.140509   -1.209234
     12          6           0        2.638911   -0.362388    0.142858
     13          6           0        1.173167   -0.720028    0.492691
     14          6           0        3.207998    0.774681    0.999875
     15          6           0        4.605523    1.164018    0.517135
     16          8           0        5.487345    0.048587    0.507389
     17          6           0        5.021787   -0.979878   -0.354932
     18          6           0        3.651219   -1.503711    0.080005
     19          1           0       -3.018650    2.056940   -1.589311
     20          1           0       -1.304193    2.470826   -1.464550
     21          1           0       -2.472691    3.233253   -0.381684
     22          1           0       -1.107090    1.423953    0.720220
     23          1           0       -2.906540    0.372336    1.946234
     24          1           0       -3.291349    2.059318    1.616501
     25          1           0       -5.320834    0.914445    1.260717
     26          1           0       -4.744760    1.149506   -0.382375
     27          1           0       -5.347422   -2.152617   -0.773894
     28          1           0       -1.663092   -0.967453    0.219870
     29          1           0       -2.549275   -0.455485   -1.206537
     30          1           0       -0.297417   -1.221192   -1.802498
     31          1           0       -0.504018    0.485303   -2.221420
     32          1           0        2.404883    1.099589   -1.608876
     33          1           0        2.135177   -0.625284   -2.000615
     34          1           0        0.949127   -1.781817    0.286907
     35          1           0        0.810845   -0.468458    1.497152
     36          1           0        3.275202    0.440868    2.043782
     37          1           0        2.537696    1.642089    0.969595
     38          1           0        5.062330    1.906318    1.178066
     39          1           0        4.547508    1.601544   -0.495114
     40          1           0        4.966642   -0.603471   -1.392168
     41          1           0        5.778281   -1.769361   -0.323245
     42          1           0        3.746797   -1.960726    1.074075
     43          1           0        3.312492   -2.286497   -0.610723
 ---------------------------------------------------------------------

 SCF Done:  E(UB3LYP) =  -829.252421382     A.U. after   33 cycles
 SCF Done:  E(UB3LYP) =  -829.252421382     a.u. after    1 cycles

 The electronic state is 2-A.
 Alpha  occ. eigenvalues --  -19.07844 -19.04221 -19.02343 -14.21331 -10.21492
 Alpha  occ. eigenvalues --  -10.13356 -10.13338 -10.10572 -10.10526 -10.10181
 Alpha  occ. eigenvalues --  -10.09941 -10.09296 -10.08554 -10.08456 -10.07961
 Alpha  occ. eigenvalues --  -10.07931 -10.07094 -10.06582  -1.01826  -0.95696
 Alpha  occ. eigenvalues --   -0.92890  -0.86018  -0.73857  -0.72038  -0.68415
 Alpha  occ. eigenvalues --   -0.67840  -0.64379  -0.59907  -0.58526  -0.57956
 Alpha  occ. eigenvalues --   -0.56090  -0.53543  -0.51159  -0.48679  -0.45327
 Alpha  occ. eigenvalues --   -0.44921  -0.42104  -0.41191  -0.40150  -0.39666
 Alpha  occ. eigenvalues --   -0.39531  -0.39411  -0.37982  -0.37147  -0.36685
 Alpha  occ. eigenvalues --   -0.35529  -0.34636  -0.33614  -0.32481  -0.32290
 Alpha  occ. eigenvalues --   -0.31099  -0.30771  -0.30619  -0.29836  -0.29303
 Alpha  occ. eigenvalues --   -0.29000  -0.27608  -0.27293  -0.25771  -0.25324
 Alpha  occ. eigenvalues --   -0.24101  -0.23840  -0.23089  -0.22781  -0.22570
 Alpha  occ. eigenvalues --   -0.22218  -0.21738  -0.19288  -0.17483  -0.13357
 Alpha  occ. eigenvalues --    0.03926
 Alpha virt. eigenvalues --    0.05260   0.06011   0.06610   0.06855   0.07235
 Alpha virt. eigenvalues --    0.07942   0.08694   0.08889   0.09190   0.09445
 Alpha virt. eigenvalues --    0.09875   0.10063   0.10531   0.11162   0.11631

  Beta  occ. eigenvalues --  -19.07797 -19.04216 -19.02332 -14.21325 -10.21483
  Beta  occ. eigenvalues --  -10.13340 -10.13325 -10.10566 -10.10507 -10.10182
  Beta  occ. eigenvalues --  -10.09928 -10.09269 -10.08540 -10.08448 -10.07959
  Beta  occ. eigenvalues --  -10.07922 -10.07083 -10.06562  -1.01765  -0.95684
  Beta  occ. eigenvalues --   -0.92842  -0.86006  -0.73839  -0.72017  -0.68391
  Beta  occ. eigenvalues --   -0.67804  -0.64348  -0.59883  -0.58480  -0.57916
  Beta  occ. eigenvalues --   -0.56057  -0.53500  -0.51095  -0.48624  -0.45290
  Beta  occ. eigenvalues --   -0.44884  -0.42072  -0.41154  -0.40124  -0.39637
  Beta  occ. eigenvalues --   -0.39508  -0.39383  -0.37953  -0.37126  -0.36662
  Beta  occ. eigenvalues --   -0.35504  -0.34607  -0.33588  -0.32458  -0.32267
  Beta  occ. eigenvalues --   -0.31070  -0.30739  -0.30596  -0.29806  -0.29272
  Beta  occ. eigenvalues --   -0.28964  -0.27583  -0.27269  -0.25753  -0.25306
  Beta  occ. eigenvalues --   -0.24083  -0.23808  -0.23066  -0.22760  -0.22547
  Beta  occ. eigenvalues --   -0.22194  -0.21718  -0.19254  -0.17453  -0.13319
  Beta virt. eigenvalues --    0.05712   0.06241   0.06764   0.07023   0.07295
  Beta virt. eigenvalues --    0.07539   0.08189   0.08925   0.09242   0.09526
  Beta virt. eigenvalues --    0.09567   0.10057   0.10290   0.10720   0.11278

 Mulliken charges and spin densities:
               1          2
     1  C    0.329621  -0.981204
     2  C    0.413056   0.441299
     3  C   -1.003563   0.530985
     4  C    0.745834  -1.120671
     5  C   -0.236668  -0.029518
     6  O   -0.244910   0.022055
     7  O   -0.144107   0.061598
     8  C   -1.049928   0.604336
     9  C    0.919136  -1.627683
    10  N    0.106816   0.123138
    11  C    0.249526  -0.882860
    12  C    0.918602   0.026318
    13  C   -1.587642   0.622037
    14  C   -0.109887  -0.077385
    15  C    0.246531  -0.737469
    16  O   -0.154852   0.039894
    17  C    0.173241  -0.684243
    18  C   -0.263876   0.116917
    19  H   -0.037935   0.182568
    20  H    0.039679   0.100415
    21  H   -0.110504   0.243931
    22  H    0.151903   0.077549
    23  H    0.212403  -0.034086
    24  H   -0.025188   0.182156
    25  H   -0.431078   0.627993
    26  H    0.200294   0.011549
    27  H   -0.321957   0.624058
    28  H    0.134208   0.047501
    29  H    0.075053   0.077198
    30  H   -0.109741   0.245580
    31  H    0.069904   0.098160
    32  H   -0.127425   0.310649
    33  H    0.003522   0.133994
    34  H    0.063101   0.062139
    35  H    0.032560   0.164767
    36  H    0.057313   0.113767
    37  H    0.046900   0.086364
    38  H    0.040071   0.152044
    39  H   -0.017041   0.152675
    40  H   -0.027940   0.153832
    41  H   -0.154754   0.362332
    42  H    0.076411   0.081932
    43  H   -0.146688   0.293388
 Sum of Mulliken charges =  -1.00000   1.00000

 Dipole moment (field-independent basis, Debye):
    X=              3.9296    Y=              1.7128    Z=              1.3177  Tot=              4.4846
 Quadrupole moment (field-independent basis, Debye-Ang):
   XX=           -244.1489   YY=           -157.5086   ZZ=           -147.6731
   XY=             -6.5837   XZ=              1.5653   YZ=             -1.4641

 Summary of Natural Population Analysis:

                                       Natural Population
                Natural  -----------------------------------------------
    Atom  No    Charge         Core      Valence    Rydberg      Total
 -----------------------------------------------------------------------
      C    1   -0.28886      0.99965     2.28331    0.00591     3.28886
      C    2   -0.11470      0.99959     2.10493    0.01018     3.11470
      C    3   -0.18525      0.99961     2.17566    0.00998     3.18525
      C    4   -0.24343      0.99957     2.23455    0.00931     3.24343
      C    5    0.40852      0.99972     1.56605    0.02572     2.59148
      O    6   -0.31004      0.99987     3.30387    0.00630     4.31004
      O    7   -0.34449      0.99988     3.33800    0.00661     4.34449
      C    8   -0.19839      0.99961     2.18992    0.00887     3.19839
      C    9   -0.07745      0.99961     2.06663    0.01121     3.07745
      N   10   -0.28492      0.99972     2.77342    0.01178     3.78492
      C   11   -0.07542      0.99959     2.06381    0.01201     3.07542
      C   12   -0.04794      0.99954     2.03441    0.01400     3.04794
      C   13   -0.07330      0.99959     2.06435    0.00936     3.07330
      C   14   -0.20152      0.99958     2.19379    0.00815     3.20152
      C   15   -0.00841      0.99958     1.99742    0.01141     3.00841
      O   16   -0.30105      0.99989     3.29187    0.00929     4.30105
      C   17   -0.00987      0.99958     1.99695    0.01334     3.00987
      C   18   -0.20396      0.99957     2.19415    0.01024     3.20396
      H   19    0.09502      0.00000     0.40398    0.00100     0.40498
      H   20    0.10244      0.00000     0.39660    0.00096     0.39756
      H   21    0.09817      0.00000     0.40082    0.00101     0.40183
      H   22    0.10213      0.00000     0.39566    0.00221     0.39787
      H   23    0.10601      0.00000     0.39273    0.00126     0.39399
      H   24    0.09824      0.00000     0.40085    0.00091     0.40176
      H   25    0.11752      0.00000     0.38110    0.00138     0.38248
      H   26    0.11015      0.00000     0.38841    0.00144     0.38985
      H   27    0.24279      0.00000     0.24598    0.01123     0.25721
      H   28    0.10307      0.00000     0.39535    0.00158     0.39693
      H   29    0.09960      0.00000     0.39875    0.00165     0.40040
      H   30    0.08206      0.00000     0.41654    0.00140     0.41794
      H   31    0.09480      0.00000     0.40390    0.00130     0.40520
      H   32    0.09309      0.00000     0.40542    0.00149     0.40691
      H   33    0.08602      0.00000     0.41246    0.00152     0.41398
      H   34    0.08692      0.00000     0.41192    0.00117     0.41308
      H   35    0.09324      0.00000     0.40565    0.00111     0.40676
      H   36    0.09870      0.00000     0.40004    0.00126     0.40130
      H   37    0.10822      0.00000     0.39028    0.00150     0.39178
      H   38    0.09084      0.00000     0.40794    0.00122     0.40916
      H   39    0.07773      0.00000     0.42069    0.00158     0.42227
      H   40    0.07754      0.00000     0.42096    0.00150     0.42246
      H   41    0.09178      0.00000     0.40705    0.00117     0.40822
      H   42    0.09992      0.00000     0.39890    0.00117     0.40008
      H   43    0.10449      0.00000     0.39414    0.00137     0.39551
 =======================================================================
   * Total *   -0.00000     17.99373    51.76920    0.23707    70.00000

 Normal termination of Gaussian 16 at Sat Dec 12 00:11:57 2020.
