 Gaussian 16, Revision A.03,

 -----------------------------------------------------------
 # opt freq B3LYP/6-31G(d) empiricaldispersion=gd3bj scf=xqc
 -----------------------------------------------------------

 -------------------------------
 CID_106276355_JID_6896_neutraal
 -------------------------------
 Symbolic Z-matrix:
 Charge =  0 Multiplicity = 1

 SCF Done:  E(RB3LYP) =  -767.671903995     A.U. after   14 cycles
 SCF Done:  E(RB3LYP) =  -767.676204828     A.U. after   13 cycles
 SCF Done:  E(RB3LYP) =  -767.675330397     A.U. after   14 cycles
 SCF Done:  E(RB3LYP) =  -767.677338670     A.U. after   12 cycles
 SCF Done:  E(RB3LYP) =  -767.678364989     A.U. after   14 cycles
 SCF Done:  E(RB3LYP) =  -767.679234389     A.U. after   13 cycles
 SCF Done:  E(RB3LYP) =  -767.679541709     A.U. after   12 cycles
 SCF Done:  E(RB3LYP) =  -767.679800136     A.U. after   12 cycles
 SCF Done:  E(RB3LYP) =  -767.679815975     A.U. after   12 cycles
 SCF Done:  E(RB3LYP) =  -767.680049259     A.U. after   11 cycles
 SCF Done:  E(RB3LYP) =  -767.684224324     A.U. after   10 cycles
 SCF Done:  E(RB3LYP) =  -767.684224976     A.U. after    9 cycles
 SCF Done:  E(RB3LYP) =  -767.684225085     A.U. after    9 cycles
 SCF Done:  E(RB3LYP) =  -767.684225515     A.U. after    9 cycles
 SCF Done:  E(RB3LYP) =  -767.684225575     A.U. after    7 cycles
 Optimization completed.
    -- Stationary point found.
 Normal termination of Gaussian 16 at Fri Dec 11 01:32:32 2020.

 --------------------------------------------------------------------
 #N Geom=AllCheck Guess=TCheck SCRF=Check GenChk RB3LYP/6-31G(d) Freq
 --------------------------------------------------------------------

 Structure from the checkpoint file:  "JID_6896.chk"
 -------------------------------
 CID_106276355_JID_6896_neutraal
 -------------------------------
 Charge =  0 Multiplicity = 1

 SCF Done:  E(RB3LYP) =  -767.684225575     A.U. after    1 cycles

  Exact polarizability: 156.464  -1.573 130.244   5.079  -1.003 119.959
 Approx polarizability: 186.321  -1.772 188.190  13.161 -13.570 193.447

                      1                      2                      3
                      A                      A                      A
 Frequencies --     21.6855                38.3596                55.3090
 Red. masses --      4.7283                 4.1287                 3.6581
 Frc consts  --      0.0013                 0.0036                 0.0066
 IR Inten    --      1.2328                 1.6442                 1.6791

                      4                      5                      6
                      A                      A                      A
 Frequencies --     71.3635                93.1231                99.1628
 Red. masses --      5.4812                 3.9304                 3.9671
 Frc consts  --      0.0164                 0.0201                 0.0230
 IR Inten    --     13.6775                 0.1058                 0.0972

                      7                      8                      9
                      A                      A                      A
 Frequencies --    127.0191               140.0606               154.2620
 Red. masses --      2.6023                 1.3215                 2.6341
 Frc consts  --      0.0247                 0.0153                 0.0369
 IR Inten    --      1.8799                 0.0607                 0.9976

                     10                     11                     12
                      A                      A                      A
 Frequencies --    189.8812               206.3775               229.0485
 Red. masses --      3.5877                 2.5116                 1.1959
 Frc consts  --      0.0762                 0.0630                 0.0370
 IR Inten    --      2.6271                 0.0599                 1.2011

                     13                     14                     15
                      A                      A                      A
 Frequencies --    231.9843               240.1121               250.7682
 Red. masses --      1.5544                 1.4742                 1.5961
 Frc consts  --      0.0493                 0.0501                 0.0591
 IR Inten    --      3.3935                12.3815                 9.2257

                     16                     17                     18
                      A                      A                      A
 Frequencies --    269.9396               277.0282               298.0369
 Red. masses --      2.1999                 1.4126                 1.9285
 Frc consts  --      0.0944                 0.0639                 0.1009
 IR Inten    --      9.7994                78.6706                65.5862

                     19                     20                     21
                      A                      A                      A
 Frequencies --    313.4248               318.7609               327.6295
 Red. masses --      1.5908                 1.8768                 2.3078
 Frc consts  --      0.0921                 0.1124                 0.1460
 IR Inten    --     84.1088                 4.3470                 5.3473

                     22                     23                     24
                      A                      A                      A
 Frequencies --    351.2402               373.0193               386.1354
 Red. masses --      2.8557                 3.7420                 2.0137
 Frc consts  --      0.2076                 0.3068                 0.1769
 IR Inten    --      1.2984                10.6709                 8.1805

                     25                     26                     27
                      A                      A                      A
 Frequencies --    417.5402               436.7553               487.7144
 Red. masses --      3.4809                 2.4643                 2.9239
 Frc consts  --      0.3575                 0.2770                 0.4098
 IR Inten    --      7.3571                 5.7051                 4.1334

                     28                     29                     30
                      A                      A                      A
 Frequencies --    511.1524               554.5236               579.1957
 Red. masses --      2.3464                 3.4786                 1.8566
 Frc consts  --      0.3612                 0.6302                 0.3670
 IR Inten    --     24.1190                 8.6096                 2.5019

                     31                     32                     33
                      A                      A                      A
 Frequencies --    611.5189               647.0870               677.4947
 Red. masses --      1.8272                 1.5246                 3.6501
 Frc consts  --      0.4026                 0.3761                 0.9871
 IR Inten    --     26.0898               130.5842                 7.4915

                     34                     35                     36
                      A                      A                      A
 Frequencies --    715.9974               762.1301               780.2738
 Red. masses --      3.1299                 3.6149                 4.8230
 Frc consts  --      0.9454                 1.2371                 1.7301
 IR Inten    --      5.4433                 8.9145                11.5927

                     37                     38                     39
                      A                      A                      A
 Frequencies --    813.7974               858.5183               876.1557
 Red. masses --      2.4921                 2.6977                 2.1906
 Frc consts  --      0.9724                 1.1715                 0.9908
 IR Inten    --      1.1823                10.7470                30.7768

                     40                     41                     42
                      A                      A                      A
 Frequencies --    901.1059               936.4371               963.5224
 Red. masses --      2.1176                 1.7762                 1.4685
 Frc consts  --      1.0131                 0.9177                 0.8032
 IR Inten    --      4.6539                 2.9295                 1.3388

                     43                     44                     45
                      A                      A                      A
 Frequencies --   1000.9479              1003.8831              1023.3401
 Red. masses --      1.8079                 1.4613                 2.2793
 Frc consts  --      1.0672                 0.8677                 1.4064
 IR Inten    --      3.0198                 2.9394                 8.9643

                     46                     47                     48
                      A                      A                      A
 Frequencies --   1035.7128              1054.7192              1082.4218
 Red. masses --      1.8044                 2.0345                 2.1653
 Frc consts  --      1.1404                 1.3335                 1.4947
 IR Inten    --      9.7550                17.7480                26.9903

                     49                     50                     51
                      A                      A                      A
 Frequencies --   1103.4250              1130.5219              1150.9926
 Red. masses --      1.8557                 1.9104                 2.1161
 Frc consts  --      1.3312                 1.4386                 1.6517
 IR Inten    --      0.9172                 0.4285                18.4969

                     52                     53                     54
                      A                      A                      A
 Frequencies --   1181.1573              1185.7826              1190.8895
 Red. masses --      2.7693                 1.2929                 1.9735
 Frc consts  --      2.2763                 1.0711                 1.6490
 IR Inten    --    158.4550                 1.2290                22.7551

                     55                     56                     57
                      A                      A                      A
 Frequencies --   1200.9296              1218.3241              1230.3498
 Red. masses --      3.2026                 1.5556                 2.5161
 Frc consts  --      2.7214                 1.3604                 2.2441
 IR Inten    --     75.9395                 5.3198                15.5113

                     58                     59                     60
                      A                      A                      A
 Frequencies --   1240.6037              1250.2733              1318.8715
 Red. masses --      2.7287                 2.9150                 1.3275
 Frc consts  --      2.4744                 2.6847                 1.3605
 IR Inten    --    233.1075                73.0159                 6.3400

                     61                     62                     63
                      A                      A                      A
 Frequencies --   1334.8956              1351.3465              1366.7959
 Red. masses --      1.5715                 1.6529                 2.2319
 Frc consts  --      1.6500                 1.7784                 2.4566
 IR Inten    --     23.0495                55.0920                55.0715

                     64                     65                     66
                      A                      A                      A
 Frequencies --   1403.0771              1407.0487              1412.6919
 Red. masses --      1.4312                 1.2750                 1.2377
 Frc consts  --      1.6600                 1.4872                 1.4553
 IR Inten    --     14.3277                10.2962                 4.3193

                     67                     68                     69
                      A                      A                      A
 Frequencies --   1420.7215              1435.7175              1437.4327
 Red. masses --      1.2217                 1.2744                 1.2297
 Frc consts  --      1.4529                 1.5477                 1.4970
 IR Inten    --      6.7591                 8.0831                14.0611

                     70                     71                     72
                      A                      A                      A
 Frequencies --   1452.7291              1492.5531              1499.6676
 Red. masses --      1.2774                 1.2149                 1.0909
 Frc consts  --      1.5883                 1.5946                 1.4455
 IR Inten    --     15.5541                 6.5272                 4.6473

                     73                     74                     75
                      A                      A                      A
 Frequencies --   1512.8351              1517.5285              1519.3825
 Red. masses --      1.0484                 1.1199                 1.0865
 Frc consts  --      1.4137                 1.5195                 1.4778
 IR Inten    --      6.4575                26.4663                17.1082

                     76                     77                     78
                      A                      A                      A
 Frequencies --   1524.6901              1525.6174              1526.7979
 Red. masses --      1.0477                 1.0527                 1.0476
 Frc consts  --      1.4350                 1.4436                 1.4389
 IR Inten    --      2.0844                 7.3229                10.8820

                     79                     80                     81
                      A                      A                      A
 Frequencies --   1533.4280              1539.3379              1544.7940
 Red. masses --      1.1022                 1.0550                 1.0818
 Frc consts  --      1.5270                 1.4729                 1.5210
 IR Inten    --     13.7604                 3.5613                 5.2174

                     82                     83                     84
                      A                      A                      A
 Frequencies --   1547.6805              1549.8382              1644.4010
 Red. masses --      1.0657                 1.0753                 1.2455
 Frc consts  --      1.5040                 1.5218                 1.9843
 IR Inten    --     11.5356                17.1650               100.3765

                     85                     86                     87
                      A                      A                      A
 Frequencies --   1780.0647              1804.8656              3029.1310
 Red. masses --      8.3875                10.6861                 1.0684
 Frc consts  --     15.6586                20.5097                 5.7759
 IR Inten    --    198.9823               206.0389                44.8271

                     88                     89                     90
                      A                      A                      A
 Frequencies --   3043.4584              3050.2413              3058.2615
 Red. masses --      1.0367                 1.0363                 1.0416
 Frc consts  --      5.6577                 5.6808                 5.7396
 IR Inten    --     17.7598                42.2784                 7.6280

                     91                     92                     93
                      A                      A                      A
 Frequencies --   3061.9256              3066.8387              3074.2118
 Red. masses --      1.0777                 1.0398                 1.0297
 Frc consts  --      5.9530                 5.7621                 5.7337
 IR Inten    --     12.1220                27.8662                33.9629

                     94                     95                     96
                      A                      A                      A
 Frequencies --   3084.7527              3101.3028              3113.8708
 Red. masses --      1.0856                 1.1006                 1.0981
 Frc consts  --      6.0862                 6.2367                 6.2732
 IR Inten    --      3.7870                19.6562                15.7780

                     97                     98                     99
                      A                      A                      A
 Frequencies --   3116.8714              3124.4394              3125.5028
 Red. masses --      1.0992                 1.1013                 1.1015
 Frc consts  --      6.2918                 6.3341                 6.3400
 IR Inten    --     26.6438                27.8859                32.0049

                    100                    101                    102
                      A                      A                      A
 Frequencies --   3132.8149              3134.0907              3144.6350
 Red. masses --      1.0965                 1.1020                 1.1018
 Frc consts  --      6.3405                 6.3773                 6.4197
 IR Inten    --     20.4394                23.1438                20.3865

                    103                    104                    105
                      A                      A                      A
 Frequencies --   3147.5509              3159.7177              3180.4184
 Red. masses --      1.1073                 1.1015                 1.1070
 Frc consts  --      6.4635                 6.4794                 6.5973
 IR Inten    --     22.6605                16.2954                19.7405

                    106                    107                    108
                      A                      A                      A
 Frequencies --   3567.1416              3593.7679              3722.7456
 Red. masses --      1.0743                 1.0462                 1.1027
 Frc consts  --      8.0539                 7.9608                 9.0039
 IR Inten    --      3.9229                26.6950                30.0629

 - Thermochemistry -
 -------------------
 Temperature   298.150 Kelvin.  Pressure   1.00000 Atm.
 Atom     1 has atomic number  6 and mass  12.00000

 Molecular mass:   230.16304 amu.
 Principal axes and moments of inertia in atomic units:
                           1         2         3
     Eigenvalues --  1728.286917060.677757623.90278
           X            0.99987  -0.01568   0.00303
           Y            0.01559   0.99955   0.02568
           Z           -0.00343  -0.02563   0.99967
 This molecule is an asymmetric top.
 Rotational symmetry number  1.
 Warning -- assumption of classical behavior for rotation
           may cause significant error
 Rotational temperatures (Kelvin)      0.05012     0.01227     0.01136
 Rotational constants (GHZ):           1.04424     0.25560     0.23672
 Zero-point vibrational energy     879957.6 (Joules/Mol)
                                  210.31492 (Kcal/Mol)
 Warning -- explicit consideration of  31 degrees of freedom as
           vibrations may cause significant error
 Vibrational temperatures:     31.20    55.19    79.58   102.68   133.98
          (Kelvin)            142.67   182.75   201.52   221.95   273.20
                              296.93   329.55   333.77   345.47   360.80
                              388.38   398.58   428.81   450.95   458.63
                              471.39   505.36   536.69   555.56   600.75
                              628.39   701.71   735.43   797.84   833.33
                              879.84   931.01   974.76  1030.16  1096.54
                             1122.64  1170.87  1235.22  1260.59  1296.49
                             1347.32  1386.29  1440.14  1444.36  1472.36
                             1490.16  1517.51  1557.36  1587.58  1626.57
                             1656.02  1699.42  1706.08  1713.42  1727.87
                             1752.90  1770.20  1784.95  1798.86  1897.56
                             1920.62  1944.29  1966.51  2018.71  2024.43
                             2032.55  2044.10  2065.68  2068.15  2090.15
                             2147.45  2157.69  2176.63  2183.38  2186.05
                             2193.69  2195.02  2196.72  2206.26  2214.76
                             2222.61  2226.77  2229.87  2365.93  2561.12
                             2596.80  4358.24  4378.86  4388.62  4400.16
                             4405.43  4412.50  4423.11  4438.27  4462.08
                             4480.17  4484.48  4495.37  4496.90  4507.42
                             4509.26  4524.43  4528.62  4546.13  4575.91
                             5132.32  5170.63  5356.20

 Zero-point correction=                           0.335158 (Hartree/Particle)
 Thermal correction to Energy=                    0.354453
 Thermal correction to Enthalpy=                  0.355397
 Thermal correction to Gibbs Free Energy=         0.287622
 Sum of electronic and zero-point Energies=           -767.349067
 Sum of electronic and thermal Energies=              -767.329772
 Sum of electronic and thermal Enthalpies=            -767.328828
 Sum of electronic and thermal Free Energies=         -767.396604

                     E (Thermal)             CV                S
                      KCal/Mol        Cal/Mol-Kelvin    Cal/Mol-Kelvin
 Total                  222.423             71.185            142.646
 Electronic               0.000              0.000              0.000
 Translational            0.889              2.981             42.203
 Rotational               0.889              2.981             32.898
 Vibrational            220.645             65.223             67.545
 Vibration     1          0.593              1.985              6.474
 Vibration     2          0.594              1.982              5.342
 Vibration     3          0.596              1.975              4.618
 Vibration     4          0.598              1.968              4.115
 Vibration     5          0.602              1.954              3.593
 Vibration     6          0.604              1.950              3.471
 Vibration     7          0.611              1.926              2.991
 Vibration     8          0.615              1.913              2.803
 Vibration     9          0.620              1.898              2.619
 Vibration    10          0.633              1.854              2.229
 Vibration    11          0.641              1.831              2.075
 Vibration    12          0.652              1.797              1.886
 Vibration    13          0.653              1.792              1.864
 Vibration    14          0.657              1.779              1.802
 Vibration    15          0.663              1.761              1.725
 Vibration    16          0.674              1.729              1.597
 Vibration    17          0.678              1.716              1.552
 Vibration    18          0.691              1.677              1.428
 Vibration    19          0.701              1.648              1.344
 Vibration    20          0.705              1.638              1.316
 Vibration    21          0.711              1.620              1.272
 Vibration    22          0.728              1.573              1.161
 Vibration    23          0.744              1.528              1.067
 Vibration    24          0.755              1.500              1.015
 Vibration    25          0.781              1.432              0.900
 Vibration    26          0.797              1.390              0.837
 Vibration    27          0.844              1.277              0.690
 Vibration    28          0.866              1.225              0.631
 Vibration    29          0.910              1.130              0.535
 Vibration    30          0.936              1.076              0.487
 Vibration    31          0.971              1.007              0.430

 Optimization completed.
    -- Stationary point found.
 Normal termination of Gaussian 16 at Fri Dec 11 01:45:44 2020.

 ----------------------------------------------------------------------
 # B3LYP/6-311++G(d,p) empiricaldispersion=gd3bj scf=xqc pop=npa geom=c
 heck
 ----------------------------------------------------------------------

 ---------------------------------------
 CID_106276355_JID_6896_Energie_neutraal
 ---------------------------------------
 Structure from the checkpoint file:  "JID_6896.chk"
 Charge =  0 Multiplicity = 1

 SCF Done:  E(RB3LYP) =  -767.919676019     A.U. after   16 cycles
 Normal termination of Gaussian 16 at Fri Dec 11 01:52:12 2020.

 ----------------------------------------------------------------------
 # B3LYP/6-311++G(d,p) empiricaldispersion=gd3bj scf=xqc pop=npa geom=c
 heck
 ----------------------------------------------------------------------

 -------------------------------------
 CID_106276355_JID_6896_Energie_kation
 -------------------------------------
 Structure from the checkpoint file:  "JID_6896.chk"
 Charge =  1 Multiplicity = 2

 SCF Done:  E(UB3LYP) =  -767.634184762     A.U. after   23 cycles
 Normal termination of Gaussian 16 at Fri Dec 11 02:04:43 2020.
 Gaussian 16:  ES64L-G16RevA.03 25-Dec-2016

 ----------------------------------------------------------------------
 # B3LYP/6-311++G(d,p) empiricaldispersion=gd3bj scf=xqc pop=npa geom=c
 heck
 ----------------------------------------------------------------------

 ------------------------------------
 CID_106276355_JID_6896_Energie_anion
 ------------------------------------
 Structure from the checkpoint file:  "JID_6896.chk"
 Charge = -1 Multiplicity = 2

                         Standard orientation:
 ---------------------------------------------------------------------
 Center     Atomic      Atomic             Coordinates (Angstroms)
 Number     Number       Type             X           Y           Z
 ---------------------------------------------------------------------
      1          6           0       -2.514851    2.188601   -0.466629
      2          6           0       -1.915846    0.778025   -0.614740
      3          6           0       -0.433043    0.671591   -0.184217
      4          6           0       -0.190519    1.154516    1.256259
      5          7           0        0.020598   -0.693334   -0.450464
      6          6           0        1.316487   -0.934753   -1.046056
      7          6           0        2.608762   -0.773938   -0.188623
      8          6           0        2.479710   -1.564094    1.121166
      9          6           0        3.789436   -1.329677   -1.015524
     10          6           0        2.910125    0.722955    0.004620
     11          8           0        2.712508    1.542534   -0.884885
     12          7           0        3.504164    1.089683    1.183121
     13          6           0       -2.788672   -0.245255    0.093561
     14          8           0       -2.479316   -0.937136    1.044194
     15          8           0       -4.016721   -0.301119   -0.471544
     16          6           0       -4.928990   -1.230539    0.130882
     17          1           0       -2.634404    2.469590    0.584609
     18          1           0       -3.495788    2.244450   -0.945392
     19          1           0       -1.855334    2.924422   -0.939672
     20          1           0       -1.948657    0.505760   -1.676534
     21          1           0        0.130102    1.326358   -0.857415
     22          1           0       -0.737476    0.529683    1.967538
     23          1           0        0.873114    1.116455    1.500641
     24          1           0       -0.514767    2.192496    1.390597
     25          1           0       -0.207650   -1.316711    0.315495
     26          1           0        1.316995   -1.970203   -1.413901
     27          1           0        1.419552   -0.282633   -1.917968
     28          1           0        2.204367   -2.601545    0.898456
     29          1           0        3.426046   -1.603612    1.674222
     30          1           0        1.705993   -1.152588    1.777221
     31          1           0        3.869892   -0.801385   -1.970444
     32          1           0        4.737911   -1.213317   -0.479717
     33          1           0        3.639826   -2.396558   -1.218177
     34          1           0        3.507656    0.487265    1.990693
     35          1           0        3.648855    2.079206    1.330787
     36          1           0       -4.534062   -2.248236    0.072235
     37          1           0       -5.098498   -0.977869    1.180993
     38          1           0       -5.854380   -1.144301   -0.439176
 ---------------------------------------------------------------------

 SCF Done:  E(UB3LYP) =  -767.908447818     A.U. after   33 cycles
 SCF Done:  E(UB3LYP) =  -767.908447818     a.u. after    1 cycles

 The electronic state is 2-A.
 Alpha  occ. eigenvalues --  -19.07962 -19.02278 -18.99438 -14.23474 -14.19498
 Alpha  occ. eigenvalues --  -10.21036 -10.17883 -10.13447 -10.10551 -10.09865
 Alpha  occ. eigenvalues --  -10.09815 -10.09521 -10.08009 -10.07644 -10.07240
 Alpha  occ. eigenvalues --  -10.05569  -1.01979  -0.94510  -0.93095  -0.81294
 Alpha  occ. eigenvalues --   -0.80844  -0.72798  -0.70512  -0.64733  -0.62404
 Alpha  occ. eigenvalues --   -0.60359  -0.57911  -0.55744  -0.53821  -0.50983
 Alpha  occ. eigenvalues --   -0.46902  -0.46562  -0.43831  -0.41312  -0.40393
 Alpha  occ. eigenvalues --   -0.39514  -0.38802  -0.37588  -0.36913  -0.36660
 Alpha  occ. eigenvalues --   -0.34956  -0.33682  -0.33077  -0.32153  -0.31780
 Alpha  occ. eigenvalues --   -0.31388  -0.30307  -0.29483  -0.29460  -0.29183
 Alpha  occ. eigenvalues --   -0.28254  -0.27667  -0.26935  -0.26242  -0.25639
 Alpha  occ. eigenvalues --   -0.24457  -0.24244  -0.24099  -0.22003  -0.18728
 Alpha  occ. eigenvalues --   -0.17918  -0.16359  -0.12199   0.03979
 Alpha virt. eigenvalues --    0.05264   0.06801   0.07069   0.08263   0.08504
 Alpha virt. eigenvalues --    0.08626   0.08949   0.09454   0.09907   0.10127
 Alpha virt. eigenvalues --    0.10528   0.10639   0.11158   0.11294   0.12192

  Beta  occ. eigenvalues --  -19.07957 -19.02267 -18.99430 -14.23409 -14.19494
  Beta  occ. eigenvalues --  -10.21031 -10.17880 -10.13409 -10.10548 -10.09861
  Beta  occ. eigenvalues --  -10.09810 -10.09520 -10.07995 -10.07630 -10.07200
  Beta  occ. eigenvalues --  -10.05554  -1.01965  -0.94495  -0.93078  -0.81280
  Beta  occ. eigenvalues --   -0.80764  -0.72779  -0.70491  -0.64698  -0.62371
  Beta  occ. eigenvalues --   -0.60304  -0.57881  -0.55709  -0.53760  -0.50947
  Beta  occ. eigenvalues --   -0.46866  -0.46485  -0.43777  -0.41290  -0.40364
  Beta  occ. eigenvalues --   -0.39487  -0.38765  -0.37558  -0.36893  -0.36638
  Beta  occ. eigenvalues --   -0.34925  -0.33662  -0.33056  -0.32124  -0.31757
  Beta  occ. eigenvalues --   -0.31360  -0.30282  -0.29458  -0.29441  -0.29155
  Beta  occ. eigenvalues --   -0.28232  -0.27648  -0.26909  -0.26216  -0.25623
  Beta  occ. eigenvalues --   -0.24434  -0.24220  -0.24087  -0.21977  -0.18711
  Beta  occ. eigenvalues --   -0.17872  -0.16318  -0.12190
  Beta virt. eigenvalues --    0.05990   0.06682   0.07076   0.07638   0.08593
  Beta virt. eigenvalues --    0.08660   0.09148   0.09171   0.09610   0.10195
  Beta virt. eigenvalues --    0.10345   0.10793   0.10850   0.11423   0.11662

 Mulliken charges and spin densities:
               1          2
     1  C    0.207518  -0.884473
     2  C   -0.620995   1.206381
     3  C   -0.065139  -0.739717
     4  C   -0.022672  -0.473700
     5  N    0.118408   0.046652
     6  C    0.113150  -0.741360
     7  C   -0.354038   1.547422
     8  C    0.758511  -1.491501
     9  C   -0.017781  -0.471042
    10  C    0.422531  -1.038333
    11  O   -0.282284   0.011282
    12  N   -0.380560   0.125469
    13  C   -0.800270   0.282827
    14  O   -0.239918   0.029947
    15  O   -0.106584   0.046063
    16  C    0.821334  -1.038890
    17  H    0.059959   0.111309
    18  H   -0.022223   0.183637
    19  H    0.063438   0.083783
    20  H    0.125027   0.146827
    21  H    0.281541  -0.085106
    22  H    0.018466   0.187681
    23  H   -0.100408   0.278725
    24  H    0.030912   0.084463
    25  H    0.166869   0.063799
    26  H    0.106459   0.055027
    27  H    0.172743   0.025042
    28  H   -0.018176   0.179908
    29  H   -0.482411   0.631809
    30  H    0.090531   0.080792
    31  H    0.131841   0.023019
    32  H   -0.056378   0.215394
    33  H    0.068263   0.071304
    34  H   -0.338215   0.609729
    35  H   -0.143713   0.436183
    36  H   -0.106076   0.278006
    37  H   -0.145928   0.322622
    38  H   -0.453732   0.599017
 Sum of Mulliken charges =  -1.00000   1.00000

 Dipole moment (field-independent basis, Debye):
    X=             -1.1353    Y=             -0.2249    Z=             -3.7303  Tot=              3.9057
 Quadrupole moment (field-independent basis, Debye-Ang):
   XX=           -205.7807   YY=           -135.4614   ZZ=           -140.7221
   XY=            -10.8470   XZ=            -15.0432   YZ=              2.3850

 Summary of Natural Population Analysis:

                                       Natural Population
                Natural  -----------------------------------------------
    Atom  No    Charge         Core      Valence    Rydberg      Total
 -----------------------------------------------------------------------
      C    1   -0.28345      0.99965     2.27925    0.00456     3.28345
      C    2   -0.15333      0.99953     2.14191    0.01189     3.15333
      C    3   -0.01059      0.99958     1.99830    0.01271     3.01059
      C    4   -0.29854      0.99963     2.29252    0.00639     3.29854
      N    5   -0.35033      0.99972     2.83935    0.01126     3.85033
      C    6   -0.07842      0.99958     2.06634    0.01250     3.07842
      C    7   -0.08850      0.99952     2.07604    0.01294     3.08850
      C    8   -0.29723      0.99963     2.28898    0.00862     3.29723
      C    9   -0.28026      0.99963     2.27353    0.00709     3.28026
      C   10    0.34541      0.99962     1.62889    0.02609     2.65459
      O   11   -0.33057      0.99988     3.32484    0.00586     4.33057
      N   12   -0.40106      0.99970     2.89166    0.00970     3.90106
      C   13    0.42059      0.99965     1.55347    0.02629     2.57941
      O   14   -0.31220      0.99987     3.30694    0.00539     4.31220
      O   15   -0.28093      0.99986     3.27192    0.00915     4.28093
      C   16   -0.10528      0.99959     2.09643    0.00925     3.10528
      H   17    0.09972      0.00000     0.39924    0.00104     0.40028
      H   18    0.10605      0.00000     0.39285    0.00110     0.39395
      H   19    0.10080      0.00000     0.39833    0.00087     0.39920
      H   20    0.11452      0.00000     0.38396    0.00152     0.38548
      H   21    0.10429      0.00000     0.39401    0.00170     0.39571
      H   22    0.10605      0.00000     0.39282    0.00113     0.39395
      H   23    0.10176      0.00000     0.39649    0.00175     0.39824
      H   24    0.09741      0.00000     0.40163    0.00095     0.40259
      H   25    0.18377      0.00000     0.31349    0.00274     0.31623
      H   26    0.09090      0.00000     0.40811    0.00098     0.40910
      H   27    0.10351      0.00000     0.39537    0.00112     0.39649
      H   28    0.10292      0.00000     0.39606    0.00102     0.39708
      H   29    0.10440      0.00000     0.39390    0.00171     0.39560
      H   30    0.10622      0.00000     0.39239    0.00139     0.39378
      H   31    0.10492      0.00000     0.39431    0.00077     0.39508
      H   32    0.10438      0.00000     0.39469    0.00093     0.39562
      H   33    0.09808      0.00000     0.40108    0.00083     0.40192
      H   34    0.20178      0.00000     0.28926    0.00895     0.29822
      H   35    0.19655      0.00000     0.30065    0.00280     0.30345
      H   36    0.09167      0.00000     0.40714    0.00119     0.40833
      H   37    0.09187      0.00000     0.40684    0.00130     0.40813
      H   38    0.09313      0.00000     0.40526    0.00161     0.40687
 =======================================================================
   * Total *    0.00000     15.99465    46.78825    0.21711    63.00000

 Normal termination of Gaussian 16 at Fri Dec 11 02:22:32 2020.
