 Gaussian 16, Revision A.03,

 -----------------------------------------------------------
 # opt freq B3LYP/6-31G(d) empiricaldispersion=gd3bj scf=xqc
 -----------------------------------------------------------

 ------------------------------
 CID_65990332_JID_8145_neutraal
 ------------------------------
 Symbolic Z-matrix:
 Charge =  0 Multiplicity = 1

 SCF Done:  E(RB3LYP) =  -1165.62595044     A.U. after   15 cycles
 SCF Done:  E(RB3LYP) =  -1165.63239513     A.U. after   13 cycles
 SCF Done:  E(RB3LYP) =  -1165.63349011     A.U. after   12 cycles
 SCF Done:  E(RB3LYP) =  -1165.63446072     A.U. after   13 cycles
 SCF Done:  E(RB3LYP) =  -1165.63483495     A.U. after   12 cycles
 SCF Done:  E(RB3LYP) =  -1165.63545712     A.U. after   12 cycles
 SCF Done:  E(RB3LYP) =  -1165.63553358     A.U. after   12 cycles
 SCF Done:  E(RB3LYP) =  -1165.63563597     A.U. after   11 cycles
 SCF Done:  E(RB3LYP) =  -1165.63570081     A.U. after   11 cycles
 SCF Done:  E(RB3LYP) =  -1165.63578332     A.U. after   11 cycles
 SCF Done:  E(RB3LYP) =  -1165.63584500     A.U. after   11 cycles
 SCF Done:  E(RB3LYP) =  -1165.63585231     A.U. after   11 cycles
 SCF Done:  E(RB3LYP) =  -1165.63585322     A.U. after    8 cycles
 SCF Done:  E(RB3LYP) =  -1165.63585338     A.U. after    8 cycles
 Optimization completed.
    -- Stationary point found.
 Normal termination of Gaussian 16 at Fri Dec 11 18:58:37 2020.

 --------------------------------------------------------------------
 #N Geom=AllCheck Guess=TCheck SCRF=Check GenChk RB3LYP/6-31G(d) Freq
 --------------------------------------------------------------------

 Structure from the checkpoint file:  "JID_8145.chk"
 ------------------------------
 CID_65990332_JID_8145_neutraal
 ------------------------------
 Charge =  0 Multiplicity = 1

 SCF Done:  E(RB3LYP) =  -1165.63585338     A.U. after    1 cycles

  Exact polarizability: 203.926   4.015 150.987  -2.253  -3.413 139.503
 Approx polarizability: 239.703  12.489 238.490  -3.415  -8.748 229.527

                      1                      2                      3
                      A                      A                      A
 Frequencies --     17.4479                28.3441                43.4932
 Red. masses --      4.8950                 2.9085                 5.4511
 Frc consts  --      0.0009                 0.0014                 0.0061
 IR Inten    --      0.3567                 1.0980                 0.5752

                      4                      5                      6
                      A                      A                      A
 Frequencies --     45.9341                63.3499                70.8858
 Red. masses --      3.9301                 5.5490                 3.4433
 Frc consts  --      0.0049                 0.0131                 0.0102
 IR Inten    --      1.5561                 4.9281                 1.8536

                      7                      8                      9
                      A                      A                      A
 Frequencies --    109.1191               118.9881               136.3598
 Red. masses --      5.8797                 6.2311                 4.0655
 Frc consts  --      0.0412                 0.0520                 0.0445
 IR Inten    --      4.3208                 3.2306                 7.1594

                     10                     11                     12
                      A                      A                      A
 Frequencies --    155.4285               171.1774               196.9946
 Red. masses --      3.3683                 1.2846                 2.2013
 Frc consts  --      0.0479                 0.0222                 0.0503
 IR Inten    --      1.5073                 0.0248                 1.3866

                     13                     14                     15
                      A                      A                      A
 Frequencies --    211.5446               222.2454               251.5747
 Red. masses --      3.5471                 2.6757                 3.8826
 Frc consts  --      0.0935                 0.0779                 0.1448
 IR Inten    --      2.1924                 0.5863                 1.6912

                     16                     17                     18
                      A                      A                      A
 Frequencies --    290.2452               314.6570               347.9283
 Red. masses --      5.5871                 3.3441                 3.3848
 Frc consts  --      0.2773                 0.1951                 0.2414
 IR Inten    --      1.2127                 1.7586                 9.0220

                     19                     20                     21
                      A                      A                      A
 Frequencies --    362.4123               420.7844               434.6178
 Red. masses --      2.9245                 1.9509                 3.6678
 Frc consts  --      0.2263                 0.2035                 0.4082
 IR Inten    --      2.1623                 1.9281                 7.5969

                     22                     23                     24
                      A                      A                      A
 Frequencies --    468.0470               480.6487               506.1599
 Red. masses --      2.8630                 2.3148                 8.1101
 Frc consts  --      0.3695                 0.3151                 1.2242
 IR Inten    --      1.4725                 4.0716                 3.8706

                     25                     26                     27
                      A                      A                      A
 Frequencies --    535.6151               561.8232               592.5808
 Red. masses --      3.3180                 2.3360                 5.2161
 Frc consts  --      0.5608                 0.4344                 1.0792
 IR Inten    --      6.0918                 2.8451                 0.5304

                     28                     29                     30
                      A                      A                      A
 Frequencies --    628.9665               655.0787               668.9911
 Red. masses --      3.5922                 3.1982                 3.0204
 Frc consts  --      0.8373                 0.8086                 0.7965
 IR Inten    --      8.9486                 3.4654                 2.9468

                     31                     32                     33
                      A                      A                      A
 Frequencies --    709.8097               714.5474               777.2510
 Red. masses --      3.2321                 6.1054                 4.6958
 Frc consts  --      0.9595                 1.8366                 1.6714
 IR Inten    --      3.1993                 1.4945                 5.8540

                     34                     35                     36
                      A                      A                      A
 Frequencies --    828.2581               842.0097               876.5454
 Red. masses --      1.5725                 3.1092                 3.8362
 Frc consts  --      0.6356                 1.2988                 1.7366
 IR Inten    --      0.6260                14.6785                 2.6687

                     37                     38                     39
                      A                      A                      A
 Frequencies --    879.0818               903.0012               920.8803
 Red. masses --      1.8228                 1.6749                 2.6315
 Frc consts  --      0.8299                 0.8047                 1.3148
 IR Inten    --      8.3141                 1.8045                 1.8551

                     40                     41                     42
                      A                      A                      A
 Frequencies --    929.4402               946.7903               955.6898
 Red. masses --      2.1786                 2.1768                 1.9408
 Frc consts  --      1.1089                 1.1497                 1.0444
 IR Inten    --      6.1003                 5.5957                 4.7315

                     43                     44                     45
                      A                      A                      A
 Frequencies --    986.2035               995.6580              1001.5522
 Red. masses --      2.6969                 1.7149                 1.2535
 Frc consts  --      1.5454                 1.0016                 0.7408
 IR Inten    --      2.5008                11.5475                 0.4329

                     46                     47                     48
                      A                      A                      A
 Frequencies --   1009.4827              1040.4988              1043.1534
 Red. masses --      1.4763                 2.4976                 2.5755
 Frc consts  --      0.8864                 1.5932                 1.6512
 IR Inten    --     13.9826                 3.3181                52.8220

                     49                     50                     51
                      A                      A                      A
 Frequencies --   1047.5551              1050.2098              1099.5753
 Red. masses --      2.3160                 1.7758                 2.4327
 Frc consts  --      1.4974                 1.1539                 1.7329
 IR Inten    --     19.7146                12.4180                53.9967

                     52                     53                     54
                      A                      A                      A
 Frequencies --   1118.0812              1136.6953              1144.1612
 Red. masses --      3.4245                 3.5478                 1.9478
 Frc consts  --      2.5223                 2.7008                 1.5023
 IR Inten    --    102.2555                 4.8234                15.7275

                     55                     56                     57
                      A                      A                      A
 Frequencies --   1169.4732              1197.8629              1216.9852
 Red. masses --      2.4281                 1.3968                 1.4288
 Frc consts  --      1.9566                 1.1809                 1.2468
 IR Inten    --     30.5175                25.2318                 7.4846

                     58                     59                     60
                      A                      A                      A
 Frequencies --   1219.4733              1226.0843              1239.1835
 Red. masses --      1.4269                 1.4268                 1.6689
 Frc consts  --      1.2503                 1.2637                 1.5099
 IR Inten    --      1.6568                51.2168                 4.8020

                     61                     62                     63
                      A                      A                      A
 Frequencies --   1270.5524              1294.4172              1306.4896
 Red. masses --      1.2426                 1.3658                 1.4793
 Frc consts  --      1.1819                 1.3483                 1.4877
 IR Inten    --     15.4317                44.7753                 9.0627

                     64                     65                     66
                      A                      A                      A
 Frequencies --   1315.9852              1325.2568              1338.5007
 Red. masses --      1.6767                 1.4309                 1.4345
 Frc consts  --      1.7108                 1.4807                 1.5142
 IR Inten    --     50.0794                 4.7528                10.2524

                     67                     68                     69
                      A                      A                      A
 Frequencies --   1356.7210              1361.9540              1379.2734
 Red. masses --      1.3432                 1.2870                 1.2290
 Frc consts  --      1.4567                 1.4065                 1.3775
 IR Inten    --      0.9994                 1.0448                 3.4512

                     70                     71                     72
                      A                      A                      A
 Frequencies --   1386.0432              1389.6199              1392.8074
 Red. masses --      1.3849                 1.2828                 1.1785
 Frc consts  --      1.5676                 1.4595                 1.3470
 IR Inten    --     21.8757                 2.2479                 0.2521

                     73                     74                     75
                      A                      A                      A
 Frequencies --   1413.6161              1418.8818              1424.6531
 Red. masses --      1.3566                 1.5056                 1.3888
 Frc consts  --      1.5973                 1.7858                 1.6608
 IR Inten    --      2.8943                25.2248                21.2825

                     76                     77                     78
                      A                      A                      A
 Frequencies --   1479.5713              1498.7716              1502.0359
 Red. masses --      2.0108                 1.0635                 1.1155
 Frc consts  --      2.5935                 1.4075                 1.4827
 IR Inten    --    161.0940                 5.8329                19.6686

                     79                     80                     81
                      A                      A                      A
 Frequencies --   1504.7025              1514.9288              1515.4851
 Red. masses --      1.2808                 1.0710                 1.0904
 Frc consts  --      1.7085                 1.4482                 1.4755
 IR Inten    --     48.9501                 6.1461                 2.9193

                     82                     83                     84
                      A                      A                      A
 Frequencies --   1517.3104              1526.0269              1528.5000
 Red. masses --      1.0742                 1.1047                 1.1050
 Frc consts  --      1.4570                 1.5157                 1.5211
 IR Inten    --     16.8068                17.9054                 5.8255

                     85                     86                     87
                      A                      A                      A
 Frequencies --   1539.3708              1562.8408              1750.2979
 Red. masses --      1.0908                 1.0952                10.1334
 Frc consts  --      1.5229                 1.5761                18.2906
 IR Inten    --     12.3078                 1.3645               312.5120

                     88                     89                     90
                      A                      A                      A
 Frequencies --   2349.2771              3010.1024              3028.8137
 Red. masses --     12.6970                 1.0840                 1.0670
 Frc consts  --     41.2876                 5.7869                 5.7672
 IR Inten    --      7.1917                33.7242                54.1938

                     91                     92                     93
                      A                      A                      A
 Frequencies --   3037.9147              3045.0972              3053.6156
 Red. masses --      1.0728                 1.0756                 1.0680
 Frc consts  --      5.8334                 5.8765                 5.8675
 IR Inten    --     20.5983                21.5907                19.5317

                     94                     95                     96
                      A                      A                      A
 Frequencies --   3067.3855              3068.0234              3069.2070
 Red. masses --      1.0699                 1.0572                 1.0333
 Frc consts  --      5.9311                 5.8631                 5.7351
 IR Inten    --     11.7389                 7.7127                17.7433

                     97                     98                     99
                      A                      A                      A
 Frequencies --   3077.5774              3081.2924              3084.6898
 Red. masses --      1.0589                 1.0609                 1.0918
 Frc consts  --      5.9089                 5.9347                 6.1209
 IR Inten    --     15.2152                10.8452                64.6981

                    100                    101                    102
                      A                      A                      A
 Frequencies --   3120.7261              3121.5038              3126.8249
 Red. masses --      1.0980                 1.1045                 1.1060
 Frc consts  --      6.3005                 6.3406                 6.3708
 IR Inten    --     19.1400                14.1031                19.6718

                    103                    104                    105
                      A                      A                      A
 Frequencies --   3127.1104              3131.3714              3157.1160
 Red. masses --      1.1048                 1.1038                 1.1080
 Frc consts  --      6.3653                 6.3767                 6.5070
 IR Inten    --     16.7139                41.9353                 7.7369

                    106                    107                    108
                      A                      A                      A
 Frequencies --   3161.8166              3170.7904              3204.6867
 Red. masses --      1.1045                 1.0919                 1.0885
 Frc consts  --      6.5056                 6.4677                 6.5862
 IR Inten    --      2.5910                 5.5539                 6.0723

 - Thermochemistry -
 -------------------
 Temperature   298.150 Kelvin.  Pressure   1.00000 Atm.
 Atom     1 has atomic number  6 and mass  12.00000

 Molecular mass:   268.12455 amu.
 Principal axes and moments of inertia in atomic units:
                           1         2         3
     Eigenvalues --  2123.78812********************
           X            0.99989  -0.01294  -0.00654
           Y            0.01305   0.99977   0.01719
           Z            0.00632  -0.01727   0.99983
 This molecule is an asymmetric top.
 Rotational symmetry number  1.
 Warning -- assumption of classical behavior for rotation
           may cause significant error
 Rotational temperatures (Kelvin)      0.04078     0.00830     0.00778
 Rotational constants (GHZ):           0.84977     0.17284     0.16216
 Zero-point vibrational energy     852017.4 (Joules/Mol)
                                  203.63706 (Kcal/Mol)
 Warning -- explicit consideration of  27 degrees of freedom as
           vibrations may cause significant error
 Vibrational temperatures:     25.10    40.78    62.58    66.09    91.15
          (Kelvin)            101.99   157.00   171.20   196.19   223.63
                              246.29   283.43   304.37   319.76   361.96
                              417.60   452.72   500.59   521.43   605.41
                              625.32   673.42   691.55   728.25   770.63
                              808.34   852.59   904.94   942.51   962.53
                             1021.26  1028.07  1118.29  1191.68  1211.46
                             1261.15  1264.80  1299.22  1324.94  1337.26
                             1362.22  1375.02  1418.93  1432.53  1441.01
                             1452.42  1497.05  1500.87  1507.20  1511.02
                             1582.04  1608.67  1635.45  1646.19  1682.61
                             1723.46  1750.97  1754.55  1764.06  1782.91
                             1828.04  1862.38  1879.75  1893.41  1906.75
                             1925.80  1952.02  1959.55  1984.47  1994.21
                             1999.35  2003.94  2033.88  2041.45  2049.76
                             2128.77  2156.40  2161.09  2164.93  2179.64
                             2180.45  2183.07  2195.61  2199.17  2214.81
                             2248.58  2518.29  3380.09  4330.87  4357.79
                             4370.88  4381.22  4393.47  4413.28  4414.20
                             4415.90  4427.95  4433.29  4438.18  4490.03
                             4491.15  4498.80  4499.21  4505.35  4542.39
                             4549.15  4562.06  4610.83

 Zero-point correction=                           0.324516 (Hartree/Particle)
 Thermal correction to Energy=                    0.343081
 Thermal correction to Enthalpy=                  0.344025
 Thermal correction to Gibbs Free Energy=         0.274961
 Sum of electronic and zero-point Energies=          -1165.311337
 Sum of electronic and thermal Energies=             -1165.292772
 Sum of electronic and thermal Enthalpies=           -1165.291828
 Sum of electronic and thermal Free Energies=        -1165.360892

                     E (Thermal)             CV                S
                      KCal/Mol        Cal/Mol-Kelvin    Cal/Mol-Kelvin
 Total                  215.287             68.457            145.357
 Electronic               0.000              0.000              0.000
 Translational            0.889              2.981             42.658
 Rotational               0.889              2.981             33.867
 Vibrational            213.509             62.495             68.832
 Vibration     1          0.593              1.986              6.905
 Vibration     2          0.593              1.984              5.942
 Vibration     3          0.595              1.980              5.093
 Vibration     4          0.595              1.979              4.985
 Vibration     5          0.597              1.972              4.350
 Vibration     6          0.598              1.968              4.129
 Vibration     7          0.606              1.942              3.285
 Vibration     8          0.609              1.933              3.117
 Vibration     9          0.614              1.917              2.854
 Vibration    10          0.620              1.897              2.605
 Vibration    11          0.626              1.878              2.423
 Vibration    12          0.636              1.844              2.161
 Vibration    13          0.643              1.823              2.030
 Vibration    14          0.648              1.807              1.941
 Vibration    15          0.664              1.760              1.720
 Vibration    16          0.686              1.692              1.473
 Vibration    17          0.702              1.646              1.338
 Vibration    18          0.726              1.579              1.176
 Vibration    19          0.736              1.550              1.112
 Vibration    20          0.783              1.425              0.889
 Vibration    21          0.795              1.395              0.844
 Vibration    22          0.825              1.321              0.743
 Vibration    23          0.837              1.293              0.708
 Vibration    24          0.861              1.236              0.643
 Vibration    25          0.891              1.171              0.575
 Vibration    26          0.918              1.114              0.520
 Vibration    27          0.950              1.048              0.463

                           ! Non-Optimized Parameters !
 Normal termination of Gaussian 16 at Fri Dec 11 19:15:06 2020.

 ----------------------------------------------------------------------
 # B3LYP/6-311++G(d,p) empiricaldispersion=gd3bj scf=xqc pop=npa geom=c
 heck
 ----------------------------------------------------------------------

 --------------------------------------
 CID_65990332_JID_8145_Energie_neutraal
 --------------------------------------
 Structure from the checkpoint file:  "JID_8145.chk"
 Charge =  0 Multiplicity = 1

 SCF Done:  E(RB3LYP) =  -1165.87716203     A.U. after   16 cycles
 Normal termination of Gaussian 16 at Fri Dec 11 19:22:25 2020.

 ----------------------------------------------------------------------
 # B3LYP/6-311++G(d,p) empiricaldispersion=gd3bj scf=xqc pop=npa geom=c
 heck
 ----------------------------------------------------------------------

 ------------------------------------
 CID_65990332_JID_8145_Energie_kation
 ------------------------------------
 Structure from the checkpoint file:  "JID_8145.chk"
 Charge =  1 Multiplicity = 2

 SCF Done:  E(UB3LYP) =  -1165.57222272     A.U. after   33 cycles
 SCF Done:  E(UB3LYP) =  -1165.57222274     a.u. after    2 cycles
 Normal termination of Gaussian 16 at Fri Dec 11 19:59:47 2020.
 Gaussian 16:  ES64L-G16RevA.03 25-Dec-2016

 ----------------------------------------------------------------------
 # B3LYP/6-311++G(d,p) empiricaldispersion=gd3bj scf=xqc pop=npa geom=c
 heck
 ----------------------------------------------------------------------

 -----------------------------------
 CID_65990332_JID_8145_Energie_anion
 -----------------------------------
 Structure from the checkpoint file:  "JID_8145.chk"
 Charge = -1 Multiplicity = 2

                         Standard orientation:
 ---------------------------------------------------------------------
 Center     Atomic      Atomic             Coordinates (Angstroms)
 Number     Number       Type             X           Y           Z
 ---------------------------------------------------------------------
      1          6           0       -5.343660    0.072406   -0.108622
      2         16           0       -3.986442   -0.281460   -1.277792
      3          6           0       -2.513917   -0.256145   -0.147294
      4          6           0       -2.245208    1.148287    0.441693
      5          6           0       -0.914954    1.191133    1.201968
      6          7           0        0.172703    0.746029    0.336744
      7          6           0        0.001249   -0.605166   -0.180341
      8          6           0       -1.297166   -0.707368   -0.989473
      9          6           0        1.246490    1.577165    0.139691
     10          8           0        1.337601    2.664114    0.705787
     11          6           0        2.364167    1.132938   -0.799308
     12          6           0        3.483580    0.414807   -0.046447
     13          6           0        4.710012    0.064401   -0.892857
     14          6           0        5.288482   -1.128365   -0.122028
     15          6           0        4.017686   -1.843506    0.359633
     16          8           0        2.993591   -0.842797    0.444602
     17          6           0       -2.749868   -1.213567    0.939952
     18          7           0       -2.956114   -1.946782    1.817205
     19          1           0       -6.268710   -0.020373   -0.682942
     20          1           0       -5.278728    1.085841    0.294564
     21          1           0       -5.354482   -0.658850    0.703799
     22          1           0       -2.215014    1.854633   -0.394113
     23          1           0       -3.062760    1.443319    1.106576
     24          1           0       -0.963893    0.544681    2.089394
     25          1           0       -0.682808    2.204497    1.527289
     26          1           0       -0.028817   -1.306104    0.664855
     27          1           0        0.858697   -0.893270   -0.781275
     28          1           0       -1.447811   -1.733427   -1.339032
     29          1           0       -1.235899   -0.052556   -1.866305
     30          1           0        2.021751    0.506643   -1.628384
     31          1           0        2.769787    2.058305   -1.217725
     32          1           0        3.782077    1.041308    0.808020
     33          1           0        4.394745   -0.241541   -1.898695
     34          1           0        5.405326    0.902700   -0.991904
     35          1           0        5.929401   -1.772923   -0.730387
     36          1           0        5.877135   -0.775617    0.732244
     37          1           0        3.696321   -2.616059   -0.352638
     38          1           0        4.139750   -2.315234    1.341183
 ---------------------------------------------------------------------

 SCF Done:  E(UB3LYP) =  -1165.86855058     A.U. after   33 cycles
 SCF Done:  E(UB3LYP) =  -1165.86855059     a.u. after    1 cycles

 The electronic state is 2-A.
 Alpha  occ. eigenvalues --  -88.77276 -19.03517 -18.99848 -14.26018 -14.23876
 Alpha  occ. eigenvalues --  -10.18568 -10.17581 -10.14155 -10.13634 -10.12853
 Alpha  occ. eigenvalues --  -10.12820 -10.12442 -10.11443 -10.11404 -10.11043
 Alpha  occ. eigenvalues --  -10.09327 -10.08748 -10.08685  -7.85866  -5.82287
 Alpha  occ. eigenvalues --   -5.81911  -5.81189  -0.95543  -0.94950  -0.86412
 Alpha  occ. eigenvalues --   -0.83666  -0.77297  -0.71218  -0.70050  -0.69616
 Alpha  occ. eigenvalues --   -0.68719  -0.63113  -0.60707  -0.57195  -0.55183
 Alpha  occ. eigenvalues --   -0.54854  -0.51649  -0.49803  -0.47756  -0.43452
 Alpha  occ. eigenvalues --   -0.41229  -0.41112  -0.40344  -0.39710  -0.38804
 Alpha  occ. eigenvalues --   -0.38200  -0.37761  -0.35933  -0.35023  -0.34202
 Alpha  occ. eigenvalues --   -0.33444  -0.33280  -0.32929  -0.32130  -0.30830
 Alpha  occ. eigenvalues --   -0.30108  -0.29479  -0.29275  -0.28597  -0.27963
 Alpha  occ. eigenvalues --   -0.27766  -0.27286  -0.26890  -0.25989  -0.25278
 Alpha  occ. eigenvalues --   -0.24887  -0.23652  -0.23466  -0.17220  -0.17047
 Alpha  occ. eigenvalues --   -0.16263  -0.15824   0.03638
 Alpha virt. eigenvalues --    0.04711   0.06059   0.06751   0.07115   0.07437
 Alpha virt. eigenvalues --    0.07686   0.08240   0.09018   0.09180   0.09413
 Alpha virt. eigenvalues --    0.09806   0.10028   0.10553   0.10646   0.11157

  Beta  occ. eigenvalues --  -88.77270 -19.03516 -18.99832 -14.26022 -14.23869
  Beta  occ. eigenvalues --  -10.18547 -10.17580 -10.14151 -10.13633 -10.12841
  Beta  occ. eigenvalues --  -10.12795 -10.12438 -10.11398 -10.11380 -10.11026
  Beta  occ. eigenvalues --  -10.09314 -10.08723 -10.08657  -7.85861  -5.82279
  Beta  occ. eigenvalues --   -5.81896  -5.81186  -0.95524  -0.94932  -0.86403
  Beta  occ. eigenvalues --   -0.83658  -0.77278  -0.71187  -0.70019  -0.69575
  Beta  occ. eigenvalues --   -0.68679  -0.63070  -0.60663  -0.57170  -0.55145
  Beta  occ. eigenvalues --   -0.54799  -0.51578  -0.49758  -0.47724  -0.43426
  Beta  occ. eigenvalues --   -0.41186  -0.41069  -0.40326  -0.39674  -0.38775
  Beta  occ. eigenvalues --   -0.38183  -0.37736  -0.35901  -0.34966  -0.34159
  Beta  occ. eigenvalues --   -0.33412  -0.33249  -0.32872  -0.32096  -0.30807
  Beta  occ. eigenvalues --   -0.30081  -0.29451  -0.29243  -0.28565  -0.27948
  Beta  occ. eigenvalues --   -0.27740  -0.27247  -0.26846  -0.25937  -0.25235
  Beta  occ. eigenvalues --   -0.24870  -0.23628  -0.23433  -0.17197  -0.17031
  Beta  occ. eigenvalues --   -0.16245  -0.15799
  Beta virt. eigenvalues --    0.05749   0.05835   0.06337   0.07162   0.07472
  Beta virt. eigenvalues --    0.07865   0.08178   0.08392   0.09143   0.09376
  Beta virt. eigenvalues --    0.09786   0.10056   0.10299   0.10702   0.10810

 Mulliken charges and spin densities:
               1          2
     1  C    0.472370  -1.022244
     2  S   -0.148731   0.113166
     3  C    0.985141   1.114979
     4  C   -0.308441  -0.127055
     5  C   -0.199455  -0.431434
     6  N    0.121857   0.053250
     7  C   -0.565347  -0.226968
     8  C   -0.226723  -0.236945
     9  C   -0.233484  -0.010422
    10  O   -0.316309   0.011403
    11  C    0.835587  -1.138179
    12  C   -0.978164   1.158870
    13  C    0.620068  -1.035021
    14  C   -0.487479   0.135718
    15  C    0.828741  -1.012882
    16  O   -0.113931   0.014980
    17  C   -0.348225  -0.854332
    18  N   -0.253478   0.030846
    19  H   -0.470166   0.645370
    20  H   -0.394255   0.575627
    21  H    0.037618   0.166654
    22  H    0.081287   0.125045
    23  H    0.115082   0.078527
    24  H    0.157135   0.039593
    25  H    0.152660   0.076850
    26  H    0.264412  -0.030596
    27  H    0.151075   0.072141
    28  H   -0.002149   0.223680
    29  H    0.128535   0.056065
    30  H   -0.107533   0.275352
    31  H    0.176920   0.037620
    32  H    0.092293   0.122928
    33  H   -0.277133   0.451963
    34  H   -0.125458   0.267442
    35  H   -0.503723   0.682486
    36  H    0.095751   0.050537
    37  H   -0.254545   0.404139
    38  H   -0.001806   0.140849
 Sum of Mulliken charges =  -1.00000   1.00000

 Dipole moment (field-independent basis, Debye):
    X=              0.4145    Y=              1.5430    Z=              0.6830  Tot=              1.7375
 Quadrupole moment (field-independent basis, Debye-Ang):
   XX=           -245.0448   YY=           -167.0329   ZZ=           -153.6101
   XY=              8.7375   XZ=             14.5845   YZ=             -3.6762

 Summary of Natural Population Analysis:

                                       Natural Population
                Natural  -----------------------------------------------
    Atom  No    Charge         Core      Valence    Rydberg      Total
 -----------------------------------------------------------------------
      C    1   -0.35385      0.99962     2.34725    0.00698     3.35385
      S    2    0.11856      4.99960     2.86420    0.01764     7.88144
      C    3   -0.14053      0.99943     2.12633    0.01477     3.14053
      C    4   -0.19254      0.99958     2.18232    0.01064     3.19254
      C    5   -0.09198      0.99960     2.08191    0.01046     3.09198
      N    6   -0.25540      0.99963     2.74582    0.00995     3.75540
      C    7   -0.08631      0.99960     2.07534    0.01138     3.08631
      C    8   -0.19208      0.99958     2.18220    0.01029     3.19208
      C    9    0.35421      0.99964     1.62359    0.02256     2.64579
      O   10   -0.32971      0.99988     3.32489    0.00494     4.32971
      C   11   -0.23558      0.99956     2.22671    0.00931     3.23558
      C   12    0.07185      0.99955     1.91462    0.01398     2.92815
      C   13   -0.20035      0.99962     2.19227    0.00846     3.20035
      C   14   -0.20458      0.99964     2.19719    0.00774     3.20458
      C   15   -0.00688      0.99960     1.99540    0.01188     3.00688
      O   16   -0.31365      0.99989     3.30447    0.00930     4.31365
      C   17    0.15178      0.99959     1.82700    0.02163     2.84822
      N   18   -0.17601      0.99979     2.66402    0.01221     3.67601
      H   19    0.11368      0.00000     0.38476    0.00156     0.38632
      H   20    0.10483      0.00000     0.39277    0.00239     0.39517
      H   21    0.10824      0.00000     0.38998    0.00178     0.39176
      H   22    0.10837      0.00000     0.39016    0.00147     0.39163
      H   23    0.10912      0.00000     0.38956    0.00132     0.39088
      H   24    0.09647      0.00000     0.40248    0.00106     0.40353
      H   25    0.12247      0.00000     0.37645    0.00108     0.37753
      H   26    0.09947      0.00000     0.39900    0.00153     0.40053
      H   27    0.11764      0.00000     0.38060    0.00176     0.38236
      H   28    0.11132      0.00000     0.38732    0.00136     0.38868
      H   29    0.10659      0.00000     0.39201    0.00140     0.39341
      H   30    0.10496      0.00000     0.39347    0.00157     0.39504
      H   31    0.11557      0.00000     0.38347    0.00096     0.38443
      H   32    0.08474      0.00000     0.41382    0.00145     0.41526
      H   33    0.10138      0.00000     0.39644    0.00217     0.39862
      H   34    0.10472      0.00000     0.39434    0.00095     0.39528
      H   35    0.10837      0.00000     0.38956    0.00207     0.39163
      H   36    0.09531      0.00000     0.40359    0.00110     0.40469
      H   37    0.08492      0.00000     0.41321    0.00188     0.41508
      H   38    0.08486      0.00000     0.41397    0.00116     0.41514
 =======================================================================
   * Total *    0.00000     21.99340    49.76250    0.24411    72.00000

 Normal termination of Gaussian 16 at Fri Dec 11 20:20:44 2020.
