 Gaussian 16, Revision A.03,

 -----------------------------------------------------------
 # opt freq B3LYP/6-31G(d) empiricaldispersion=gd3bj scf=xqc
 -----------------------------------------------------------

 ------------------------------
 CID_88075080_JID_9844_neutraal
 ------------------------------
 Symbolic Z-matrix:
 Charge =  0 Multiplicity = 1

 SCF Done:  E(RB3LYP) =  -900.558194184     A.U. after   15 cycles
 SCF Done:  E(RB3LYP) =  -900.549062417     A.U. after   15 cycles
 SCF Done:  E(RB3LYP) =  -900.567863570     A.U. after   13 cycles
 SCF Done:  E(RB3LYP) =  -900.545737936     A.U. after   15 cycles
 SCF Done:  E(RB3LYP) =  -900.569505503     A.U. after   13 cycles
 SCF Done:  E(RB3LYP) =  -900.570479443     A.U. after   12 cycles
 SCF Done:  E(RB3LYP) =  -900.570747211     A.U. after   12 cycles
 SCF Done:  E(RB3LYP) =  -900.570971221     A.U. after   11 cycles
 SCF Done:  E(RB3LYP) =  -900.571241108     A.U. after   11 cycles
 SCF Done:  E(RB3LYP) =  -900.571530226     A.U. after   12 cycles
 SCF Done:  E(RB3LYP) =  -900.574380446     A.U. after    8 cycles
 SCF Done:  E(RB3LYP) =  -900.574380683     A.U. after    7 cycles
 SCF Done:  E(RB3LYP) =  -900.574380846     A.U. after    7 cycles
 SCF Done:  E(RB3LYP) =  -900.574380875     A.U. after    7 cycles
 Optimization completed.
    -- Stationary point found.
 Normal termination of Gaussian 16 at Sat Dec 12 10:20:46 2020.

 --------------------------------------------------------------------
 #N Geom=AllCheck Guess=TCheck SCRF=Check GenChk RB3LYP/6-31G(d) Freq
 --------------------------------------------------------------------

 Structure from the checkpoint file:  "JID_9844.chk"
 ------------------------------
 CID_88075080_JID_9844_neutraal
 ------------------------------
 Charge =  0 Multiplicity = 1

 SCF Done:  E(RB3LYP) =  -900.574380875     A.U. after    1 cycles

  Exact polarizability: 155.454  -0.642 158.292   9.654   2.842 147.919
 Approx polarizability: 208.067  -2.711 252.452  14.286  -1.557 255.092

                      1                      2                      3
                      A                      A                      A
 Frequencies --     35.6260                57.6864                62.3561
 Red. masses --      4.9409                 5.4886                 4.2401
 Frc consts  --      0.0037                 0.0108                 0.0097
 IR Inten    --      0.9058                 0.3647                 0.2592

                      4                      5                      6
                      A                      A                      A
 Frequencies --     86.5312                94.4086               106.9678
 Red. masses --      3.8453                 5.2228                 5.8542
 Frc consts  --      0.0170                 0.0274                 0.0395
 IR Inten    --      1.2063                 0.6534                 2.5618

                      7                      8                      9
                      A                      A                      A
 Frequencies --    120.8577               125.8276               152.0568
 Red. masses --      4.1267                 5.2831                 4.0659
 Frc consts  --      0.0355                 0.0493                 0.0554
 IR Inten    --      2.2825                 0.4779                 5.5101

                     10                     11                     12
                      A                      A                      A
 Frequencies --    210.5108               223.4115               246.2814
 Red. masses --      3.8459                 3.9564                 3.8578
 Frc consts  --      0.1004                 0.1163                 0.1379
 IR Inten    --      2.2939                 1.1953                 1.3892

                     13                     14                     15
                      A                      A                      A
 Frequencies --    298.7635               315.3573               322.4203
 Red. masses --      2.5371                 3.1754                 1.0825
 Frc consts  --      0.1334                 0.1861                 0.0663
 IR Inten    --      4.6365                 1.5633                58.3950

                     16                     17                     18
                      A                      A                      A
 Frequencies --    347.3431               374.9662               388.3806
 Red. masses --      2.7145                 3.8559                 4.8080
 Frc consts  --      0.1930                 0.3194                 0.4273
 IR Inten    --      6.1108                 2.2536                 7.4315

                     19                     20                     21
                      A                      A                      A
 Frequencies --    420.6466               433.4678               437.5113
 Red. masses --      2.9866                 2.4636                 2.5405
 Frc consts  --      0.3114                 0.2727                 0.2865
 IR Inten    --      1.4290                 3.2511                 4.5129

                     22                     23                     24
                      A                      A                      A
 Frequencies --    475.3340               483.0355               516.3840
 Red. masses --      4.1091                 3.2407                 3.4765
 Frc consts  --      0.5470                 0.4455                 0.5462
 IR Inten    --      0.9356                 8.1243                13.7070

                     25                     26                     27
                      A                      A                      A
 Frequencies --    545.2045               597.2097               635.1774
 Red. masses --      2.8415                 4.6050                 6.3721
 Frc consts  --      0.4976                 0.9677                 1.5147
 IR Inten    --      2.6872                 5.8633                 0.1493

                     28                     29                     30
                      A                      A                      A
 Frequencies --    636.5691               685.3882               713.2189
 Red. masses --      5.1737                 2.5229                 2.5350
 Frc consts  --      1.2352                 0.6983                 0.7597
 IR Inten    --      5.9016                 1.6914                22.7970

                     31                     32                     33
                      A                      A                      A
 Frequencies --    735.9581               757.7253               792.5580
 Red. masses --     11.5091                 1.4228                 3.7501
 Frc consts  --      3.6728                 0.4813                 1.3879
 IR Inten    --     27.5945                58.3340                 2.2953

                     34                     35                     36
                      A                      A                      A
 Frequencies --    823.4931               835.2946               869.1160
 Red. masses --      4.1375                 3.8834                 1.3149
 Frc consts  --      1.6531                 1.5964                 0.5852
 IR Inten    --      4.0965                19.1266                 0.8940

                     37                     38                     39
                      A                      A                      A
 Frequencies --    870.9131               878.8216               895.5991
 Red. masses --      2.1318                 1.4516                 2.4599
 Frc consts  --      0.9527                 0.6606                 1.1625
 IR Inten    --      8.6571                 9.6268                 6.0089

                     40                     41                     42
                      A                      A                      A
 Frequencies --    914.4881               928.4698               968.6012
 Red. masses --      2.5083                 1.6350                 2.1094
 Frc consts  --      1.2359                 0.8304                 1.1660
 IR Inten    --      0.8202                 7.9815                 2.0094

                     43                     44                     45
                      A                      A                      A
 Frequencies --    979.1985               996.4510              1000.2040
 Red. masses --      1.3520                 2.3901                 1.3410
 Frc consts  --      0.7638                 1.3982                 0.7904
 IR Inten    --      2.3806                50.7230                 1.0959

                     46                     47                     48
                      A                      A                      A
 Frequencies --   1018.0208              1022.7805              1027.6458
 Red. masses --      2.7566                 5.4307                 1.7235
 Frc consts  --      1.6832                 3.3471                 1.0724
 IR Inten    --      6.9332                 1.4913                 7.7494

                     49                     50                     51
                      A                      A                      A
 Frequencies --   1053.7912              1055.5931              1063.5122
 Red. masses --      2.3597                 2.3533                 2.3382
 Frc consts  --      1.5439                 1.5450                 1.5581
 IR Inten    --     36.3107                 3.9498                37.1066

                     52                     53                     54
                      A                      A                      A
 Frequencies --   1072.5570              1099.7540              1123.3764
 Red. masses --      2.7101                 4.9711                 1.6514
 Frc consts  --      1.8368                 3.5423                 1.2279
 IR Inten    --      4.3780                59.4611                19.3242

                     55                     56                     57
                      A                      A                      A
 Frequencies --   1124.6631              1158.2473              1169.7961
 Red. masses --      1.6334                 1.8943                 1.9472
 Frc consts  --      1.2173                 1.4973                 1.5699
 IR Inten    --      6.2569                 7.7308                73.7703

                     58                     59                     60
                      A                      A                      A
 Frequencies --   1193.8734              1217.0653              1223.7069
 Red. masses --      1.1029                 1.1566                 1.4022
 Frc consts  --      0.9262                 1.0094                 1.2371
 IR Inten    --      0.1311                 8.9667                31.5011

                     61                     62                     63
                      A                      A                      A
 Frequencies --   1233.2644              1243.6718              1269.1177
 Red. masses --      2.4863                 1.3839                 1.6581
 Frc consts  --      2.2280                 1.2611                 1.5735
 IR Inten    --      3.6654                63.8993                52.0859

                     64                     65                     66
                      A                      A                      A
 Frequencies --   1287.2495              1295.6896              1297.7341
 Red. masses --      1.4796                 1.1870                 1.5330
 Frc consts  --      1.4446                 1.1741                 1.5212
 IR Inten    --     42.5430                15.9585                78.2873

                     67                     68                     69
                      A                      A                      A
 Frequencies --   1328.8860              1346.2772              1357.2389
 Red. masses --      1.1695                 2.4422                 1.5031
 Frc consts  --      1.2168                 2.6080                 1.6313
 IR Inten    --     22.3245                10.4391                29.3678

                     70                     71                     72
                      A                      A                      A
 Frequencies --   1372.0846              1375.2349              1385.4186
 Red. masses --      1.8533                 1.2879                 1.3847
 Frc consts  --      2.0557                 1.4351                 1.5659
 IR Inten    --      1.8453                 0.9222                 5.0122

                     73                     74                     75
                      A                      A                      A
 Frequencies --   1403.3278              1407.9447              1412.9448
 Red. masses --      1.4501                 1.4812                 1.3973
 Frc consts  --      1.6826                 1.7300                 1.6436
 IR Inten    --      3.2533                10.0630                14.9746

                     76                     77                     78
                      A                      A                      A
 Frequencies --   1420.1052              1466.9083              1489.2735
 Red. masses --      1.3256                 2.2668                 1.4173
 Frc consts  --      1.5751                 2.8739                 1.8520
 IR Inten    --      4.5029               160.2835                 0.7703

                     79                     80                     81
                      A                      A                      A
 Frequencies --   1491.6818              1505.6847              1511.6310
 Red. masses --      1.1831                 1.8852                 1.1009
 Frc consts  --      1.5510                 2.5181                 1.4821
 IR Inten    --      1.6566                15.5984                 5.6035

                     82                     83                     84
                      A                      A                      A
 Frequencies --   1512.2240              1520.7165              1531.9268
 Red. masses --      1.0869                 1.1007                 1.1182
 Frc consts  --      1.4644                 1.4998                 1.5461
 IR Inten    --      5.2751                 7.2704                28.6808

                     85                     86                     87
                      A                      A                      A
 Frequencies --   1547.5799              1552.0909              1645.4020
 Red. masses --      1.9772                 1.1441                 5.4625
 Frc consts  --      2.7901                 1.6238                 8.7133
 IR Inten    --      3.7131                13.6073                 0.6506

                     88                     89                     90
                      A                      A                      A
 Frequencies --   1667.0520              1829.1781              3001.4887
 Red. masses --      5.3966                11.7417                 1.0708
 Frc consts  --      8.8363                23.1469                 5.6835
 IR Inten    --      0.7097               326.1885                49.3464

                     91                     92                     93
                      A                      A                      A
 Frequencies --   3028.3939              3040.2686              3040.7996
 Red. masses --      1.0729                 1.0715                 1.0590
 Frc consts  --      5.7975                 5.8354                 5.7695
 IR Inten    --     18.1418                34.2073                24.6631

                     94                     95                     96
                      A                      A                      A
 Frequencies --   3042.4298              3052.0831              3055.5425
 Red. masses --      1.0782                 1.0608                 1.0765
 Frc consts  --      5.8801                 5.8223                 5.9214
 IR Inten    --     15.0260                22.4828                83.8195

                     97                     98                     99
                      A                      A                      A
 Frequencies --   3085.0459              3088.4005              3096.1190
 Red. masses --      1.1060                 1.0966                 1.0969
 Frc consts  --      6.2019                 6.1625                 6.1949
 IR Inten    --     11.1801                55.0180                48.3272

                    100                    101                    102
                      A                      A                      A
 Frequencies --   3119.7989              3158.5887              3169.2014
 Red. masses --      1.0929                 1.0931                 1.0932
 Frc consts  --      6.2676                 6.4253                 6.4690
 IR Inten    --     14.2783                10.1985                 3.9328

                    103                    104                    105
                      A                      A                      A
 Frequencies --   3176.4141              3187.4164              3198.1823
 Red. masses --      1.0864                 1.0882                 1.0922
 Frc consts  --      6.4581                 6.5141                 6.5817
 IR Inten    --      4.2762                 4.7707                22.7726

                    106                    107                    108
                      A                      A                      A
 Frequencies --   3208.6901              3230.7539              3741.9747
 Red. masses --      1.0962                 1.0932                 1.0658
 Frc consts  --      6.6494                 6.7229                 8.7925
 IR Inten    --     13.8659                 3.3772                59.3000

 - Thermochemistry -
 -------------------
 Temperature   298.150 Kelvin.  Pressure   1.00000 Atm.
 Atom     1 has atomic number  6 and mass  12.00000

 Molecular mass:   265.13141 amu.
 Principal axes and moments of inertia in atomic units:
                           1         2         3
     Eigenvalues --  3532.835215000.629366561.40388
           X            0.99984   0.01597   0.00793
           Y           -0.01605   0.99981   0.01090
           Z           -0.00775  -0.01102   0.99991
 This molecule is an asymmetric top.
 Rotational symmetry number  1.
 Warning -- assumption of classical behavior for rotation
           may cause significant error
 Rotational temperatures (Kelvin)      0.02452     0.01732     0.01320
 Rotational constants (GHZ):           0.51085     0.36090     0.27505
 Zero-point vibrational energy     846054.7 (Joules/Mol)
                                  202.21193 (Kcal/Mol)
 Warning -- explicit consideration of  26 degrees of freedom as
           vibrations may cause significant error
 Vibrational temperatures:     51.26    83.00    89.72   124.50   135.83
          (Kelvin)            153.90   173.89   181.04   218.78   302.88
                              321.44   354.34   429.85   453.73   463.89
                              499.75   539.49   558.79   605.22   623.66
                              629.48   683.90   694.98   742.96   784.43
                              859.25   913.88   915.88   986.12  1026.16
                             1058.88  1090.20  1140.31  1184.82  1201.80
                             1250.46  1253.05  1264.43  1288.57  1315.74
                             1335.86  1393.60  1408.85  1433.67  1439.07
                             1464.70  1471.55  1478.55  1516.17  1518.76
                             1530.16  1543.17  1582.30  1616.29  1618.14
                             1666.46  1683.08  1717.72  1751.09  1760.64
                             1774.39  1789.37  1825.98  1852.06  1864.21
                             1867.15  1911.97  1936.99  1952.76  1974.12
                             1978.66  1993.31  2019.08  2025.72  2032.91
                             2043.21  2110.55  2142.73  2146.20  2166.34
                             2174.90  2175.75  2187.97  2204.10  2226.62
                             2233.11  2367.37  2398.52  2631.78  4318.47
                             4357.18  4374.27  4375.03  4377.38  4391.27
                             4396.24  4438.69  4443.52  4454.62  4488.69
                             4544.50  4559.77  4570.15  4585.98  4601.47
                             4616.59  4648.33  5383.87

 Zero-point correction=                           0.322245 (Hartree/Particle)
 Thermal correction to Energy=                    0.339500
 Thermal correction to Enthalpy=                  0.340445
 Thermal correction to Gibbs Free Energy=         0.277079
 Sum of electronic and zero-point Energies=           -900.252136
 Sum of electronic and thermal Energies=              -900.234880
 Sum of electronic and thermal Enthalpies=            -900.233936
 Sum of electronic and thermal Free Energies=         -900.297302

                     E (Thermal)             CV                S
                      KCal/Mol        Cal/Mol-Kelvin    Cal/Mol-Kelvin
 Total                  213.040             67.338            133.364
 Electronic               0.000              0.000              0.000
 Translational            0.889              2.981             42.624
 Rotational               0.889              2.981             33.116
 Vibrational            211.262             61.376             57.624
 Vibration     1          0.594              1.982              5.489
 Vibration     2          0.596              1.974              4.535
 Vibration     3          0.597              1.972              4.381
 Vibration     4          0.601              1.959              3.737
 Vibration     5          0.603              1.953              3.567
 Vibration     6          0.606              1.944              3.323
 Vibration     7          0.609              1.932              3.087
 Vibration     8          0.611              1.927              3.009
 Vibration     9          0.619              1.900              2.646
 Vibration    10          0.643              1.825              2.039
 Vibration    11          0.649              1.805              1.931
 Vibration    12          0.661              1.769              1.757
 Vibration    13          0.692              1.676              1.424
 Vibration    14          0.703              1.644              1.334
 Vibration    15          0.707              1.631              1.298
 Vibration    16          0.725              1.581              1.178
 Vibration    17          0.746              1.523              1.059
 Vibration    18          0.757              1.495              1.006
 Vibration    19          0.783              1.425              0.890
 Vibration    20          0.794              1.397              0.847
 Vibration    21          0.798              1.388              0.834
 Vibration    22          0.832              1.305              0.723
 Vibration    23          0.839              1.288              0.702
 Vibration    24          0.871              1.214              0.618
 Vibration    25          0.900              1.150              0.554
 Vibration    26          0.955              1.038              0.454

 Optimization completed.
    -- Stationary point found.
 Normal termination of Gaussian 16 at Sat Dec 12 10:42:51 2020.

 ----------------------------------------------------------------------
 # B3LYP/6-311++G(d,p) empiricaldispersion=gd3bj scf=xqc pop=npa geom=c
 heck
 ----------------------------------------------------------------------

 --------------------------------------
 CID_88075080_JID_9844_Energie_neutraal
 --------------------------------------
 Structure from the checkpoint file:  "JID_9844.chk"
 Charge =  0 Multiplicity = 1

 SCF Done:  E(RB3LYP) =  -900.833259053     A.U. after   15 cycles
 Normal termination of Gaussian 16 at Sat Dec 12 10:51:06 2020.

 ----------------------------------------------------------------------
 # B3LYP/6-311++G(d,p) empiricaldispersion=gd3bj scf=xqc pop=npa geom=c
 heck
 ----------------------------------------------------------------------

 ------------------------------------
 CID_88075080_JID_9844_Energie_kation
 ------------------------------------
 Structure from the checkpoint file:  "JID_9844.chk"
 Charge =  1 Multiplicity = 2

 SCF Done:  E(UB3LYP) =  -900.522777239     A.U. after   33 cycles
 SCF Done:  E(UB3LYP) =  -900.522777254     a.u. after    2 cycles
 Normal termination of Gaussian 16 at Sat Dec 12 11:33:26 2020.
 Gaussian 16:  ES64L-G16RevA.03 25-Dec-2016

 ----------------------------------------------------------------------
 # B3LYP/6-311++G(d,p) empiricaldispersion=gd3bj scf=xqc pop=npa geom=c
 heck
 ----------------------------------------------------------------------

 -----------------------------------
 CID_88075080_JID_9844_Energie_anion
 -----------------------------------
 Structure from the checkpoint file:  "JID_9844.chk"
 Charge = -1 Multiplicity = 2

                         Standard orientation:
 ---------------------------------------------------------------------
 Center     Atomic      Atomic             Coordinates (Angstroms)
 Number     Number       Type             X           Y           Z
 ---------------------------------------------------------------------
      1          6           0        2.628796    0.905377    1.314582
      2          6           0        2.775909    1.751093    0.040640
      3          6           0        1.936299    1.199717   -1.128119
      4          6           0        2.226754   -0.299986   -1.324964
      5          7           0        2.057503   -1.044707   -0.071887
      6          6           0        2.909103   -0.573017    1.024493
      7          6           0        0.935395   -1.742522    0.264556
      8          8           0        0.670384   -2.189754    1.359732
      9          8           0        0.124148   -1.895271   -0.858776
     10          8           0       -1.049383   -2.666307   -0.500284
     11          6           0       -2.171547   -1.895826   -0.918761
     12          6           0       -2.347624   -0.586001   -0.185509
     13          6           0       -2.006378   -0.468099    1.167331
     14          6           0       -2.153464    0.754442    1.821235
     15          6           0       -2.663717    1.863955    1.140648
     16          6           0       -3.022459    1.745108   -0.204155
     17          6           0       -2.853888    0.525449   -0.863716
     18          6           0        0.437634    1.420855   -0.931497
     19          8           0        0.184849    2.807750   -0.746185
     20          1           0        3.316001    1.264416    2.090382
     21          1           0        1.613498    0.997033    1.719791
     22          1           0        2.484966    2.787582    0.231553
     23          1           0        3.833309    1.758645   -0.260293
     24          1           0        2.231780    1.723254   -2.047265
     25          1           0        1.588549   -0.737310   -2.092678
     26          1           0        3.268674   -0.433764   -1.642550
     27          1           0        3.954002   -0.708092    0.714114
     28          1           0        2.720668   -1.204535    1.891855
     29          1           0       -2.134613   -1.731871   -2.003482
     30          1           0       -2.995758   -2.589821   -0.707535
     31          1           0       -1.579609   -1.320994    1.683543
     32          1           0       -1.869272    0.841866    2.865968
     33          1           0       -2.786892    2.811900    1.657311
     34          1           0       -3.426912    2.598985   -0.741173
     35          1           0       -3.108931    0.442751   -1.917639
     36          1           0       -0.099799    1.035150   -1.811903
     37          1           0        0.079980    0.850522   -0.067774
     38          1           0       -0.717016    2.872610   -0.395492
 ---------------------------------------------------------------------

 SCF Done:  E(UB3LYP) =  -900.822330519     A.U. after   33 cycles
 SCF Done:  E(UB3LYP) =  -900.822330519     a.u. after    1 cycles

 The electronic state is 2-A.
 Alpha  occ. eigenvalues --  -19.11156 -19.10040 -19.02091 -19.00343 -14.25338
 Alpha  occ. eigenvalues --  -10.22574 -10.13768 -10.11600 -10.11125 -10.11069
 Alpha  occ. eigenvalues --  -10.08463 -10.08255 -10.08243 -10.08165 -10.08039
 Alpha  occ. eigenvalues --  -10.07938 -10.07638 -10.07306 -10.07025  -1.06347
 Alpha  occ. eigenvalues --   -0.95816  -0.92242  -0.87342  -0.83907  -0.76463
 Alpha  occ. eigenvalues --   -0.71458  -0.68189  -0.67272  -0.65364  -0.60565
 Alpha  occ. eigenvalues --   -0.58960  -0.57618  -0.53355  -0.51591  -0.50135
 Alpha  occ. eigenvalues --   -0.48480  -0.46587  -0.44064  -0.42789  -0.42395
 Alpha  occ. eigenvalues --   -0.40674  -0.39321  -0.37786  -0.37385  -0.37225
 Alpha  occ. eigenvalues --   -0.36024  -0.35627  -0.35359  -0.34657  -0.33098
 Alpha  occ. eigenvalues --   -0.32945  -0.32433  -0.31496  -0.30217  -0.30018
 Alpha  occ. eigenvalues --   -0.29122  -0.27902  -0.27083  -0.25699  -0.25570
 Alpha  occ. eigenvalues --   -0.25522  -0.24710  -0.23623  -0.22897  -0.21999
 Alpha  occ. eigenvalues --   -0.19161  -0.18944  -0.17783  -0.16434  -0.16018
 Alpha  occ. eigenvalues --   -0.15236   0.04157
 Alpha virt. eigenvalues --    0.05703   0.06403   0.06770   0.07324   0.07637
 Alpha virt. eigenvalues --    0.08172   0.08546   0.08707   0.09264   0.09685
 Alpha virt. eigenvalues --    0.10018   0.10923   0.11405   0.11489   0.12023

  Beta  occ. eigenvalues --  -19.11128 -19.10005 -19.02082 -19.00332 -14.25341
  Beta  occ. eigenvalues --  -10.22571 -10.13750 -10.11587 -10.11112 -10.11062
  Beta  occ. eigenvalues --  -10.08380 -10.08269 -10.08249 -10.08159 -10.07980
  Beta  occ. eigenvalues --  -10.07857 -10.07629 -10.07252 -10.07011  -1.06274
  Beta  occ. eigenvalues --   -0.95788  -0.92229  -0.87310  -0.83869  -0.76344
  Beta  occ. eigenvalues --   -0.71436  -0.68146  -0.67130  -0.65263  -0.60516
  Beta  occ. eigenvalues --   -0.58925  -0.57539  -0.53313  -0.51531  -0.50034
  Beta  occ. eigenvalues --   -0.48411  -0.46555  -0.44025  -0.42724  -0.42366
  Beta  occ. eigenvalues --   -0.40608  -0.39249  -0.37761  -0.37333  -0.37163
  Beta  occ. eigenvalues --   -0.35988  -0.35579  -0.35293  -0.34626  -0.33045
  Beta  occ. eigenvalues --   -0.32901  -0.32384  -0.31465  -0.30180  -0.29974
  Beta  occ. eigenvalues --   -0.29059  -0.27869  -0.26866  -0.25661  -0.25544
  Beta  occ. eigenvalues --   -0.25464  -0.24650  -0.23587  -0.22868  -0.21969
  Beta  occ. eigenvalues --   -0.19146  -0.18877  -0.17752  -0.16258  -0.15598
  Beta  occ. eigenvalues --   -0.15160
  Beta virt. eigenvalues --    0.06268   0.06788   0.07019   0.07298   0.07391
  Beta virt. eigenvalues --    0.08134   0.08669   0.08879   0.09014   0.09648
  Beta virt. eigenvalues --    0.09944   0.10357   0.11216   0.11447   0.11772

 Mulliken charges and spin densities:
               1          2
     1  C   -0.422754   0.353233
     2  C    0.128518  -0.790165
     3  C    0.120204   0.815469
     4  C    0.065144  -0.735329
     5  N   -0.078096   0.065014
     6  C    0.207482  -0.577866
     7  C    0.022684  -0.151657
     8  O   -0.245068   0.011156
     9  O   -0.068972   0.061504
    10  O    0.057099  -0.003762
    11  C    1.784081  -2.492517
    12  C   -0.910641   1.330291
    13  C   -0.399130   0.418415
    14  C   -0.520221   0.347478
    15  C    0.315170  -0.756792
    16  C    0.538023  -0.839328
    17  C   -0.462352   0.257854
    18  C   -0.209756  -0.884042
    19  O   -0.230627   0.010115
    20  H   -0.262071   0.456841
    21  H    0.154321  -0.028513
    22  H    0.053219   0.121532
    23  H   -0.182784   0.333179
    24  H   -0.134885   0.367777
    25  H    0.022303   0.183935
    26  H   -0.289654   0.476973
    27  H   -0.160547   0.324278
    28  H    0.194741   0.006103
    29  H    0.011843   0.194030
    30  H   -0.116604   0.316449
    31  H    0.186925   0.052882
    32  H   -0.044926   0.217305
    33  H   -0.107762   0.255404
    34  H   -0.509570   0.696602
    35  H   -0.485963   0.647105
    36  H    0.230909  -0.040753
    37  H    0.442578  -0.000252
    38  H    0.307136  -0.019951
 Sum of Mulliken charges =  -1.00000   1.00000

 Dipole moment (field-independent basis, Debye):
    X=              0.2009    Y=             -1.2969    Z=              1.2437  Tot=              1.8080
 Quadrupole moment (field-independent basis, Debye-Ang):
   XX=           -184.8390   YY=           -166.1469   ZZ=           -148.5513
   XY=             -0.0453   XZ=             -3.2150   YZ=              5.4495

 Summary of Natural Population Analysis:

                                       Natural Population
                Natural  -----------------------------------------------
    Atom  No    Charge         Core      Valence    Rydberg      Total
 -----------------------------------------------------------------------
      C    1   -0.19896      0.99962     2.19152    0.00781     3.19896
      C    2   -0.19267      0.99961     2.18371    0.00935     3.19267
      C    3   -0.12345      0.99958     2.11192    0.01195     3.12345
      C    4   -0.08410      0.99958     2.07272    0.01180     3.08410
      N    5   -0.26601      0.99964     2.75551    0.01087     3.76601
      C    6   -0.08385      0.99961     2.07356    0.01068     3.08385
      C    7    0.46168      0.99965     1.51395    0.02472     2.53832
      O    8   -0.31974      0.99986     3.31523    0.00465     4.31974
      O    9   -0.16056      0.99988     3.15316    0.00752     4.16056
      O   10   -0.13560      0.99990     3.12781    0.00789     4.13560
      C   11   -0.01680      0.99954     2.00339    0.01387     3.01680
      C   12   -0.02702      0.99949     2.01668    0.01085     3.02702
      C   13   -0.09400      0.99951     2.08440    0.01009     3.09400
      C   14   -0.10336      0.99956     2.09436    0.00945     3.10336
      C   15   -0.10060      0.99956     2.09003    0.01101     3.10060
      C   16   -0.10634      0.99956     2.09514    0.01164     3.10634
      C   17   -0.10152      0.99951     2.09095    0.01107     3.10152
      C   18   -0.01458      0.99955     2.00306    0.01197     3.01458
      O   19   -0.37405      0.99989     3.36885    0.00531     4.37405
      H   20    0.10066      0.00000     0.39839    0.00095     0.39934
      H   21    0.10000      0.00000     0.39849    0.00150     0.40000
      H   22    0.11103      0.00000     0.38773    0.00124     0.38897
      H   23    0.09577      0.00000     0.40274    0.00149     0.40423
      H   24    0.10327      0.00000     0.39556    0.00117     0.39673
      H   25    0.11166      0.00000     0.38682    0.00152     0.38834
      H   26    0.09805      0.00000     0.40075    0.00120     0.40195
      H   27    0.09256      0.00000     0.40623    0.00121     0.40744
      H   28    0.11359      0.00000     0.38542    0.00099     0.38641
      H   29    0.08952      0.00000     0.40900    0.00148     0.41048
      H   30    0.10337      0.00000     0.39507    0.00156     0.39663
      H   31    0.11676      0.00000     0.38149    0.00175     0.38324
      H   32    0.10049      0.00000     0.39872    0.00079     0.39951
      H   33    0.10075      0.00000     0.39840    0.00086     0.39925
      H   34    0.10314      0.00000     0.39548    0.00138     0.39686
      H   35    0.10192      0.00000     0.39664    0.00144     0.39808
      H   36    0.07873      0.00000     0.41946    0.00181     0.42127
      H   37    0.08412      0.00000     0.41269    0.00319     0.41588
      H   38    0.23614      0.00000     0.26074    0.00312     0.26386
 =======================================================================
   * Total *    0.00000     18.99309    51.77576    0.23115    71.00000

 Normal termination of Gaussian 16 at Sat Dec 12 11:56:39 2020.
