 Gaussian 16, Revision A.03,

 -----------------------------------------------------------
 # opt freq B3LYP/6-31G(d) empiricaldispersion=gd3bj scf=xqc
 -----------------------------------------------------------

 ------------------------------
 CID_80465520_JID_2348_neutraal
 ------------------------------
 Symbolic Z-matrix:
 Charge =  0 Multiplicity = 1

 SCF Done:  E(RB3LYP) =  -486.563719097     A.U. after   13 cycles
 SCF Done:  E(RB3LYP) =  -486.566727643     A.U. after   11 cycles
 SCF Done:  E(RB3LYP) =  -486.566868009     A.U. after   10 cycles
 SCF Done:  E(RB3LYP) =  -486.566932314     A.U. after   10 cycles
 SCF Done:  E(RB3LYP) =  -486.567210679     A.U. after   10 cycles
 SCF Done:  E(RB3LYP) =  -486.567229144     A.U. after    9 cycles
 SCF Done:  E(RB3LYP) =  -486.567243393     A.U. after    9 cycles
 SCF Done:  E(RB3LYP) =  -486.567266332     A.U. after   10 cycles
 SCF Done:  E(RB3LYP) =  -486.567285531     A.U. after    9 cycles
 SCF Done:  E(RB3LYP) =  -486.567400818     A.U. after   11 cycles
 SCF Done:  E(RB3LYP) =  -486.567758420     A.U. after    9 cycles
 SCF Done:  E(RB3LYP) =  -486.567757759     A.U. after    8 cycles
 SCF Done:  E(RB3LYP) =  -486.567758967     A.U. after    9 cycles
 SCF Done:  E(RB3LYP) =  -486.567758956     A.U. after    7 cycles
 SCF Done:  E(RB3LYP) =  -486.567758992     A.U. after    7 cycles
 Optimization completed.
    -- Stationary point found.
 Normal termination of Gaussian 16 at Wed Dec  9 17:20:54 2020.

 --------------------------------------------------------------------
 #N Geom=AllCheck Guess=TCheck SCRF=Check GenChk RB3LYP/6-31G(d) Freq
 --------------------------------------------------------------------

 Structure from the checkpoint file:  "JID_2348.chk"
 ------------------------------
 CID_80465520_JID_2348_neutraal
 ------------------------------
 Charge =  0 Multiplicity = 1

 SCF Done:  E(RB3LYP) =  -486.567758993     A.U. after    1 cycles

  Exact polarizability: 132.981  -1.681 116.178   4.836  -6.393 106.600
 Approx polarizability: 175.826  -5.592 157.363  13.443 -12.288 165.388

                      1                      2                      3
                      A                      A                      A
 Frequencies --     28.8202                61.2724                82.3282
 Red. masses --      2.9590                 2.7771                 2.9832
 Frc consts  --      0.0014                 0.0061                 0.0119
 IR Inten    --      0.1388                 0.0379                 0.0503

                      4                      5                      6
                      A                      A                      A
 Frequencies --    101.4387               113.5341               137.9771
 Red. masses --      2.1593                 2.3177                 3.0169
 Frc consts  --      0.0131                 0.0176                 0.0338
 IR Inten    --      0.3994                 0.5668                 0.1381

                      7                      8                      9
                      A                      A                      A
 Frequencies --    193.7189               207.2710               217.7943
 Red. masses --      1.7565                 1.2707                 1.8117
 Frc consts  --      0.0388                 0.0322                 0.0506
 IR Inten    --      0.2765                 0.1704                 0.0947

                     10                     11                     12
                      A                      A                      A
 Frequencies --    251.4215               267.5166               307.0298
 Red. masses --      1.5696                 1.2741                 2.7802
 Frc consts  --      0.0585                 0.0537                 0.1544
 IR Inten    --      0.0609                 0.7191                 2.3756

                     13                     14                     15
                      A                      A                      A
 Frequencies --    318.2707               331.9577               380.4636
 Red. masses --      2.6063                 2.2815                 2.4289
 Frc consts  --      0.1556                 0.1481                 0.2072
 IR Inten    --      0.4702                 0.3071                 3.9316

                     16                     17                     18
                      A                      A                      A
 Frequencies --    412.8749               434.0706               439.6719
 Red. masses --      2.3053                 2.1095                 2.3770
 Frc consts  --      0.2315                 0.2342                 0.2707
 IR Inten    --      1.3310                 1.9242                 2.1828

                     19                     20                     21
                      A                      A                      A
 Frequencies --    464.2986               510.7405               642.8529
 Red. masses --      2.4838                 2.8578                 1.8828
 Frc consts  --      0.3155                 0.4392                 0.4584
 IR Inten    --      0.7136                 1.3643                 0.5673

                     22                     23                     24
                      A                      A                      A
 Frequencies --    707.2748               730.6159               795.5188
 Red. masses --      2.7267                 1.4469                 1.1721
 Frc consts  --      0.8037                 0.4551                 0.4370
 IR Inten    --      2.4267                 9.1431                26.6439

                     25                     26                     27
                      A                      A                      A
 Frequencies --    804.1382               827.0476               832.7273
 Red. masses --      1.4816                 1.2772                 1.8103
 Frc consts  --      0.5645                 0.5147                 0.7396
 IR Inten    --     41.1723                 0.2688                 5.5141

                     28                     29                     30
                      A                      A                      A
 Frequencies --    876.2871               891.7947               917.0857
 Red. masses --      2.7564                 2.0641                 1.3552
 Frc consts  --      1.2471                 0.9672                 0.6715
 IR Inten    --      3.7798                 2.1145                 0.2480

                     31                     32                     33
                      A                      A                      A
 Frequencies --    921.9996               953.9408               961.2040
 Red. masses --      1.3505                 1.6885                 1.6892
 Frc consts  --      0.6764                 0.9053                 0.9195
 IR Inten    --     43.7682                 5.3402                 2.8451

                     34                     35                     36
                      A                      A                      A
 Frequencies --    967.6647              1009.5408              1018.0122
 Red. masses --      1.7031                 1.5315                 1.7901
 Frc consts  --      0.9396                 0.9196                 1.0930
 IR Inten    --     11.4022                 3.5412                 7.6403

                     37                     38                     39
                      A                      A                      A
 Frequencies --   1041.6350              1060.3644              1074.3745
 Red. masses --      1.6798                 1.5884                 1.5811
 Frc consts  --      1.0739                 1.0522                 1.0753
 IR Inten    --      0.3511                15.1825                 2.2162

                     40                     41                     42
                      A                      A                      A
 Frequencies --   1081.3636              1086.1112              1089.7912
 Red. masses --      2.0390                 1.5439                 1.5228
 Frc consts  --      1.4048                 1.0731                 1.0656
 IR Inten    --      1.0333                 1.0970                 1.9771

                     43                     44                     45
                      A                      A                      A
 Frequencies --   1133.4063              1148.5760              1162.6120
 Red. masses --      1.6505                 2.4647                 2.1493
 Frc consts  --      1.2492                 1.9157                 1.7116
 IR Inten    --      4.3932                31.1184                24.0881

                     46                     47                     48
                      A                      A                      A
 Frequencies --   1190.7433              1204.3564              1241.6986
 Red. masses --      1.7776                 1.3056                 1.5007
 Frc consts  --      1.4850                 1.1158                 1.3632
 IR Inten    --     13.1926                 0.0918                25.5886

                     49                     50                     51
                      A                      A                      A
 Frequencies --   1290.3719              1298.6152              1305.1760
 Red. masses --      1.3220                 1.6698                 1.7946
 Frc consts  --      1.2970                 1.6591                 1.8012
 IR Inten    --      2.4689                 6.8521                 6.9247

                     52                     53                     54
                      A                      A                      A
 Frequencies --   1327.4624              1359.6748              1374.9074
 Red. masses --      1.4920                 2.3801                 1.4014
 Frc consts  --      1.5490                 2.5925                 1.5609
 IR Inten    --      8.4525                 4.6111                15.6364

                     55                     56                     57
                      A                      A                      A
 Frequencies --   1404.6056              1420.8520              1439.2648
 Red. masses --      1.5147                 1.3048                 1.2457
 Frc consts  --      1.7607                 1.5520                 1.5204
 IR Inten    --      1.4647                 0.6509                 2.0194

                     58                     59                     60
                      A                      A                      A
 Frequencies --   1444.3947              1448.3090              1473.4850
 Red. masses --      1.3615                 1.2909                 1.1944
 Frc consts  --      1.6735                 1.5954                 1.5279
 IR Inten    --     11.8670                 8.6574                 0.8235

                     61                     62                     63
                      A                      A                      A
 Frequencies --   1478.4868              1506.8471              1509.4566
 Red. masses --      1.1098                 1.1154                 1.0820
 Frc consts  --      1.4293                 1.4921                 1.4526
 IR Inten    --      6.5131                22.4151                 9.0881

                     64                     65                     66
                      A                      A                      A
 Frequencies --   1517.2961              1521.5630              1525.1981
 Red. masses --      1.0687                 1.0541                 1.1345
 Frc consts  --      1.4495                 1.4378                 1.5549
 IR Inten    --      7.9976                 2.8651                 6.1706

                     67                     68                     69
                      A                      A                      A
 Frequencies --   1528.6087              1531.6044              1534.2331
 Red. masses --      1.0937                 1.0804                 1.1917
 Frc consts  --      1.5057                 1.4932                 1.6528
 IR Inten    --     12.5200                 6.9308                 2.7625

                     70                     71                     72
                      A                      A                      A
 Frequencies --   1544.4979              1555.8368              1737.3130
 Red. masses --      1.0992                 1.0916                 4.8288
 Frc consts  --      1.5449                 1.5569                 8.5871
 IR Inten    --      5.0733                 3.2571                 8.9013

                     73                     74                     75
                      A                      A                      A
 Frequencies --   2944.9783              3013.7778              3031.9177
 Red. masses --      1.0735                 1.0831                 1.0386
 Frc consts  --      5.4854                 5.7961                 5.6251
 IR Inten    --     69.9835                25.0077                21.9010

                     76                     77                     78
                      A                      A                      A
 Frequencies --   3036.1274              3043.8517              3057.6751
 Red. masses --      1.0382                 1.0422                 1.0829
 Frc consts  --      5.6387                 5.6891                 5.9652
 IR Inten    --     34.7923                16.4471                34.4414

                     79                     80                     81
                      A                      A                      A
 Frequencies --   3060.4494              3077.8674              3092.9737
 Red. masses --      1.0650                 1.0986                 1.1002
 Frc consts  --      5.8771                 6.1317                 6.2012
 IR Inten    --     46.5327                26.9375                31.6770

                     82                     83                     84
                      A                      A                      A
 Frequencies --   3102.4197              3109.5252              3113.3600
 Red. masses --      1.0977                 1.0979                 1.1001
 Frc consts  --      6.2248                 6.2543                 6.2827
 IR Inten    --     33.1223                49.8536                25.8204

                     85                     86                     87
                      A                      A                      A
 Frequencies --   3124.7490              3133.2862              3146.8258
 Red. masses --      1.1004                 1.1033                 1.0533
 Frc consts  --      6.3305                 6.3818                 6.1454
 IR Inten    --     25.7607                29.0763                24.4713

                     88                     89                     90
                      A                      A                      A
 Frequencies --   3150.4334              3164.0662              3228.6578
 Red. masses --      1.0598                 1.0616                 1.1151
 Frc consts  --      6.1974                 6.2616                 6.8485
 IR Inten    --     17.6167                11.1564                 6.3084

                     91                     92                     93
                      A                      A                      A
 Frequencies --   3243.8858              3245.6390              3491.1165
 Red. masses --      1.1145                 1.1139                 1.0728
 Frc consts  --      6.9099                 6.9132                 7.7038
 IR Inten    --     12.4118                20.2568                 0.3990

 - Thermochemistry -
 -------------------
 Temperature   298.150 Kelvin.  Pressure   1.00000 Atm.
 Atom     1 has atomic number  6 and mass  12.00000

 Molecular mass:   167.16740 amu.
 Principal axes and moments of inertia in atomic units:
                           1         2         3
     Eigenvalues --  1834.607022300.182103362.23206
           X            0.99977  -0.02021  -0.00695
           Y            0.02018   0.99979  -0.00413
           Z            0.00703   0.00399   0.99997
 This molecule is an asymmetric top.
 Rotational symmetry number  1.
 Warning -- assumption of classical behavior for rotation
           may cause significant error
 Rotational temperatures (Kelvin)      0.04721     0.03766     0.02576
 Rotational constants (GHZ):           0.98372     0.78461     0.53677
 Zero-point vibrational energy     797471.7 (Joules/Mol)
                                  190.60030 (Kcal/Mol)
 Warning -- explicit consideration of  20 degrees of freedom as
           vibrations may cause significant error
 Vibrational temperatures:     41.47    88.16   118.45   145.95   163.35
          (Kelvin)            198.52   278.72   298.22   313.36   361.74
                              384.90   441.75   457.92   477.61   547.40
                              594.03   624.53   632.59   668.02   734.84
                              924.92  1017.61  1051.19  1144.57  1156.98
                             1189.94  1198.11  1260.78  1283.09  1319.48
                             1326.55  1372.51  1382.96  1392.25  1452.50
                             1464.69  1498.68  1525.63  1545.79  1555.84
                             1562.67  1567.97  1630.72  1652.54  1672.74
                             1713.21  1732.80  1786.53  1856.56  1868.42
                             1877.86  1909.92  1956.27  1978.19  2020.91
                             2044.29  2070.78  2078.16  2083.79  2120.02
                             2127.21  2168.02  2171.77  2183.05  2189.19
                             2194.42  2199.33  2203.64  2207.42  2222.19
                             2238.50  2499.61  4237.17  4336.15  4362.25
                             4368.31  4379.42  4399.31  4403.30  4428.36
                             4450.10  4463.69  4473.91  4479.43  4495.82
                             4508.10  4527.58  4532.77  4552.39  4645.32
                             4667.23  4669.75  5022.94

 Zero-point correction=                           0.303741 (Hartree/Particle)
 Thermal correction to Energy=                    0.318062
 Thermal correction to Enthalpy=                  0.319006
 Thermal correction to Gibbs Free Energy=         0.262805
 Sum of electronic and zero-point Energies=           -486.264018
 Sum of electronic and thermal Energies=              -486.249697
 Sum of electronic and thermal Enthalpies=            -486.248753
 Sum of electronic and thermal Free Energies=         -486.304954

                     E (Thermal)             CV                S
                      KCal/Mol        Cal/Mol-Kelvin    Cal/Mol-Kelvin
 Total                  199.587             54.206            118.284
 Electronic               0.000              0.000              0.000
 Translational            0.889              2.981             41.250
 Rotational               0.889              2.981             31.029
 Vibrational            197.809             48.244             46.005
 Vibration     1          0.593              1.984              5.909
 Vibration     2          0.597              1.973              4.416
 Vibration     3          0.600              1.961              3.835
 Vibration     4          0.604              1.948              3.426
 Vibration     5          0.607              1.938              3.208
 Vibration     6          0.614              1.915              2.832
 Vibration     7          0.635              1.849              2.192
 Vibration     8          0.641              1.829              2.068
 Vibration     9          0.646              1.814              1.977
 Vibration    10          0.663              1.760              1.721
 Vibration    11          0.673              1.733              1.612
 Vibration    12          0.697              1.660              1.378
 Vibration    13          0.705              1.639              1.319
 Vibration    14          0.714              1.612              1.251
 Vibration    15          0.750              1.512              1.037
 Vibration    16          0.777              1.442              0.917
 Vibration    17          0.795              1.396              0.845
 Vibration    18          0.800              1.384              0.828
 Vibration    19          0.822              1.329              0.754
 Vibration    20          0.866              1.226              0.632

 Optimization completed.
    -- Stationary point found.
 Normal termination of Gaussian 16 at Wed Dec  9 17:30:12 2020.

 ----------------------------------------------------------------------
 # B3LYP/6-311++G(d,p) empiricaldispersion=gd3bj scf=xqc pop=npa geom=c
 heck
 ----------------------------------------------------------------------

 --------------------------------------
 CID_80465520_JID_2348_Energie_neutraal
 --------------------------------------
 Structure from the checkpoint file:  "JID_2348.chk"
 Charge =  0 Multiplicity = 1

 SCF Done:  E(RB3LYP) =  -486.705676443     A.U. after   13 cycles
 Normal termination of Gaussian 16 at Wed Dec  9 17:34:36 2020.

 ----------------------------------------------------------------------
 # B3LYP/6-311++G(d,p) empiricaldispersion=gd3bj scf=xqc pop=npa geom=c
 heck
 ----------------------------------------------------------------------

 ------------------------------------
 CID_80465520_JID_2348_Energie_kation
 ------------------------------------
 Structure from the checkpoint file:  "JID_2348.chk"
 Charge =  1 Multiplicity = 2

 SCF Done:  E(UB3LYP) =  -486.412714318     A.U. after   20 cycles
 Normal termination of Gaussian 16 at Wed Dec  9 17:44:34 2020.
 Gaussian 16:  ES64L-G16RevA.03 25-Dec-2016

 ----------------------------------------------------------------------
 # B3LYP/6-311++G(d,p) empiricaldispersion=gd3bj scf=xqc pop=npa geom=c
 heck
 ----------------------------------------------------------------------

 -----------------------------------
 CID_80465520_JID_2348_Energie_anion
 -----------------------------------
 Structure from the checkpoint file:  "JID_2348.chk"
 Charge = -1 Multiplicity = 2

                         Standard orientation:
 ---------------------------------------------------------------------
 Center     Atomic      Atomic             Coordinates (Angstroms)
 Number     Number       Type             X           Y           Z
 ---------------------------------------------------------------------
      1          6           0        3.124527   -1.786011   -0.402526
      2          6           0        2.095988   -1.244340    0.585490
      3          7           0        0.837197   -0.961009   -0.096272
      4          6           0       -0.219951   -0.398470    0.745229
      5          6           0        0.034871    1.088639    1.138847
      6          6           0        0.317507    2.014384   -0.031272
      7          6           0       -0.649460    2.475022   -0.830872
      8          6           0        1.761576    2.394509   -0.249163
      9          6           0       -1.603764   -0.648940    0.128278
     10          6           0       -1.772613   -0.694493   -1.372475
     11          6           0       -1.820941   -1.971599   -0.571327
     12          6           0       -2.772889   -0.119179    0.940475
     13          1           0        2.735415   -2.674349   -0.910080
     14          1           0        4.057424   -2.049460    0.107139
     15          1           0        3.364617   -1.037827   -1.169142
     16          1           0        1.892331   -1.996243    1.358522
     17          1           0        2.521836   -0.367948    1.108652
     18          1           0        1.008576   -0.330877   -0.877897
     19          1           0       -0.201143   -0.971355    1.684084
     20          1           0       -0.820332    1.457857    1.713352
     21          1           0        0.890029    1.111013    1.824660
     22          1           0       -0.428312    3.128325   -1.671421
     23          1           0       -1.692600    2.216312   -0.679912
     24          1           0        2.161335    2.921265    0.628145
     25          1           0        2.395345    1.508736   -0.388534
     26          1           0        1.885189    3.042883   -1.122051
     27          1           0       -2.696823   -0.299534   -1.786897
     28          1           0       -0.904191   -0.532420   -2.001909
     29          1           0       -0.963544   -2.630461   -0.653815
     30          1           0       -2.780309   -2.464271   -0.435037
     31          1           0       -2.717290   -0.461266    1.982548
     32          1           0       -2.815300    0.976032    0.952698
     33          1           0       -3.721748   -0.476481    0.526687
 ---------------------------------------------------------------------

 SCF Done:  E(UB3LYP) =  -486.689267966     A.U. after   33 cycles
 SCF Done:  E(UB3LYP) =  -486.689267966     a.u. after    1 cycles

 The electronic state is 2-A.
 Alpha  occ. eigenvalues --  -14.19196 -10.10013 -10.08909 -10.08187 -10.07791
 Alpha  occ. eigenvalues --  -10.06652 -10.06332 -10.06250 -10.06149 -10.06061
 Alpha  occ. eigenvalues --  -10.05938 -10.05179  -0.81334  -0.75703  -0.70686
 Alpha  occ. eigenvalues --   -0.65320  -0.62253  -0.59632  -0.58168  -0.53589
 Alpha  occ. eigenvalues --   -0.50874  -0.49611  -0.44357  -0.41927  -0.39387
 Alpha  occ. eigenvalues --   -0.37882  -0.37496  -0.35760  -0.34020  -0.33658
 Alpha  occ. eigenvalues --   -0.32428  -0.31467  -0.30036  -0.29361  -0.29083
 Alpha  occ. eigenvalues --   -0.28408  -0.27025  -0.26892  -0.26079  -0.25346
 Alpha  occ. eigenvalues --   -0.24783  -0.22915  -0.22700  -0.18998  -0.17119
 Alpha  occ. eigenvalues --   -0.14960  -0.12260   0.04596
 Alpha virt. eigenvalues --    0.06615   0.07234   0.07452   0.08992   0.09098
 Alpha virt. eigenvalues --    0.09267   0.09583   0.09813   0.11022   0.11420
 Alpha virt. eigenvalues --    0.11926   0.12047   0.12163   0.12423   0.12893

  Beta  occ. eigenvalues --  -14.19187 -10.10005 -10.08886 -10.08186 -10.07779
  Beta  occ. eigenvalues --  -10.06645 -10.06305 -10.06232 -10.06141 -10.06021
  Beta  occ. eigenvalues --  -10.05908 -10.05158  -0.81315  -0.75694  -0.70648
  Beta  occ. eigenvalues --   -0.65286  -0.62214  -0.59583  -0.58108  -0.53544
  Beta  occ. eigenvalues --   -0.50808  -0.49573  -0.44319  -0.41867  -0.39365
  Beta  occ. eigenvalues --   -0.37844  -0.37464  -0.35727  -0.33988  -0.33624
  Beta  occ. eigenvalues --   -0.32378  -0.31437  -0.29990  -0.29330  -0.29045
  Beta  occ. eigenvalues --   -0.28378  -0.26987  -0.26855  -0.26060  -0.25299
  Beta  occ. eigenvalues --   -0.24751  -0.22889  -0.22665  -0.18979  -0.17103
  Beta  occ. eigenvalues --   -0.14896  -0.12237
  Beta virt. eigenvalues --    0.06692   0.07358   0.07899   0.07972   0.09333
  Beta virt. eigenvalues --    0.09580   0.09746   0.09884   0.10242   0.11364
  Beta virt. eigenvalues --    0.11743   0.12222   0.12426   0.12495   0.12944

 Mulliken charges and spin densities:
               1          2
     1  C    1.006098  -1.548584
     2  C   -0.260146   0.144893
     3  N   -0.006997  -0.026583
     4  C    0.730386  -0.883151
     5  C   -0.046008  -0.166621
     6  C   -1.518695   2.186309
     7  C   -0.633065  -0.111134
     8  C    2.916585  -3.700384
     9  C   -1.584437   1.942864
    10  C   -0.387098  -0.049421
    11  C    0.336056  -0.884543
    12  C    0.649593  -1.201484
    13  H    0.055024   0.087819
    14  H   -0.378260   0.515576
    15  H   -0.306523   0.427653
    16  H   -0.455209   0.596694
    17  H    0.044768   0.073947
    18  H    0.373616  -0.214820
    19  H    0.062810   0.127668
    20  H   -0.187989   0.353287
    21  H   -0.457949   0.641561
    22  H   -0.334960   0.462596
    23  H    0.202529  -0.092193
    24  H   -0.447246   0.613884
    25  H    0.115507   0.046514
    26  H   -0.238670   0.379431
    27  H    0.015084   0.131788
    28  H    0.016148   0.132731
    29  H    0.116704   0.053055
    30  H    0.011360   0.122199
    31  H   -0.263144   0.429781
    32  H   -0.068769   0.201494
    33  H   -0.077102   0.207174
 Sum of Mulliken charges =  -1.00000   1.00000

 Dipole moment (field-independent basis, Debye):
    X=             -3.7369    Y=             -2.0752    Z=             -2.3772  Tot=              4.8910
 Quadrupole moment (field-independent basis, Debye-Ang):
   XX=           -141.4451   YY=           -131.0819   ZZ=           -116.2867
   XY=             -1.3534   XZ=              0.7570   YZ=              0.3558

 Summary of Natural Population Analysis:

                                       Natural Population
                Natural  -----------------------------------------------
    Atom  No    Charge         Core      Valence    Rydberg      Total
 -----------------------------------------------------------------------
      C    1   -0.28680      0.99967     2.28162    0.00551     3.28680
      C    2   -0.08515      0.99964     2.07522    0.01030     3.08515
      N    3   -0.34808      0.99973     2.83740    0.01095     3.84808
      C    4    0.00631      0.99954     1.98027    0.01388     2.99369
      C    5   -0.21526      0.99956     2.20443    0.01127     3.21526
      C    6   -0.00276      0.99953     1.99141    0.01182     3.00276
      C    7   -0.19817      0.99947     2.19060    0.00810     3.19817
      C    8   -0.29774      0.99961     2.29129    0.00685     3.29774
      C    9   -0.05015      0.99954     2.03691    0.01370     3.05015
      C   10   -0.19391      0.99958     2.18649    0.00783     3.19391
      C   11   -0.19569      0.99958     2.18833    0.00778     3.19569
      C   12   -0.28071      0.99962     2.27498    0.00610     3.28071
      H   13    0.09833      0.00000     0.40058    0.00109     0.40167
      H   14    0.10086      0.00000     0.39805    0.00110     0.39914
      H   15    0.09488      0.00000     0.40380    0.00132     0.40512
      H   16    0.09001      0.00000     0.40852    0.00147     0.40999
      H   17    0.07999      0.00000     0.41805    0.00196     0.42001
      H   18    0.17332      0.00000     0.32291    0.00377     0.32668
      H   19    0.09472      0.00000     0.40319    0.00210     0.40528
      H   20    0.10875      0.00000     0.38975    0.00150     0.39125
      H   21    0.10306      0.00000     0.39516    0.00178     0.39694
      H   22    0.09170      0.00000     0.40738    0.00092     0.40830
      H   23    0.09386      0.00000     0.40487    0.00127     0.40614
      H   24    0.10607      0.00000     0.39213    0.00180     0.39393
      H   25    0.10095      0.00000     0.39732    0.00173     0.39905
      H   26    0.10112      0.00000     0.39766    0.00122     0.39888
      H   27    0.09863      0.00000     0.40042    0.00095     0.40137
      H   28    0.10458      0.00000     0.39427    0.00116     0.39542
      H   29    0.11214      0.00000     0.38663    0.00123     0.38786
      H   30    0.09603      0.00000     0.40307    0.00090     0.40397
      H   31    0.10073      0.00000     0.39813    0.00114     0.39927
      H   32    0.09945      0.00000     0.39936    0.00119     0.40055
      H   33    0.09894      0.00000     0.40005    0.00102     0.40106
 =======================================================================
   * Total *   -0.00000     11.99505    34.86024    0.14470    47.00000

 Normal termination of Gaussian 16 at Wed Dec  9 17:58:31 2020.
