 Gaussian 16, Revision A.03,

 -----------------------------------------------------------
 # opt freq B3LYP/6-31G(d) empiricaldispersion=gd3bj scf=xqc
 -----------------------------------------------------------

 ------------------------------
 CID_126973525_JID_130_neutraal
 ------------------------------
 Symbolic Z-matrix:
 Charge =  0 Multiplicity = 1

 SCF Done:  E(RB3LYP) =  -860.924289075     A.U. after   13 cycles
 SCF Done:  E(RB3LYP) =  -860.927579286     A.U. after   11 cycles
 SCF Done:  E(RB3LYP) =  -860.928101325     A.U. after   11 cycles
 SCF Done:  E(RB3LYP) =  -860.927844419     A.U. after   10 cycles
 SCF Done:  E(RB3LYP) =  -860.928193256     A.U. after   11 cycles
 SCF Done:  E(RB3LYP) =  -860.928217192     A.U. after   10 cycles
 SCF Done:  E(RB3LYP) =  -860.928230154     A.U. after    9 cycles
 SCF Done:  E(RB3LYP) =  -860.928230472     A.U. after    8 cycles
 SCF Done:  E(RB3LYP) =  -860.928230619     A.U. after    7 cycles
 SCF Done:  E(RB3LYP) =  -860.928230656     A.U. after    7 cycles
 Optimization completed.
    -- Stationary point found.
 Normal termination of Gaussian 16 at Tue Dec  8 10:17:36 2020.

 --------------------------------------------------------------------
 #N Geom=AllCheck Guess=TCheck SCRF=Check GenChk RB3LYP/6-31G(d) Freq
 --------------------------------------------------------------------

 Structure from the checkpoint file:  "JID_130.chk"
 ------------------------------
 CID_126973525_JID_130_neutraal
 ------------------------------
 Charge =  0 Multiplicity = 1

 SCF Done:  E(RB3LYP) =  -860.928230656     A.U. after    1 cycles

  Exact polarizability: 106.124   1.174  85.391   7.102  -1.267  82.368
 Approx polarizability: 131.625   1.212 127.368  14.835  -1.901 124.170

                      1                      2                      3
                      A                      A                      A
 Frequencies --     22.8752                42.4053                56.1388
 Red. masses --      4.8562                 4.9080                 3.1646
 Frc consts  --      0.0015                 0.0052                 0.0059
 IR Inten    --      0.7647                 0.8813                 0.8412

                      4                      5                      6
                      A                      A                      A
 Frequencies --    110.9606               126.3155               137.6630
 Red. masses --      4.0654                 4.5573                 5.3209
 Frc consts  --      0.0295                 0.0428                 0.0594
 IR Inten    --      3.9766                 6.5264                 0.3431

                      7                      8                      9
                      A                      A                      A
 Frequencies --    200.7921               240.7206               250.0098
 Red. masses --      3.7717                 3.6569                 1.1757
 Frc consts  --      0.0896                 0.1248                 0.0433
 IR Inten    --      4.3178                 3.6612                95.9839

                     10                     11                     12
                      A                      A                      A
 Frequencies --    291.7068               313.6127               339.6572
 Red. masses --      2.5172                 2.1367                 2.0577
 Frc consts  --      0.1262                 0.1238                 0.1399
 IR Inten    --      4.7630                19.6791                32.9342

                     13                     14                     15
                      A                      A                      A
 Frequencies --    364.5385               425.4536               463.0181
 Red. masses --      1.2806                 2.3259                 2.1671
 Frc consts  --      0.1003                 0.2481                 0.2737
 IR Inten    --     56.1177                12.5587                 9.9872

                     16                     17                     18
                      A                      A                      A
 Frequencies --    488.2844               533.0208               627.9193
 Red. masses --      2.7648                 1.1256                 3.7746
 Frc consts  --      0.3884                 0.1884                 0.8769
 IR Inten    --      7.0677               168.9106                 5.1600

                     19                     20                     21
                      A                      A                      A
 Frequencies --    675.9817               701.3670               766.2526
 Red. masses --      3.8249                 4.0915                 2.0688
 Frc consts  --      1.0298                 1.1858                 0.7157
 IR Inten    --      7.5554                 6.5289                 7.5865

                     22                     23                     24
                      A                      A                      A
 Frequencies --    849.6295               912.9222               927.1356
 Red. masses --      2.0093                 2.1828                 2.2414
 Frc consts  --      0.8546                 1.0718                 1.1351
 IR Inten    --      5.4730                58.8338                22.8994

                     25                     26                     27
                      A                      A                      A
 Frequencies --    946.3354               968.4960              1022.2650
 Red. masses --      1.7904                 1.9103                 2.4609
 Frc consts  --      0.9447                 1.0557                 1.5152
 IR Inten    --      4.1705                 4.5542                10.0257

                     28                     29                     30
                      A                      A                      A
 Frequencies --   1046.2479              1070.8457              1094.4946
 Red. masses --      1.6699                 3.2703                 3.1859
 Frc consts  --      1.0770                 2.2095                 2.2486
 IR Inten    --     15.8209                34.0061                23.4722

                     31                     32                     33
                      A                      A                      A
 Frequencies --   1100.8346              1116.0972              1178.7938
 Red. masses --      1.9581                 2.3352                 1.1287
 Frc consts  --      1.3981                 1.7139                 0.9240
 IR Inten    --     94.5232                51.0319                19.1704

                     34                     35                     36
                      A                      A                      A
 Frequencies --   1202.2282              1209.9829              1260.3772
 Red. masses --      1.0993                 1.1475                 1.1179
 Frc consts  --      0.9361                 0.9899                 1.0463
 IR Inten    --     49.9499                 5.0580                13.9912

                     37                     38                     39
                      A                      A                      A
 Frequencies --   1269.4642              1289.3104              1315.6714
 Red. masses --      1.2972                 1.4516                 1.2435
 Frc consts  --      1.2316                 1.4217                 1.2683
 IR Inten    --      7.6514                 8.3607                17.6933

                     40                     41                     42
                      A                      A                      A
 Frequencies --   1334.8162              1351.5709              1367.0396
 Red. masses --      1.2324                 1.2846                 1.3065
 Frc consts  --      1.2937                 1.3826                 1.4385
 IR Inten    --     39.3391                10.9373                 7.0416

                     43                     44                     45
                      A                      A                      A
 Frequencies --   1397.4462              1416.1435              1429.4128
 Red. masses --      1.2957                 1.3567                 1.3031
 Frc consts  --      1.4909                 1.6030                 1.5688
 IR Inten    --      6.5999                30.1874                14.7174

                     46                     47                     48
                      A                      A                      A
 Frequencies --   1456.0562              1465.8375              1481.6057
 Red. masses --      1.2697                 1.3111                 1.1447
 Frc consts  --      1.5860                 1.6599                 1.4805
 IR Inten    --     69.2837                 7.1113                12.2198

                     49                     50                     51
                      A                      A                      A
 Frequencies --   1487.7224              1515.7425              1522.3075
 Red. masses --      1.1203                 1.0907                 1.0890
 Frc consts  --      1.4609                 1.4764                 1.4868
 IR Inten    --      3.5344                 1.1407                 4.7184

                     52                     53                     54
                      A                      A                      A
 Frequencies --   1543.6341              2979.5184              3013.0783
 Red. masses --      1.0864                 1.0660                 1.0685
 Frc consts  --      1.5253                 5.5757                 5.7151
 IR Inten    --      3.5979                91.3558                38.6744

                     55                     56                     57
                      A                      A                      A
 Frequencies --   3027.8306              3039.9751              3071.2385
 Red. masses --      1.0694                 1.0950                 1.0687
 Frc consts  --      5.7761                 5.9624                 5.9395
 IR Inten    --     40.5003                31.1932                13.0613

                     58                     59                     60
                      A                      A                      A
 Frequencies --   3075.8549              3086.1549              3100.7156
 Red. masses --      1.0786                 1.0882                 1.0637
 Frc consts  --      6.0121                 6.1066                 6.0256
 IR Inten    --     17.9389                36.1158                21.6409

                     61                     62                     63
                      A                      A                      A
 Frequencies --   3119.5761              3123.5505              3165.7956
 Red. masses --      1.1049                 1.0972                 1.1045
 Frc consts  --      6.3353                 6.3071                 6.5223
 IR Inten    --     13.0500                31.5256                 4.9369

                     64                     65                     66
                      A                      A                      A
 Frequencies --   3677.1439              3747.8323              3758.6945
 Red. masses --      1.0650                 1.0661                 1.0664
 Frc consts  --      8.4843                 8.8226                 8.8768
 IR Inten    --     40.0392                11.7990                18.4151

 - Thermochemistry -
 -------------------
 Temperature   298.150 Kelvin.  Pressure   1.00000 Atm.
 Atom     1 has atomic number  6 and mass  12.00000

 Molecular mass:   166.06637 amu.
 Principal axes and moments of inertia in atomic units:
                           1         2         3
     Eigenvalues --   955.905813455.805903867.84654
           X            0.99998   0.00674  -0.00022
           Y           -0.00674   0.99997   0.00384
           Z            0.00025  -0.00384   0.99999
 This molecule is an asymmetric top.
 Rotational symmetry number  1.
 Warning -- assumption of classical behavior for rotation
           may cause significant error
 Rotational temperatures (Kelvin)      0.09061     0.02506     0.02239
 Rotational constants (GHZ):           1.88799     0.52223     0.46660
 Zero-point vibrational energy     542602.9 (Joules/Mol)
                                  129.68520 (Kcal/Mol)
 Warning -- explicit consideration of  17 degrees of freedom as
           vibrations may cause significant error
 Vibrational temperatures:     32.91    61.01    80.77   159.65   181.74
          (Kelvin)            198.07   288.90   346.34   359.71   419.70
                              451.22   488.69   524.49   612.13   666.18
                              702.53   766.90   903.44   972.59  1009.11
                             1102.47  1222.43  1313.49  1333.94  1361.57
                             1393.45  1470.81  1505.32  1540.71  1574.73
                             1583.86  1605.81  1696.02  1729.74  1740.90
                             1813.40  1826.48  1855.03  1892.96  1920.50
                             1944.61  1966.87  2010.61  2037.51  2056.61
                             2094.94  2109.01  2131.70  2140.50  2180.82
                             2190.26  2220.95  4286.86  4335.15  4356.37
                             4373.85  4418.83  4425.47  4440.29  4461.24
                             4488.37  4494.09  4554.87  5290.59  5392.29
                             5407.92

 Zero-point correction=                           0.206667 (Hartree/Particle)
 Thermal correction to Energy=                    0.219269
 Thermal correction to Enthalpy=                  0.220213
 Thermal correction to Gibbs Free Energy=         0.166136
 Sum of electronic and zero-point Energies=           -860.721564
 Sum of electronic and thermal Energies=              -860.708961
 Sum of electronic and thermal Enthalpies=            -860.708017
 Sum of electronic and thermal Free Energies=         -860.762094

                     E (Thermal)             CV                S
                      KCal/Mol        Cal/Mol-Kelvin    Cal/Mol-Kelvin
 Total                  137.594             44.778            113.815
 Electronic               0.000              0.000              0.000
 Translational            0.889              2.981             41.230
 Rotational               0.889              2.981             30.925
 Vibrational            135.816             38.816             41.660
 Vibration     1          0.593              1.985              6.368
 Vibration     2          0.595              1.980              5.143
 Vibration     3          0.596              1.975              4.589
 Vibration     4          0.607              1.940              3.252
 Vibration     5          0.611              1.927              3.001
 Vibration     6          0.614              1.916              2.836
 Vibration     7          0.638              1.839              2.126
 Vibration     8          0.658              1.778              1.798
 Vibration     9          0.663              1.763              1.731
 Vibration    10          0.687              1.689              1.464
 Vibration    11          0.701              1.648              1.343
 Vibration    12          0.720              1.596              1.214
 Vibration    13          0.738              1.545              1.103
 Vibration    14          0.787              1.415              0.874
 Vibration    15          0.821              1.332              0.757
 Vibration    16          0.844              1.276              0.688
 Vibration    17          0.888              1.177              0.580

                           ! Non-Optimized Parameters !
 Normal termination of Gaussian 16 at Tue Dec  8 10:21:33 2020.

 ----------------------------------------------------------------------
 # B3LYP/6-311++G(d,p) empiricaldispersion=gd3bj scf=xqc pop=npa geom=c
 heck
 ----------------------------------------------------------------------

 --------------------------------------
 CID_126973525_JID_130_Energie_neutraal
 --------------------------------------
 Structure from the checkpoint file:  "JID_130.chk"
 Charge =  0 Multiplicity = 1

 SCF Done:  E(RB3LYP) =  -861.123953387     A.U. after   13 cycles
 Normal termination of Gaussian 16 at Tue Dec  8 10:23:08 2020.

 ----------------------------------------------------------------------
 # B3LYP/6-311++G(d,p) empiricaldispersion=gd3bj scf=xqc pop=npa geom=c
 heck
 ----------------------------------------------------------------------

 ------------------------------------
 CID_126973525_JID_130_Energie_kation
 ------------------------------------
 Structure from the checkpoint file:  "JID_130.chk"
 Charge =  1 Multiplicity = 2

 SCF Done:  E(UB3LYP) =  -860.819682861     A.U. after   19 cycles
 Normal termination of Gaussian 16 at Tue Dec  8 10:26:07 2020.
 Gaussian 16:  ES64L-G16RevA.03 25-Dec-2016

 ----------------------------------------------------------------------
 # B3LYP/6-311++G(d,p) empiricaldispersion=gd3bj scf=xqc pop=npa geom=c
 heck
 ----------------------------------------------------------------------

 -----------------------------------
 CID_126973525_JID_130_Energie_anion
 -----------------------------------
 Structure from the checkpoint file:  "JID_130.chk"
 Charge = -1 Multiplicity = 2

                         Standard orientation:
 ---------------------------------------------------------------------
 Center     Atomic      Atomic             Coordinates (Angstroms)
 Number     Number       Type             X           Y           Z
 ---------------------------------------------------------------------
      1          6           0       -0.685412    0.406475   -0.449928
      2          6           0        0.364637   -0.508037   -1.077987
      3         16           0        1.413719   -1.428002    0.121630
      4          6           0        2.277521   -0.094392    1.035879
      5          6           0        3.265889    0.736916    0.232978
      6          8           0        2.532989    1.626286   -0.606862
      7          6           0       -1.767627   -0.353949    0.326965
      8          6           0       -2.796144    0.581119    0.965976
      9          8           0       -3.607175    1.204790   -0.036865
     10          8           0       -2.445797   -1.277841   -0.519329
     11          1           0       -1.162266    0.966949   -1.268919
     12          1           0       -0.200637    1.150333    0.194125
     13          1           0       -0.137600   -1.296406   -1.646133
     14          1           0        1.015236    0.058093   -1.744375
     15          1           0        1.554268    0.569145    1.521421
     16          1           0        2.816716   -0.623420    1.828867
     17          1           0        3.901125    1.304653    0.934112
     18          1           0        3.915571    0.072495   -0.354422
     19          1           0        3.166690    2.096308   -1.168928
     20          1           0       -1.287399   -0.948441    1.112378
     21          1           0       -3.490293   -0.003205    1.575886
     22          1           0       -2.309974    1.328291    1.610053
     23          1           0       -3.067595    1.884557   -0.469246
     24          1           0       -3.126668   -0.745997   -0.969743
 ---------------------------------------------------------------------

 SCF Done:  E(UB3LYP) =  -861.114480087     A.U. after   26 cycles

 The electronic state is 2-A.
 Alpha  occ. eigenvalues --  -88.73002 -19.03495 -19.01993 -19.01255 -10.12252
 Alpha  occ. eigenvalues --  -10.11877 -10.11152 -10.09389 -10.08483 -10.06588
 Alpha  occ. eigenvalues --   -7.81614  -5.78012  -5.77632  -5.76994  -0.94312
 Alpha  occ. eigenvalues --   -0.91494  -0.91388  -0.70958  -0.67221  -0.63195
 Alpha  occ. eigenvalues --   -0.58287  -0.53266  -0.50105  -0.46095  -0.42099
 Alpha  occ. eigenvalues --   -0.41808  -0.39451  -0.37259  -0.37080  -0.34813
 Alpha  occ. eigenvalues --   -0.33867  -0.31082  -0.30886  -0.28940  -0.28460
 Alpha  occ. eigenvalues --   -0.27665  -0.24535  -0.24514  -0.23862  -0.23358
 Alpha  occ. eigenvalues --   -0.20288  -0.19513  -0.17287  -0.16898  -0.11951
 Alpha  occ. eigenvalues --    0.04398
 Alpha virt. eigenvalues --    0.06426   0.07516   0.08739   0.09099   0.10108
 Alpha virt. eigenvalues --    0.10307   0.10985   0.11903   0.12051   0.12489
 Alpha virt. eigenvalues --    0.13789   0.14006   0.14823   0.15450   0.15932

  Beta  occ. eigenvalues --  -88.73001 -19.03445 -19.01982 -19.01201 -10.12233
  Beta  occ. eigenvalues --  -10.11876 -10.11108 -10.09374 -10.08476 -10.06558
  Beta  occ. eigenvalues --   -7.81613  -5.78011  -5.77632  -5.76993  -0.94235
  Beta  occ. eigenvalues --   -0.91435  -0.91278  -0.70926  -0.67170  -0.63136
  Beta  occ. eigenvalues --   -0.58215  -0.53198  -0.50040  -0.46050  -0.42009
  Beta  occ. eigenvalues --   -0.41666  -0.39405  -0.37231  -0.37045  -0.34765
  Beta  occ. eigenvalues --   -0.33827  -0.31042  -0.30829  -0.28900  -0.28422
  Beta  occ. eigenvalues --   -0.27630  -0.24500  -0.24479  -0.23793  -0.23325
  Beta  occ. eigenvalues --   -0.20250  -0.19486  -0.17261  -0.16844  -0.11940
  Beta virt. eigenvalues --    0.07078   0.07769   0.08130   0.09301   0.09475
  Beta virt. eigenvalues --    0.10463   0.10711   0.11416   0.12009   0.12358
  Beta virt. eigenvalues --    0.12868   0.14079   0.14150   0.15005   0.15673

 Mulliken charges and spin densities:
               1          2
     1  C    0.116423  -0.212324
     2  C   -0.203153  -0.001828
     3  S    0.015805   0.090173
     4  C   -1.019816   0.583188
     5  C    1.820049  -2.243585
     6  O   -0.332873   0.058391
     7  C   -0.640009   0.212924
     8  C    0.493366  -0.974092
     9  O   -0.277938   0.010087
    10  O   -0.210089   0.018948
    11  H   -0.049001   0.182002
    12  H    0.171114  -0.016328
    13  H    0.197926   0.023684
    14  H    0.122943   0.110430
    15  H    0.167091   0.032940
    16  H   -0.132302   0.332322
    17  H   -0.637739   0.782759
    18  H   -0.309825   0.439414
    19  H   -0.368775   0.650690
    20  H    0.169657  -0.048380
    21  H    0.118545   0.073715
    22  H   -0.237415   0.390062
    23  H   -0.186395   0.453669
    24  H    0.212414   0.051138
 Sum of Mulliken charges =  -1.00000   1.00000

 Dipole moment (field-independent basis, Debye):
    X=             -3.8516    Y=             -4.9056    Z=              1.6448  Tot=              6.4502
 Quadrupole moment (field-independent basis, Debye-Ang):
   XX=           -145.5174   YY=           -113.4091   ZZ=            -92.3286
   XY=             -7.3468   XZ=             -0.3972   YZ=              3.2833

 Summary of Natural Population Analysis:

                                       Natural Population
                Natural  -----------------------------------------------
    Atom  No    Charge         Core      Valence    Rydberg      Total
 -----------------------------------------------------------------------
      C    1   -0.21272      0.99959     2.20083    0.01230     3.21272
      C    2   -0.24867      0.99958     2.23822    0.01087     3.24867
      S    3    0.07704      4.99963     2.90574    0.01759     7.92296
      C    4   -0.26250      0.99958     2.25118    0.01174     3.26250
      C    5   -0.01375      0.99958     2.00002    0.01415     3.01375
      O    6   -0.37542      0.99989     3.36722    0.00831     4.37542
      C    7    0.04261      0.99956     1.94326    0.01457     2.95739
      C    8   -0.02041      0.99958     2.00796    0.01287     3.02041
      O    9   -0.37753      0.99990     3.37022    0.00742     4.37753
      O   10   -0.37766      0.99990     3.37105    0.00671     4.37766
      H   11    0.09954      0.00000     0.39858    0.00188     0.40046
      H   12    0.10665      0.00000     0.39157    0.00178     0.39335
      H   13    0.10821      0.00000     0.39058    0.00121     0.39179
      H   14    0.11371      0.00000     0.38483    0.00146     0.38629
      H   15    0.10282      0.00000     0.39558    0.00160     0.39718
      H   16    0.10787      0.00000     0.39096    0.00117     0.39213
      H   17    0.08000      0.00000     0.41647    0.00353     0.42000
      H   18    0.07896      0.00000     0.41870    0.00234     0.42104
      H   19    0.23834      0.00000     0.24430    0.01736     0.26166
      H   20    0.09405      0.00000     0.40416    0.00179     0.40595
      H   21    0.08674      0.00000     0.41216    0.00110     0.41326
      H   22    0.08398      0.00000     0.41482    0.00119     0.41602
      H   23    0.23559      0.00000     0.25605    0.00835     0.26441
      H   24    0.23254      0.00000     0.26448    0.00297     0.26746
 =======================================================================
   * Total *   -0.00000     13.99680    30.83895    0.16425    45.00000

 Normal termination of Gaussian 16 at Tue Dec  8 10:30:05 2020.
