 Gaussian 16, Revision A.03,

 -----------------------------------------------------------
 # opt freq B3LYP/6-31G(d) empiricaldispersion=gd3bj scf=xqc
 -----------------------------------------------------------

 ------------------------------
 CID_43169884_JID_7277_neutraal
 ------------------------------
 Symbolic Z-matrix:
 Charge =  0 Multiplicity = 1

 SCF Done:  E(RB3LYP) =  -1184.53401924     A.U. after   15 cycles
 SCF Done:  E(RB3LYP) =  -1184.53897605     A.U. after   14 cycles
 SCF Done:  E(RB3LYP) =  -1184.53033981     A.U. after   14 cycles
 SCF Done:  E(RB3LYP) =  -1184.53599464     A.U. after   14 cycles
 SCF Done:  E(RB3LYP) =  -1184.54101538     A.U. after   11 cycles
 SCF Done:  E(RB3LYP) =  -1184.53955330     A.U. after   15 cycles
 SCF Done:  E(RB3LYP) =  -1184.54300154     A.U. after   13 cycles
 SCF Done:  E(RB3LYP) =  -1184.54309957     A.U. after   14 cycles
 SCF Done:  E(RB3LYP) =  -1184.54435060     A.U. after   13 cycles
 SCF Done:  E(RB3LYP) =  -1184.54390495     A.U. after   12 cycles
 SCF Done:  E(RB3LYP) =  -1184.54574950     A.U. after    9 cycles
 SCF Done:  E(RB3LYP) =  -1184.54575026     A.U. after    9 cycles
 SCF Done:  E(RB3LYP) =  -1184.54575059     A.U. after    8 cycles
 SCF Done:  E(RB3LYP) =  -1184.54575076     A.U. after    7 cycles
 SCF Done:  E(RB3LYP) =  -1184.54575081     A.U. after    6 cycles
 Optimization completed.
    -- Stationary point found.
 Normal termination of Gaussian 16 at Sun Dec 13 12:43:23 2020.

 --------------------------------------------------------------------
 #N Geom=AllCheck Guess=TCheck SCRF=Check GenChk RB3LYP/6-31G(d) Freq
 --------------------------------------------------------------------

 Structure from the checkpoint file:  "JID_7277.chk"
 ------------------------------
 CID_43169884_JID_7277_neutraal
 ------------------------------
 Charge =  0 Multiplicity = 1

 SCF Done:  E(RB3LYP) =  -1184.54575081     A.U. after    1 cycles

  Exact polarizability: 172.641  -1.317 136.172   0.112   3.181 132.754
 Approx polarizability: 225.520  -7.149 213.345   0.906  14.079 215.374

                      1                      2                      3
                      A                      A                      A
 Frequencies --     35.9660                42.7195                46.8188
 Red. masses --      4.5804                 3.8646                 4.8913
 Frc consts  --      0.0035                 0.0042                 0.0063
 IR Inten    --      0.1115                 2.8366                 1.2696

                      4                      5                      6
                      A                      A                      A
 Frequencies --     56.6624                63.7534                81.4780
 Red. masses --      4.5539                 5.5633                 3.9495
 Frc consts  --      0.0086                 0.0133                 0.0154
 IR Inten    --      2.9796                 2.9637                 1.0639

                      7                      8                      9
                      A                      A                      A
 Frequencies --    101.1502               114.2582               134.4629
 Red. masses --      5.0768                 9.0397                 4.0749
 Frc consts  --      0.0306                 0.0695                 0.0434
 IR Inten    --      3.5713                 4.4376                13.2417

                     10                     11                     12
                      A                      A                      A
 Frequencies --    148.0089               168.1423               178.2594
 Red. masses --      1.2349                 2.6200                 3.6159
 Frc consts  --      0.0159                 0.0436                 0.0677
 IR Inten    --      0.3652                 1.7904                 7.3465

                     13                     14                     15
                      A                      A                      A
 Frequencies --    188.5188               236.1147               248.8005
 Red. masses --      5.0110                 1.3104                 1.0704
 Frc consts  --      0.1049                 0.0430                 0.0390
 IR Inten    --      7.4695                 2.4928                 0.1431

                     16                     17                     18
                      A                      A                      A
 Frequencies --    269.0766               272.7924               285.9757
 Red. masses --      1.3399                 1.9098                 3.2145
 Frc consts  --      0.0572                 0.0837                 0.1549
 IR Inten    --      0.2759                 2.2626                 1.8922

                     19                     20                     21
                      A                      A                      A
 Frequencies --    293.3655               298.4541               325.5245
 Red. masses --      3.3882                 3.5592                 3.5578
 Frc consts  --      0.1718                 0.1868                 0.2221
 IR Inten    --      1.7939                 3.0301                 1.7926

                     22                     23                     24
                      A                      A                      A
 Frequencies --    332.7803               357.7421               410.5641
 Red. masses --      3.9231                 3.0841                 2.5573
 Frc consts  --      0.2560                 0.2326                 0.2540
 IR Inten    --      2.5996                 8.3249                 2.7375

                     25                     26                     27
                      A                      A                      A
 Frequencies --    428.8218               477.5251               490.7641
 Red. masses --      2.5837                 1.9870                 2.2977
 Frc consts  --      0.2799                 0.2670                 0.3261
 IR Inten    --      5.7486               111.9838                95.8457

                     28                     29                     30
                      A                      A                      A
 Frequencies --    499.2381               534.2476               574.9127
 Red. masses --      5.3736                 3.1874                 2.4507
 Frc consts  --      0.7891                 0.5360                 0.4772
 IR Inten    --     10.3654                26.1139                10.4655

                     31                     32                     33
                      A                      A                      A
 Frequencies --    597.9163               603.3204               645.4125
 Red. masses --      3.0458                 2.9801                 2.9979
 Frc consts  --      0.6415                 0.6391                 0.7358
 IR Inten    --      4.9367                28.1999                60.0966

                     34                     35                     36
                      A                      A                      A
 Frequencies --    648.2708               678.2094               776.9280
 Red. masses --      2.1839                 2.9605                 4.8219
 Frc consts  --      0.5407                 0.8023                 1.7149
 IR Inten    --     72.0217                63.2060                 1.6840

                     37                     38                     39
                      A                      A                      A
 Frequencies --    781.1583               844.1952               854.6736
 Red. masses --      5.1836                 2.8117                 3.1559
 Frc consts  --      1.8636                 1.1806                 1.3582
 IR Inten    --     14.6197                 4.9417                21.0422

                     40                     41                     42
                      A                      A                      A
 Frequencies --    868.8938               881.7371               916.8582
 Red. masses --      3.2893                 3.2858                 2.0258
 Frc consts  --      1.4631                 1.5051                 1.0033
 IR Inten    --      0.7649                 3.1801                 0.6577

                     43                     44                     45
                      A                      A                      A
 Frequencies --    941.4436               957.2950               972.4641
 Red. masses --      1.6124                 1.4377                 1.7490
 Frc consts  --      0.8420                 0.7763                 0.9745
 IR Inten    --      1.9631                 4.2818                 7.0091

                     46                     47                     48
                      A                      A                      A
 Frequencies --    987.2864              1014.2622              1042.5839
 Red. masses --      1.4884                 1.7983                 1.7327
 Frc consts  --      0.8548                 1.0900                 1.1096
 IR Inten    --      0.8262                11.1371                 1.1130

                     49                     50                     51
                      A                      A                      A
 Frequencies --   1071.5872              1113.3599              1119.8611
 Red. masses --      1.4930                 2.4043                 2.6238
 Frc consts  --      1.0101                 1.7559                 1.9387
 IR Inten    --     44.7318                 8.8862                 6.5045

                     52                     53                     54
                      A                      A                      A
 Frequencies --   1155.4385              1174.2898              1191.3590
 Red. masses --      2.0684                 2.1951                 1.1701
 Frc consts  --      1.6270                 1.7835                 0.9785
 IR Inten    --      1.0328                21.5180                35.5117

                     55                     56                     57
                      A                      A                      A
 Frequencies --   1207.6179              1213.1636              1237.5755
 Red. masses --      2.3431                 2.0273                 2.2914
 Frc consts  --      2.0132                 1.7579                 2.0677
 IR Inten    --     21.1672                16.8895               199.8070

                     58                     59                     60
                      A                      A                      A
 Frequencies --   1259.6079              1286.7383              1303.2162
 Red. masses --      1.2433                 1.2480                 1.4797
 Frc consts  --      1.1623                 1.2174                 1.4807
 IR Inten    --      3.7769                 2.9798                15.8192

                     61                     62                     63
                      A                      A                      A
 Frequencies --   1344.0735              1345.7312              1371.9688
 Red. masses --      1.3485                 1.3995                 1.4430
 Frc consts  --      1.4353                 1.4932                 1.6003
 IR Inten    --      7.1143                28.8236                 2.8486

                     64                     65                     66
                      A                      A                      A
 Frequencies --   1394.0901              1397.8328              1410.7551
 Red. masses --      1.5051                 1.6506                 2.0299
 Frc consts  --      1.7235                 1.9002                 2.3803
 IR Inten    --     14.1053                24.8005               107.2602

                     67                     68                     69
                      A                      A                      A
 Frequencies --   1411.6292              1434.7741              1444.5219
 Red. masses --      1.5519                 1.2555                 1.2463
 Frc consts  --      1.8220                 1.5228                 1.5322
 IR Inten    --     74.8075                 8.4478                 3.0691

                     70                     71                     72
                      A                      A                      A
 Frequencies --   1454.4154              1477.0364              1489.2431
 Red. masses --      1.2279                 1.0959                 1.0642
 Frc consts  --      1.5304                 1.4087                 1.3906
 IR Inten    --      4.5985                21.6188                 5.9868

                     73                     74                     75
                      A                      A                      A
 Frequencies --   1500.7713              1511.3803              1516.7588
 Red. masses --      1.0628                 1.8950                 1.0502
 Frc consts  --      1.4103                 2.5504                 1.4235
 IR Inten    --      7.0430                51.4180                 6.5826

                     76                     77                     78
                      A                      A                      A
 Frequencies --   1518.1198              1523.4479              1525.5488
 Red. masses --      1.0428                 1.0533                 1.0471
 Frc consts  --      1.4159                 1.4403                 1.4359
 IR Inten    --      8.0127                 9.0658                 3.2688

                     79                     80                     81
                      A                      A                      A
 Frequencies --   1535.8359              1545.3794              1753.0289
 Red. masses --      1.0603                 1.0446                 7.0234
 Frc consts  --      1.4736                 1.4698                12.7167
 IR Inten    --      6.3575                24.4676               425.1461

                     82                     83                     84
                      A                      A                      A
 Frequencies --   1819.8400              1834.4326              3030.3564
 Red. masses --     10.1843                10.3194                 1.0820
 Frc consts  --     19.8723                20.4601                 5.8543
 IR Inten    --    121.0961               257.5815                 6.8696

                     85                     86                     87
                      A                      A                      A
 Frequencies --   3042.8405              3045.3919              3056.2975
 Red. masses --      1.0392                 1.0397                 1.0385
 Frc consts  --      5.6689                 5.6814                 5.7155
 IR Inten    --     21.6431                 2.9007                20.2993

                     88                     89                     90
                      A                      A                      A
 Frequencies --   3061.9126              3084.1923              3104.8879
 Red. masses --      1.0393                 1.0671                 1.0970
 Frc consts  --      5.7409                 5.9806                 6.2310
 IR Inten    --     24.4324                 6.2621                 8.2714

                     91                     92                     93
                      A                      A                      A
 Frequencies --   3108.1063              3115.4566              3118.1145
 Red. masses --      1.0994                 1.0861                 1.1016
 Frc consts  --      6.2574                 6.2110                 6.3102
 IR Inten    --     17.6463                 0.9712                35.2473

                     94                     95                     96
                      A                      A                      A
 Frequencies --   3123.7734              3131.5404              3137.7634
 Red. masses --      1.1014                 1.0988                 1.0844
 Frc consts  --      6.3321                 6.3487                 6.2907
 IR Inten    --     34.7001                14.1708                15.4846

                     97                     98                     99
                      A                      A                      A
 Frequencies --   3153.9218              3162.1007              3168.8277
 Red. masses --      1.0998                 1.1023                 1.1024
 Frc consts  --      6.4454                 6.4936                 6.5219
 IR Inten    --      6.2373                12.3168                11.0798

                    100                    101                    102
                      A                      A                      A
 Frequencies --   3174.7782              3576.7491              3609.5554
 Red. masses --      1.0979                 1.0752                 1.0637
 Frc consts  --      6.5199                 8.1040                 8.1652
 IR Inten    --      0.6397                39.1870               120.9128

 - Thermochemistry -
 -------------------
 Temperature   298.150 Kelvin.  Pressure   1.00000 Atm.
 Atom     1 has atomic number  6 and mass  12.00000

 Molecular mass:   261.10348 amu.
 Principal axes and moments of inertia in atomic units:
                           1         2         3
     Eigenvalues --  2552.498846926.023447255.37037
           X            0.99989  -0.01410   0.00363
           Y            0.01446   0.99137  -0.13030
           Z           -0.00176   0.13034   0.99147
 This molecule is an asymmetric top.
 Rotational symmetry number  1.
 Warning -- assumption of classical behavior for rotation
           may cause significant error
 Rotational temperatures (Kelvin)      0.03393     0.01251     0.01194
 Rotational constants (GHZ):           0.70705     0.26057     0.24875
 Zero-point vibrational energy     787207.4 (Joules/Mol)
                                  188.14709 (Kcal/Mol)
 Warning -- explicit consideration of  32 degrees of freedom as
           vibrations may cause significant error
 Vibrational temperatures:     51.75    61.46    67.36    81.52    91.73
          (Kelvin)            117.23   145.53   164.39   193.46   212.95
                              241.92   256.48   271.24   339.72   357.97
                              387.14   392.49   411.46   422.09   429.41
                              468.36   478.80   514.71   590.71   616.98
                              687.05   706.10   718.29   768.66   827.17
                              860.27   868.04   928.60   932.72   975.79
                             1117.83  1123.91  1214.61  1229.68  1250.14
                             1268.62  1319.15  1354.53  1377.33  1399.16
                             1420.48  1459.30  1500.05  1541.77  1601.88
                             1611.23  1662.42  1689.54  1714.10  1737.49
                             1745.47  1780.60  1812.29  1851.33  1875.04
                             1933.82  1936.21  1973.96  2005.78  2011.17
                             2029.76  2031.02  2064.32  2078.34  2092.58
                             2125.13  2142.69  2159.28  2174.54  2182.28
                             2184.24  2191.90  2194.92  2209.73  2223.46
                             2522.22  2618.34  2639.34  4360.01  4377.97
                             4381.64  4397.33  4405.41  4437.46  4467.24
                             4471.87  4482.45  4486.27  4494.41  4505.59
                             4514.54  4537.79  4549.56  4559.24  4567.80
                             5146.14  5193.35

 Zero-point correction=                           0.299831 (Hartree/Particle)
 Thermal correction to Energy=                    0.319893
 Thermal correction to Enthalpy=                  0.320837
 Thermal correction to Gibbs Free Energy=         0.250658
 Sum of electronic and zero-point Energies=          -1184.245919
 Sum of electronic and thermal Energies=             -1184.225858
 Sum of electronic and thermal Enthalpies=           -1184.224913
 Sum of electronic and thermal Free Energies=        -1184.295093

                     E (Thermal)             CV                S
                      KCal/Mol        Cal/Mol-Kelvin    Cal/Mol-Kelvin
 Total                  200.736             72.564            147.704
 Electronic               0.000              0.000              0.000
 Translational            0.889              2.981             42.579
 Rotational               0.889              2.981             33.217
 Vibrational            198.959             66.603             71.909
 Vibration     1          0.594              1.982              5.470
 Vibration     2          0.595              1.980              5.129
 Vibration     3          0.595              1.979              4.947
 Vibration     4          0.596              1.975              4.570
 Vibration     5          0.597              1.972              4.337
 Vibration     6          0.600              1.962              3.855
 Vibration     7          0.604              1.948              3.432
 Vibration     8          0.607              1.938              3.195
 Vibration     9          0.613              1.919              2.881
 Vibration    10          0.617              1.905              2.698
 Vibration    11          0.625              1.882              2.456
 Vibration    12          0.629              1.869              2.347
 Vibration    13          0.633              1.856              2.242
 Vibration    14          0.655              1.785              1.832
 Vibration    15          0.662              1.765              1.739
 Vibration    16          0.673              1.730              1.602
 Vibration    17          0.676              1.723              1.578
 Vibration    18          0.684              1.700              1.498
 Vibration    19          0.688              1.686              1.454
 Vibration    20          0.692              1.677              1.426
 Vibration    21          0.710              1.624              1.282
 Vibration    22          0.715              1.610              1.247
 Vibration    23          0.733              1.559              1.132
 Vibration    24          0.775              1.447              0.925
 Vibration    25          0.790              1.407              0.863
 Vibration    26          0.834              1.300              0.717
 Vibration    27          0.847              1.271              0.682
 Vibration    28          0.855              1.252              0.660
 Vibration    29          0.889              1.174              0.578
 Vibration    30          0.931              1.086              0.495
 Vibration    31          0.956              1.036              0.453
 Vibration    32          0.962              1.025              0.444

 Optimization completed.
    -- Stationary point found.
 Normal termination of Gaussian 16 at Sun Dec 13 12:57:11 2020.

 ----------------------------------------------------------------------
 # B3LYP/6-311++G(d,p) empiricaldispersion=gd3bj scf=xqc pop=npa geom=c
 heck
 ----------------------------------------------------------------------

 --------------------------------------
 CID_43169884_JID_7277_Energie_neutraal
 --------------------------------------
 Structure from the checkpoint file:  "JID_7277.chk"
 Charge =  0 Multiplicity = 1

 SCF Done:  E(RB3LYP) =  -1184.81530005     A.U. after   16 cycles
 Normal termination of Gaussian 16 at Sun Dec 13 13:05:10 2020.

 ----------------------------------------------------------------------
 # B3LYP/6-311++G(d,p) empiricaldispersion=gd3bj scf=xqc pop=npa geom=c
 heck
 ----------------------------------------------------------------------

 ------------------------------------
 CID_43169884_JID_7277_Energie_kation
 ------------------------------------
 Structure from the checkpoint file:  "JID_7277.chk"
 Charge =  1 Multiplicity = 2

 SCF Done:  E(UB3LYP) =  -1184.50349483     A.U. after   26 cycles
 Normal termination of Gaussian 16 at Sun Dec 13 13:24:09 2020.
 Gaussian 16:  ES64L-G16RevA.03 25-Dec-2016

 ----------------------------------------------------------------------
 # B3LYP/6-311++G(d,p) empiricaldispersion=gd3bj scf=xqc pop=npa geom=c
 heck
 ----------------------------------------------------------------------

 -----------------------------------
 CID_43169884_JID_7277_Energie_anion
 -----------------------------------
 Structure from the checkpoint file:  "JID_7277.chk"
 Charge = -1 Multiplicity = 2

                         Standard orientation:
 ---------------------------------------------------------------------
 Center     Atomic      Atomic             Coordinates (Angstroms)
 Number     Number       Type             X           Y           Z
 ---------------------------------------------------------------------
      1          6           0       -3.319636    2.086209   -0.007335
      2          6           0       -2.251905    1.286145   -0.765278
      3          6           0       -1.031066    2.156544   -1.076655
      4          6           0       -1.855877    0.007001    0.014648
      5          6           0       -3.109886   -0.840201    0.308868
      6          8           0       -3.691631   -1.385230   -0.608900
      7          6           0       -3.549147   -0.960568    1.749371
      8          7           0       -0.938421   -0.807741   -0.768496
      9          6           0        0.241076   -1.384730   -0.427931
     10          8           0        0.827215   -2.127126   -1.218217
     11          6           0        0.816449   -1.132626    0.972376
     12         16           0        1.270744    0.598102    1.421650
     13          6           0        2.880354    0.890975    0.528194
     14          6           0        4.087894    0.454564    1.352786
     15          6           0        2.760029    0.239237   -0.838487
     16          8           0        2.195864    0.737058   -1.787051
     17          8           0        3.271426   -1.008096   -0.830816
     18          1           0       -2.954163    2.389067    0.982486
     19          1           0       -4.248266    1.520423    0.125872
     20          1           0       -3.568040    2.999149   -0.558033
     21          1           0       -2.696111    0.935304   -1.707792
     22          1           0       -0.619430    2.586887   -0.157158
     23          1           0       -0.230012    1.592217   -1.560244
     24          1           0       -1.321224    2.981525   -1.737230
     25          1           0       -1.363868    0.297655    0.943736
     26          1           0       -2.774919   -1.484412    2.326017
     27          1           0       -3.661395    0.032508    2.200441
     28          1           0       -4.488227   -1.513065    1.815873
     29          1           0       -1.283212   -1.101342   -1.676540
     30          1           0        0.083032   -1.416116    1.734716
     31          1           0        1.682942   -1.784571    1.077573
     32          1           0        2.873877    1.972230    0.369865
     33          1           0        4.054311   -0.616748    1.561400
     34          1           0        5.015577    0.664468    0.807435
     35          1           0        4.110428    0.997109    2.301673
     36          1           0        2.793019   -1.515893   -1.520488
 ---------------------------------------------------------------------

 SCF Done:  E(UB3LYP) =  -1184.81120447     A.U. after   33 cycles
 SCF Done:  E(UB3LYP) =  -1184.81120447     a.u. after    1 cycles

 The electronic state is 2-A.
 Alpha  occ. eigenvalues --  -88.74380 -19.05279 -19.00179 -18.99822 -18.98370
 Alpha  occ. eigenvalues --  -14.23412 -10.18777 -10.16979 -10.14381 -10.11757
 Alpha  occ. eigenvalues --  -10.11174 -10.10705 -10.07972 -10.07961 -10.06766
 Alpha  occ. eigenvalues --  -10.06283 -10.04876  -7.82987  -5.79400  -5.79039
 Alpha  occ. eigenvalues --   -5.78288  -0.99677  -0.94017  -0.93356  -0.90845
 Alpha  occ. eigenvalues --   -0.82433  -0.72482  -0.70615  -0.66576  -0.64809
 Alpha  occ. eigenvalues --   -0.59983  -0.58379  -0.58195  -0.55057  -0.49328
 Alpha  occ. eigenvalues --   -0.48080  -0.47342  -0.44639  -0.40143  -0.39210
 Alpha  occ. eigenvalues --   -0.38524  -0.38164  -0.37087  -0.36124  -0.35447
 Alpha  occ. eigenvalues --   -0.33869  -0.33401  -0.32564  -0.32400  -0.31878
 Alpha  occ. eigenvalues --   -0.31388  -0.30776  -0.30158  -0.29161  -0.28655
 Alpha  occ. eigenvalues --   -0.28423  -0.28218  -0.27622  -0.26381  -0.24773
 Alpha  occ. eigenvalues --   -0.24022  -0.23839  -0.23733  -0.22998  -0.20727
 Alpha  occ. eigenvalues --   -0.17188  -0.17006  -0.16302  -0.13604  -0.12708
 Alpha  occ. eigenvalues --    0.04423
 Alpha virt. eigenvalues --    0.06700   0.06963   0.07190   0.07886   0.08881
 Alpha virt. eigenvalues --    0.09152   0.09498   0.09832   0.10260   0.10919
 Alpha virt. eigenvalues --    0.11045   0.11339   0.12280   0.12460   0.12924

  Beta  occ. eigenvalues --  -88.74340 -19.05242 -19.00041 -18.99691 -18.98310
  Beta  occ. eigenvalues --  -14.23419 -10.18623 -10.16874 -10.14211 -10.11731
  Beta  occ. eigenvalues --  -10.11172 -10.10693 -10.07960 -10.07941 -10.06738
  Beta  occ. eigenvalues --  -10.06267 -10.04872  -7.82939  -5.79362  -5.78978
  Beta  occ. eigenvalues --   -5.78253  -0.99503  -0.93792  -0.93170  -0.90656
  Beta  occ. eigenvalues --   -0.82392  -0.72336  -0.70543  -0.66475  -0.64623
  Beta  occ. eigenvalues --   -0.59901  -0.58339  -0.58097  -0.54804  -0.49238
  Beta  occ. eigenvalues --   -0.47994  -0.47252  -0.44380  -0.39957  -0.39049
  Beta  occ. eigenvalues --   -0.38393  -0.37973  -0.36929  -0.35947  -0.35266
  Beta  occ. eigenvalues --   -0.33690  -0.33256  -0.32371  -0.32240  -0.31811
  Beta  occ. eigenvalues --   -0.31220  -0.30694  -0.30058  -0.29093  -0.28594
  Beta  occ. eigenvalues --   -0.28309  -0.28166  -0.27406  -0.26070  -0.24536
  Beta  occ. eigenvalues --   -0.23979  -0.23607  -0.23481  -0.22838  -0.20325
  Beta  occ. eigenvalues --   -0.17056  -0.16875  -0.16221  -0.13461  -0.12589
  Beta virt. eigenvalues --    0.06785   0.07380   0.07897   0.08211   0.08508
  Beta virt. eigenvalues --    0.09128   0.09515   0.09648   0.10255   0.10392
  Beta virt. eigenvalues --    0.11041   0.11240   0.11438   0.12350   0.12617

 Mulliken charges and spin densities:
               1          2
     1  C    0.346218  -1.023183
     2  C   -0.181451   0.487289
     3  C   -0.576879  -0.054941
     4  C    0.286926  -0.248073
     5  C   -0.869891   0.802018
     6  O   -0.274683   0.035482
     7  C    0.710103  -1.229032
     8  N    0.031163  -0.018608
     9  C   -0.514072   0.387262
    10  O   -0.362621   0.017836
    11  C   -0.371084  -0.193386
    12  S    0.913158  -0.579404
    13  C   -0.410019   0.518693
    14  C   -0.594272  -0.138532
    15  C   -0.225803  -0.062835
    16  O   -0.200406   0.045660
    17  O   -0.102937   0.005068
    18  H   -0.278038   0.456273
    19  H    0.004055   0.164264
    20  H    0.147819  -0.010714
    21  H    0.155597   0.020407
    22  H    0.096383   0.044547
    23  H    0.218728  -0.006995
    24  H    0.080817   0.061529
    25  H    0.461320  -0.370731
    26  H    0.006984   0.142652
    27  H   -0.607667   0.787767
    28  H   -0.100825   0.256521
    29  H    0.300136   0.016421
    30  H   -0.166666   0.453485
    31  H    0.255035   0.037163
    32  H    0.188559   0.076338
    33  H    0.159260   0.006425
    34  H    0.107184   0.024632
    35  H    0.052707   0.083414
    36  H    0.315160   0.005289
 Sum of Mulliken charges =  -1.00000   1.00000

 Dipole moment (field-independent basis, Debye):
    X=              4.9506    Y=              0.4070    Z=             -1.7007  Tot=              5.2504
 Quadrupole moment (field-independent basis, Debye-Ang):
   XX=           -171.7615   YY=           -139.8670   ZZ=           -150.7885
   XY=              0.3259   XZ=             13.9681   YZ=             -7.9629

 Summary of Natural Population Analysis:

                                       Natural Population
                Natural  -----------------------------------------------
    Atom  No    Charge         Core      Valence    Rydberg      Total
 -----------------------------------------------------------------------
      C    1   -0.28726      0.99964     2.28204    0.00558     3.28726
      C    2   -0.10657      0.99960     2.09840    0.00857     3.10657
      C    3   -0.29016      0.99964     2.28447    0.00604     3.29016
      C    4   -0.05679      0.99951     2.04140    0.01588     3.05679
      C    5    0.31520      0.99966     1.66342    0.02173     2.68480
      O    6   -0.28534      0.99987     3.27871    0.00675     4.28534
      C    7   -0.33535      0.99961     2.32996    0.00577     3.33535
      N    8   -0.30734      0.99965     2.79767    0.01002     3.80734
      C    9    0.35084      0.99964     1.62556    0.02396     2.64916
      O   10   -0.33969      0.99987     3.33422    0.00560     4.33969
      C   11   -0.30078      0.99954     2.29082    0.01042     3.30078
      S   12    0.11710      4.99963     2.86538    0.01789     7.88290
      C   13   -0.20112      0.99953     2.18881    0.01277     3.20112
      C   14   -0.28976      0.99964     2.28379    0.00633     3.28976
      C   15    0.41077      0.99966     1.56225    0.02732     2.58923
      O   16   -0.29542      0.99986     3.28919    0.00636     4.29542
      O   17   -0.35822      0.99987     3.35106    0.00729     4.35822
      H   18    0.10074      0.00000     0.39806    0.00120     0.39926
      H   19    0.10154      0.00000     0.39755    0.00091     0.39846
      H   20    0.09846      0.00000     0.40083    0.00071     0.40154
      H   21    0.09542      0.00000     0.40292    0.00166     0.40458
      H   22    0.10086      0.00000     0.39829    0.00085     0.39914
      H   23    0.11625      0.00000     0.38281    0.00095     0.38375
      H   24    0.09297      0.00000     0.40635    0.00068     0.40703
      H   25    0.11017      0.00000     0.38690    0.00293     0.38983
      H   26    0.10982      0.00000     0.38893    0.00126     0.39018
      H   27    0.11638      0.00000     0.37887    0.00474     0.38362
      H   28    0.10709      0.00000     0.39188    0.00103     0.39291
      H   29    0.19961      0.00000     0.29874    0.00165     0.30039
      H   30    0.11888      0.00000     0.37962    0.00150     0.38112
      H   31    0.11812      0.00000     0.38051    0.00136     0.38188
      H   32    0.11286      0.00000     0.38605    0.00110     0.38714
      H   33    0.10605      0.00000     0.39280    0.00115     0.39395
      H   34    0.09817      0.00000     0.40079    0.00104     0.40183
      H   35    0.10046      0.00000     0.39829    0.00126     0.39954
      H   36    0.25604      0.00000     0.24124    0.00272     0.24396
 =======================================================================
   * Total *   -0.00000     20.99444    48.77857    0.22699    70.00000

 Normal termination of Gaussian 16 at Sun Dec 13 13:48:26 2020.
