 Gaussian 16, Revision A.03,

 -----------------------------------------------------------
 # opt freq B3LYP/6-31G(d) empiricaldispersion=gd3bj scf=xqc
 -----------------------------------------------------------

 -------------------------------
 CID_115118785_JID_7388_neutraal
 -------------------------------
 Symbolic Z-matrix:
 Charge =  0 Multiplicity = 1

 SCF Done:  E(RB3LYP) =  -691.983733708     A.U. after   14 cycles
 SCF Done:  E(RB3LYP) =  -691.990962550     A.U. after   12 cycles
 SCF Done:  E(RB3LYP) =  -691.990851245     A.U. after   13 cycles
 SCF Done:  E(RB3LYP) =  -691.991760822     A.U. after   10 cycles
 SCF Done:  E(RB3LYP) =  -691.991831394     A.U. after   10 cycles
 SCF Done:  E(RB3LYP) =  -691.991864593     A.U. after   10 cycles
 SCF Done:  E(RB3LYP) =  -691.991887944     A.U. after   10 cycles
 SCF Done:  E(RB3LYP) =  -691.991902682     A.U. after   10 cycles
 SCF Done:  E(RB3LYP) =  -691.991924497     A.U. after   10 cycles
 SCF Done:  E(RB3LYP) =  -691.991955274     A.U. after   11 cycles
 SCF Done:  E(RB3LYP) =  -691.991980630     A.U. after   10 cycles
 SCF Done:  E(RB3LYP) =  -691.991981658     A.U. after   10 cycles
 SCF Done:  E(RB3LYP) =  -691.991984325     A.U. after    9 cycles
 SCF Done:  E(RB3LYP) =  -691.991984632     A.U. after    8 cycles
 SCF Done:  E(RB3LYP) =  -691.991984736     A.U. after    8 cycles
 SCF Done:  E(RB3LYP) =  -691.991984734     A.U. after    6 cycles
 Optimization completed.
    -- Stationary point found.
 Normal termination of Gaussian 16 at Mon Dec 14 13:23:00 2020.

 --------------------------------------------------------------------
 #N Geom=AllCheck Guess=TCheck SCRF=Check GenChk RB3LYP/6-31G(d) Freq
 --------------------------------------------------------------------

 Structure from the checkpoint file:  "JID_7388.chk"
 -------------------------------
 CID_115118785_JID_7388_neutraal
 -------------------------------
 Charge =  0 Multiplicity = 1

 SCF Done:  E(RB3LYP) =  -691.991984734     A.U. after    1 cycles

  Exact polarizability: 197.546  11.156 188.152  25.079  -8.891 107.889
 Approx polarizability: 284.514  25.423 338.584  50.192 -20.504 162.720

                      1                      2                      3
                      A                      A                      A
 Frequencies --     30.2886                42.6110                62.6150
 Red. masses --      3.3087                 2.7304                 4.2410
 Frc consts  --      0.0018                 0.0029                 0.0098
 IR Inten    --      0.6377                 0.1455                 0.2023

                      4                      5                      6
                      A                      A                      A
 Frequencies --     90.7927               141.5755               167.9932
 Red. masses --      2.3915                 3.5051                 1.9675
 Frc consts  --      0.0116                 0.0414                 0.0327
 IR Inten    --      0.0518                 0.3445                 0.6977

                      7                      8                      9
                      A                      A                      A
 Frequencies --    175.0038               199.0859               225.8767
 Red. masses --      2.9490                 1.8387                 2.3833
 Frc consts  --      0.0532                 0.0429                 0.0716
 IR Inten    --      0.6838                 0.7506                 1.5113

                     10                     11                     12
                      A                      A                      A
 Frequencies --    242.0763               289.7985               314.4340
 Red. masses --      2.8241                 2.9579                 3.1997
 Frc consts  --      0.0975                 0.1464                 0.1864
 IR Inten    --      1.2251                 7.9468                 1.9133

                     13                     14                     15
                      A                      A                      A
 Frequencies --    324.0896               423.6650               456.7287
 Red. masses --      3.9004                 3.6361                 3.6972
 Frc consts  --      0.2414                 0.3845                 0.4544
 IR Inten    --      3.7405                 2.2565                 1.4249

                     16                     17                     18
                      A                      A                      A
 Frequencies --    466.5075               487.4623               509.8086
 Red. masses --      3.1913                 3.4531                 4.1918
 Frc consts  --      0.4092                 0.4834                 0.6419
 IR Inten    --      3.6020                 0.7000                 0.7838

                     19                     20                     21
                      A                      A                      A
 Frequencies --    535.6740               562.4644               595.4686
 Red. masses --      3.9893                 4.9281                 3.7370
 Frc consts  --      0.6745                 0.9186                 0.7807
 IR Inten    --      0.8471                 3.5772                 0.4639

                     22                     23                     24
                      A                      A                      A
 Frequencies --    625.4656               674.5148               690.4939
 Red. masses --      4.4129                 3.2687                 3.2683
 Frc consts  --      1.0171                 0.8762                 0.9181
 IR Inten    --      2.4001                 0.9254                 0.1370

                     25                     26                     27
                      A                      A                      A
 Frequencies --    722.4771               753.7079               797.2225
 Red. masses --      4.2602                 1.4010                 1.7296
 Frc consts  --      1.3102                 0.4689                 0.6477
 IR Inten    --      4.8247                 2.2851                56.5490

                     28                     29                     30
                      A                      A                      A
 Frequencies --    805.3982               809.8570               823.5192
 Red. masses --      3.1353                 1.6206                 1.7054
 Frc consts  --      1.1983                 0.6263                 0.6814
 IR Inten    --      1.6503                 0.9110                25.4009

                     31                     32                     33
                      A                      A                      A
 Frequencies --    843.3351               867.9447               884.0448
 Red. masses --      1.8513                 2.7399                 1.8036
 Frc consts  --      0.7757                 1.2161                 0.8305
 IR Inten    --     77.4485                34.6107                 1.2656

                     34                     35                     36
                      A                      A                      A
 Frequencies --    891.0826               931.2921               942.7801
 Red. masses --      3.0091                 1.3914                 2.4201
 Frc consts  --      1.4077                 0.7110                 1.2674
 IR Inten    --      9.0738                 0.2347                 5.2827

                     37                     38                     39
                      A                      A                      A
 Frequencies --    955.9392               958.7622               978.2469
 Red. masses --      2.6548                 1.3941                 1.2922
 Frc consts  --      1.4294                 0.7550                 0.7286
 IR Inten    --     11.6154                 4.4015                 0.8706

                     40                     41                     42
                      A                      A                      A
 Frequencies --    990.0826               995.0986              1032.8334
 Red. masses --      1.2932                 3.2459                 1.4720
 Frc consts  --      0.7469                 1.8937                 0.9252
 IR Inten    --      0.3528                 5.4512                11.9497

                     43                     44                     45
                      A                      A                      A
 Frequencies --   1052.7798              1058.3360              1074.0062
 Red. masses --      2.5233                 1.6089                 2.4257
 Frc consts  --      1.6478                 1.0618                 1.6485
 IR Inten    --     13.4263                 1.1879                10.9584

                     46                     47                     48
                      A                      A                      A
 Frequencies --   1087.4634              1105.6088              1117.7425
 Red. masses --      2.4673                 2.2228                 4.0196
 Frc consts  --      1.7191                 1.6009                 2.9588
 IR Inten    --     32.8639                24.4932                11.8006

                     49                     50                     51
                      A                      A                      A
 Frequencies --   1158.7943              1175.4573              1183.2385
 Red. masses --      1.3192                 1.7681                 1.3659
 Frc consts  --      1.0437                 1.4394                 1.1267
 IR Inten    --      9.9263                 2.9200                 2.5079

                     52                     53                     54
                      A                      A                      A
 Frequencies --   1193.0729              1210.4689              1224.7314
 Red. masses --      1.1386                 1.8893                 1.4571
 Frc consts  --      0.9549                 1.6310                 1.2877
 IR Inten    --      1.0434                 7.8299                 3.4990

                     55                     56                     57
                      A                      A                      A
 Frequencies --   1237.4334              1250.3374              1258.3113
 Red. masses --      1.9432                 2.1311                 1.3495
 Frc consts  --      1.7531                 1.9630                 1.2589
 IR Inten    --     14.7355                 1.8970                 5.7981

                     58                     59                     60
                      A                      A                      A
 Frequencies --   1287.2377              1297.8846              1309.3759
 Red. masses --      1.6608                 1.3765                 1.5292
 Frc consts  --      1.6213                 1.3661                 1.5447
 IR Inten    --      1.9327                 0.8713                19.8325

                     61                     62                     63
                      A                      A                      A
 Frequencies --   1336.1420              1341.5321              1367.2991
 Red. masses --      1.2312                 1.9500                 1.2499
 Frc consts  --      1.2950                 2.0677                 1.3767
 IR Inten    --      1.0274                17.5305                 6.7208

                     64                     65                     66
                      A                      A                      A
 Frequencies --   1379.1640              1384.0996              1409.3619
 Red. masses --      2.1547                 1.7929                 6.1553
 Frc consts  --      2.4148                 2.0237                 7.2036
 IR Inten    --      4.5896                 6.6380                 2.8370

                     67                     68                     69
                      A                      A                      A
 Frequencies --   1417.8133              1438.8660              1482.7735
 Red. masses --      1.4534                 2.3080                 1.1956
 Frc consts  --      1.7214                 2.8153                 1.5487
 IR Inten    --     26.9924                27.9684                 2.0961

                     70                     71                     72
                      A                      A                      A
 Frequencies --   1485.9019              1486.5501              1510.7847
 Red. masses --      1.9610                 1.2129                 2.0946
 Frc consts  --      2.5510                 1.5791                 2.8168
 IR Inten    --      0.8516                 7.4552                 5.3147

                     73                     74                     75
                      A                      A                      A
 Frequencies --   1519.1788              1521.3358              1521.5316
 Red. masses --      1.1005                 1.0777                 1.1030
 Frc consts  --      1.4964                 1.4696                 1.5045
 IR Inten    --      5.5787                 1.5034                 1.8578

                     76                     77                     78
                      A                      A                      A
 Frequencies --   1540.1555              1543.2126              1566.5091
 Red. masses --      1.0898                 1.1006                 3.2100
 Frc consts  --      1.5231                 1.5443                 4.6411
 IR Inten    --      3.3735                 0.6772                 9.6280

                     79                     80                     81
                      A                      A                      A
 Frequencies --   1633.8368              1657.2078              1683.8362
 Red. masses --      7.0569                 5.1465                 6.0307
 Frc consts  --     11.0990                 8.3275                10.0744
 IR Inten    --      5.9652                14.8937                 0.4275

                     82                     83                     84
                      A                      A                      A
 Frequencies --   2925.5527              2970.0145              3054.2466
 Red. masses --      1.0810                 1.0592                 1.0653
 Frc consts  --      5.4510                 5.5048                 5.8548
 IR Inten    --     47.7635                77.1091                57.0599

                     85                     86                     87
                      A                      A                      A
 Frequencies --   3057.9116              3070.4408              3083.6218
 Red. masses --      1.0662                 1.0620                 1.0733
 Frc consts  --      5.8740                 5.8989                 6.0130
 IR Inten    --     29.3205                21.1155                53.1733

                     88                     89                     90
                      A                      A                      A
 Frequencies --   3102.3903              3122.1245              3132.0837
 Red. masses --      1.1017                 1.1059                 1.1002
 Frc consts  --      6.2478                 6.3516                 6.3590
 IR Inten    --      9.1808                46.1616                17.7814

                     91                     92                     93
                      A                      A                      A
 Frequencies --   3133.5716              3179.1910              3183.0499
 Red. masses --      1.1026                 1.0866                 1.0863
 Frc consts  --      6.3792                 6.4706                 6.4849
 IR Inten    --     31.0715                 0.9926                 2.8599

                     94                     95                     96
                      A                      A                      A
 Frequencies --   3191.3939              3200.1202              3207.6506
 Red. masses --      1.0898                 1.0924                 1.0958
 Frc consts  --      6.5399                 6.5910                 6.6431
 IR Inten    --     15.7939                29.4540                36.4150

                     97                     98                     99
                      A                      A                      A
 Frequencies --   3215.7615              3248.1840              3468.9715
 Red. masses --      1.0946                 1.0907                 1.0744
 Frc consts  --      6.6690                 6.7801                 7.6175
 IR Inten    --     13.6994                11.7536                 2.0617

 - Thermochemistry -
 -------------------
 Temperature   298.150 Kelvin.  Pressure   1.00000 Atm.
 Atom     1 has atomic number  6 and mass  12.00000

 Molecular mass:   226.14700 amu.
 Principal axes and moments of inertia in atomic units:
                           1         2         3
     Eigenvalues --  2242.528905561.597786160.74483
           X            0.99996  -0.00208   0.00849
           Y            0.00221   0.99987  -0.01601
           Z           -0.00846   0.01603   0.99984
 This molecule is an asymmetric top.
 Rotational symmetry number  1.
 Warning -- assumption of classical behavior for rotation
           may cause significant error
 Rotational temperatures (Kelvin)      0.03862     0.01557     0.01406
 Rotational constants (GHZ):           0.80478     0.32450     0.29294
 Zero-point vibrational energy     797752.3 (Joules/Mol)
                                  190.66738 (Kcal/Mol)
 Warning -- explicit consideration of  21 degrees of freedom as
           vibrations may cause significant error
 Vibrational temperatures:     43.58    61.31    90.09   130.63   203.70
          (Kelvin)            241.70   251.79   286.44   324.99   348.29
                              416.96   452.40   466.29   609.56   657.13
                              671.20   701.35   733.50   770.72   809.26
                              856.75   899.91   970.48   993.47  1039.48
                             1084.42  1147.03  1158.79  1165.20  1184.86
                             1213.37  1248.78  1271.94  1282.07  1339.92
                             1356.45  1375.38  1379.44  1407.48  1424.51
                             1431.72  1486.02  1514.72  1522.71  1545.26
                             1564.62  1590.72  1608.18  1667.25  1691.22
                             1702.42  1716.57  1741.59  1762.12  1780.39
                             1798.96  1810.43  1852.05  1867.37  1883.90
                             1922.41  1930.17  1967.24  1984.31  1991.41
                             2027.76  2039.92  2070.21  2133.38  2137.88
                             2138.81  2173.68  2185.76  2188.86  2189.14
                             2215.94  2220.34  2253.86  2350.73  2384.35
                             2422.66  4209.22  4273.19  4394.38  4399.65
                             4417.68  4436.64  4463.65  4492.04  4506.37
                             4508.51  4574.15  4579.70  4591.70  4604.26
                             4615.09  4626.76  4673.41  4991.08

 Zero-point correction=                           0.303848 (Hartree/Particle)
 Thermal correction to Energy=                    0.318352
 Thermal correction to Enthalpy=                  0.319296
 Thermal correction to Gibbs Free Energy=         0.261496
 Sum of electronic and zero-point Energies=           -691.688137
 Sum of electronic and thermal Energies=              -691.673633
 Sum of electronic and thermal Enthalpies=            -691.672689
 Sum of electronic and thermal Free Energies=         -691.730489

                     E (Thermal)             CV                S
                      KCal/Mol        Cal/Mol-Kelvin    Cal/Mol-Kelvin
 Total                  199.769             57.774            121.650
 Electronic               0.000              0.000              0.000
 Translational            0.889              2.981             42.150
 Rotational               0.889              2.981             32.707
 Vibrational            197.991             51.812             46.792
 Vibration     1          0.594              1.984              5.810
 Vibration     2          0.595              1.980              5.134
 Vibration     3          0.597              1.972              4.373
 Vibration     4          0.602              1.956              3.643
 Vibration     5          0.615              1.912              2.782
 Vibration     6          0.625              1.882              2.458
 Vibration     7          0.627              1.873              2.381
 Vibration     8          0.637              1.841              2.142
 Vibration     9          0.650              1.802              1.911
 Vibration    10          0.658              1.776              1.788
 Vibration    11          0.686              1.693              1.475
 Vibration    12          0.702              1.646              1.339
 Vibration    13          0.709              1.627              1.289
 Vibration    14          0.786              1.419              0.880
 Vibration    15          0.815              1.346              0.776
 Vibration    16          0.824              1.324              0.747
 Vibration    17          0.843              1.278              0.690
 Vibration    18          0.865              1.228              0.634
 Vibration    19          0.891              1.171              0.575
 Vibration    20          0.918              1.112              0.519
 Vibration    21          0.953              1.041              0.458

 Optimization completed.
    -- Stationary point found.
 Normal termination of Gaussian 16 at Mon Dec 14 13:37:24 2020.

 ----------------------------------------------------------------------
 # B3LYP/6-311++G(d,p) empiricaldispersion=gd3bj scf=xqc pop=npa geom=c
 heck
 ----------------------------------------------------------------------

 ---------------------------------------
 CID_115118785_JID_7388_Energie_neutraal
 ---------------------------------------
 Structure from the checkpoint file:  "JID_7388.chk"
 Charge =  0 Multiplicity = 1

 SCF Done:  E(RB3LYP) =  -692.171856357     A.U. after   15 cycles
 Normal termination of Gaussian 16 at Mon Dec 14 13:44:18 2020.

 ----------------------------------------------------------------------
 # B3LYP/6-311++G(d,p) empiricaldispersion=gd3bj scf=xqc pop=npa geom=c
 heck
 ----------------------------------------------------------------------

 -------------------------------------
 CID_115118785_JID_7388_Energie_kation
 -------------------------------------
 Structure from the checkpoint file:  "JID_7388.chk"
 Charge =  1 Multiplicity = 2

 SCF Done:  E(UB3LYP) =  -691.894154688     A.U. after   28 cycles
 Normal termination of Gaussian 16 at Mon Dec 14 14:03:17 2020.
 Gaussian 16:  ES64L-G16RevA.03 25-Dec-2016

 ----------------------------------------------------------------------
 # B3LYP/6-311++G(d,p) empiricaldispersion=gd3bj scf=xqc pop=npa geom=c
 heck
 ----------------------------------------------------------------------

 ------------------------------------
 CID_115118785_JID_7388_Energie_anion
 ------------------------------------
 Structure from the checkpoint file:  "JID_7388.chk"
 Charge = -1 Multiplicity = 2

                         Standard orientation:
 ---------------------------------------------------------------------
 Center     Atomic      Atomic             Coordinates (Angstroms)
 Number     Number       Type             X           Y           Z
 ---------------------------------------------------------------------
      1          6           0        1.026139    0.148491    2.453136
      2          7           0        1.044332    0.473428    1.032215
      3          6           0        1.908694   -0.383442    0.224445
      4          6           0        3.411197   -0.207554    0.562796
      5          6           0        4.129902   -0.284994   -0.818416
      6          7           0        3.111961   -0.602432   -1.840042
      7          6           0        1.866074   -0.066887   -1.285238
      8          6           0       -0.229958    0.833993    0.474163
      9          6           0       -0.427948    2.166821    0.175211
     10          6           0       -1.642991    2.631080   -0.377681
     11          6           0       -2.662652    1.747281   -0.636834
     12          6           0       -2.511686    0.366467   -0.345697
     13          6           0       -3.556131   -0.559285   -0.606835
     14          6           0       -3.409218   -1.895923   -0.318582
     15          6           0       -2.202499   -2.364680    0.250377
     16          6           0       -1.169530   -1.493949    0.515616
     17          6           0       -1.282535   -0.107079    0.225751
     18          1           0        2.041997    0.218505    2.856120
     19          1           0        0.641829   -0.861438    2.682008
     20          1           0        0.400018    0.874950    2.978587
     21          1           0        1.655144   -1.453752    0.344718
     22          1           0        3.767551   -0.972979    1.259121
     23          1           0        3.561652    0.770294    1.031572
     24          1           0        4.574868    0.686740   -1.062854
     25          1           0        4.935274   -1.024706   -0.847095
     26          1           0        3.019806   -1.616327   -1.897684
     27          1           0        0.995148   -0.485219   -1.795866
     28          1           0        1.849217    1.021472   -1.424378
     29          1           0        0.387110    2.855158    0.374003
     30          1           0       -1.760849    3.687376   -0.601730
     31          1           0       -3.599596    2.090506   -1.067950
     32          1           0       -4.480543   -0.187371   -1.041770
     33          1           0       -4.216878   -2.592663   -0.523778
     34          1           0       -2.091427   -3.420269    0.482044
     35          1           0       -0.255530   -1.869296    0.956452
 ---------------------------------------------------------------------

 SCF Done:  E(UB3LYP) =  -692.169681635     A.U. after   32 cycles

 The electronic state is 2-A.
 Alpha  occ. eigenvalues --  -14.19099 -14.18516 -10.08695 -10.08283 -10.07482
 Alpha  occ. eigenvalues --  -10.07315 -10.05554 -10.05370 -10.04601 -10.04559
 Alpha  occ. eigenvalues --  -10.03588 -10.03457 -10.03424 -10.02890 -10.02761
 Alpha  occ. eigenvalues --  -10.02602 -10.02595  -0.82149  -0.79636  -0.73033
 Alpha  occ. eigenvalues --   -0.68265  -0.64515  -0.62672  -0.61335  -0.60386
 Alpha  occ. eigenvalues --   -0.58816  -0.54087  -0.49809  -0.48731  -0.47886
 Alpha  occ. eigenvalues --   -0.46336  -0.44099  -0.40045  -0.38983  -0.37917
 Alpha  occ. eigenvalues --   -0.36437  -0.35659  -0.34004  -0.33073  -0.32296
 Alpha  occ. eigenvalues --   -0.31029  -0.29737  -0.29095  -0.29078  -0.28031
 Alpha  occ. eigenvalues --   -0.26842  -0.26686  -0.25709  -0.25036  -0.24065
 Alpha  occ. eigenvalues --   -0.23743  -0.23034  -0.21776  -0.20736  -0.19854
 Alpha  occ. eigenvalues --   -0.19647  -0.15174  -0.12884  -0.11487  -0.09635
 Alpha  occ. eigenvalues --   -0.08810   0.04804
 Alpha virt. eigenvalues --    0.06564   0.08350   0.08498   0.08750   0.09563
 Alpha virt. eigenvalues --    0.09868   0.10705   0.10968   0.11387   0.11510
 Alpha virt. eigenvalues --    0.12189   0.12380   0.13323   0.13422   0.13799

  Beta  occ. eigenvalues --  -14.19090 -14.18531 -10.08682 -10.08263 -10.07464
  Beta  occ. eigenvalues --  -10.07315 -10.05543 -10.05111 -10.04664 -10.04621
  Beta  occ. eigenvalues --  -10.03554 -10.03416 -10.03347 -10.02830 -10.02507
  Beta  occ. eigenvalues --  -10.02378 -10.02348  -0.82091  -0.79547  -0.72814
  Beta  occ. eigenvalues --   -0.67936  -0.64362  -0.62371  -0.61300  -0.60204
  Beta  occ. eigenvalues --   -0.58458  -0.53962  -0.49683  -0.48352  -0.47784
  Beta  occ. eigenvalues --   -0.46160  -0.43961  -0.39993  -0.38887  -0.37649
  Beta  occ. eigenvalues --   -0.36277  -0.35532  -0.33924  -0.32995  -0.32260
  Beta  occ. eigenvalues --   -0.30959  -0.29692  -0.28993  -0.28950  -0.27891
  Beta  occ. eigenvalues --   -0.26762  -0.26582  -0.25444  -0.24717  -0.23986
  Beta  occ. eigenvalues --   -0.23620  -0.22982  -0.21728  -0.20611  -0.19756
  Beta  occ. eigenvalues --   -0.18688  -0.14026  -0.12863  -0.10922  -0.09583
  Beta  occ. eigenvalues --   -0.07363
  Beta virt. eigenvalues --    0.07020   0.08413   0.08491   0.08782   0.09490
  Beta virt. eigenvalues --    0.09560   0.09957   0.10742   0.11082   0.11305
  Beta virt. eigenvalues --    0.11606   0.12120   0.12362   0.13334   0.13653

 Mulliken charges and spin densities:
               1          2
     1  C   -0.131116  -0.083193
     2  N    0.402786  -0.011867
     3  C   -0.796838   0.520670
     4  C    0.512143  -0.382345
     5  C   -0.088075  -0.531315
     6  N   -0.114744   0.087496
     7  C   -0.242271  -0.466813
     8  C   -0.754587   0.105918
     9  C    0.124376   0.124810
    10  C   -0.117663   0.049402
    11  C   -0.215294   0.133621
    12  C    0.304588  -0.057789
    13  C   -0.283168   0.229681
    14  C   -0.398485   0.026640
    15  C   -0.276013   0.034861
    16  C   -0.356371   0.153694
    17  C    0.229424  -0.031842
    18  H    0.008079   0.123450
    19  H    0.094470   0.031659
    20  H    0.144325   0.003596
    21  H    0.037347   0.066638
    22  H   -0.141059   0.288904
    23  H    0.139071  -0.017897
    24  H    0.130577   0.018131
    25  H   -0.242619   0.393064
    26  H    0.098411   0.127611
    27  H    0.210250  -0.014010
    28  H    0.134272   0.057299
    29  H    0.100469  -0.004024
    30  H    0.122762  -0.000700
    31  H    0.085179  -0.016899
    32  H    0.091516  -0.010087
    33  H    0.104330  -0.000743
    34  H    0.078689   0.045624
    35  H    0.005238   0.006752
 Sum of Mulliken charges =  -1.00000   1.00000

 Dipole moment (field-independent basis, Debye):
    X=              0.0693    Y=              0.9873    Z=              0.9615  Tot=              1.3799
 Quadrupole moment (field-independent basis, Debye-Ang):
   XX=           -156.5503   YY=           -124.9719   ZZ=           -126.8094
   XY=              4.4032   XZ=              5.0121   YZ=              0.7365

 Summary of Natural Population Analysis:

                                       Natural Population
                Natural  -----------------------------------------------
    Atom  No    Charge         Core      Valence    Rydberg      Total
 -----------------------------------------------------------------------
      C    1   -0.17038      0.99964     2.16321    0.00753     3.17038
      N    2   -0.28873      0.99967     2.77583    0.01323     3.78873
      C    3   -0.00516      0.99957     1.99165    0.01394     3.00516
      C    4   -0.20697      0.99962     2.19860    0.00875     3.20697
      C    5   -0.09202      0.99965     2.08122    0.01115     3.09202
      N    6   -0.33541      0.99977     2.82362    0.01201     3.83541
      C    7   -0.09512      0.99961     2.08401    0.01149     3.09512
      C    8    0.12170      0.99942     1.86492    0.01395     2.87830
      C    9   -0.09365      0.99950     2.08576    0.00839     3.09365
      C   10   -0.10273      0.99957     2.09410    0.00906     3.10273
      C   11   -0.05237      0.99953     2.04441    0.00842     3.05237
      C   12   -0.03901      0.99950     2.03160    0.00792     3.03901
      C   13   -0.05309      0.99954     2.04475    0.00879     3.05309
      C   14   -0.10729      0.99957     2.09848    0.00924     3.10729
      C   15   -0.09367      0.99957     2.08482    0.00928     3.09367
      C   16   -0.06721      0.99954     2.05721    0.01047     3.06721
      C   17   -0.04330      0.99945     2.03441    0.00944     3.04330
      H   18    0.08897      0.00000     0.41005    0.00097     0.41103
      H   19    0.08037      0.00000     0.41853    0.00110     0.41963
      H   20    0.09739      0.00000     0.40195    0.00067     0.40261
      H   21    0.07725      0.00000     0.41984    0.00291     0.42275
      H   22    0.09786      0.00000     0.40065    0.00148     0.40214
      H   23    0.09988      0.00000     0.39881    0.00131     0.40012
      H   24    0.08599      0.00000     0.41278    0.00123     0.41401
      H   25    0.09251      0.00000     0.40635    0.00114     0.40749
      H   26    0.16821      0.00000     0.32946    0.00232     0.33179
      H   27    0.10508      0.00000     0.39402    0.00090     0.39492
      H   28    0.09479      0.00000     0.40397    0.00124     0.40521
      H   29    0.09646      0.00000     0.40246    0.00108     0.40354
      H   30    0.09029      0.00000     0.40869    0.00102     0.40971
      H   31    0.08679      0.00000     0.41168    0.00154     0.41321
      H   32    0.09015      0.00000     0.40907    0.00078     0.40985
      H   33    0.08980      0.00000     0.40923    0.00098     0.41020
      H   34    0.09075      0.00000     0.40834    0.00091     0.40925
      H   35    0.09187      0.00000     0.40605    0.00208     0.40813
 =======================================================================
   * Total *    0.00001     16.99272    43.81055    0.19672    60.99999

 Normal termination of Gaussian 16 at Mon Dec 14 14:24:17 2020.
