 Gaussian 16, Revision A.03,

 -----------------------------------------------------------
 # opt freq B3LYP/6-31G(d) empiricaldispersion=gd3bj scf=xqc
 -----------------------------------------------------------

 -------------------------------
 CID_112373704_JID_8222_neutraal
 -------------------------------
 Symbolic Z-matrix:
 Charge =  0 Multiplicity = 1

 SCF Done:  E(RB3LYP) =  -790.742512132     A.U. after   15 cycles
 SCF Done:  E(RB3LYP) =  -790.733256351     A.U. after   14 cycles
 SCF Done:  E(RB3LYP) =  -790.746594700     A.U. after   12 cycles
 SCF Done:  E(RB3LYP) =  -790.746971317     A.U. after   12 cycles
 SCF Done:  E(RB3LYP) =  -790.747788979     A.U. after   12 cycles
 SCF Done:  E(RB3LYP) =  -790.749006497     A.U. after   12 cycles
 SCF Done:  E(RB3LYP) =  -790.742009601     A.U. after   13 cycles
 SCF Done:  E(RB3LYP) =  -790.745940580     A.U. after   13 cycles
 SCF Done:  E(RB3LYP) =  -790.749398101     A.U. after   10 cycles
 SCF Done:  E(RB3LYP) =  -790.749746679     A.U. after   11 cycles
 SCF Done:  E(RB3LYP) =  -790.750645022     A.U. after    9 cycles
 SCF Done:  E(RB3LYP) =  -790.750645378     A.U. after    9 cycles
 SCF Done:  E(RB3LYP) =  -790.750645252     A.U. after    9 cycles
 SCF Done:  E(RB3LYP) =  -790.750645399     A.U. after    8 cycles
 Optimization completed on the basis of negligible forces.
    -- Stationary point found.
 Normal termination of Gaussian 16 at Fri Dec 11 20:27:03 2020.

 --------------------------------------------------------------------
 #N Geom=AllCheck Guess=TCheck SCRF=Check GenChk RB3LYP/6-31G(d) Freq
 --------------------------------------------------------------------

 Structure from the checkpoint file:  "JID_8222.chk"
 -------------------------------
 CID_112373704_JID_8222_neutraal
 -------------------------------
 Charge =  0 Multiplicity = 1

 SCF Done:  E(RB3LYP) =  -790.750645399     A.U. after    1 cycles

  Exact polarizability: 162.127 -10.523 173.169 -19.517  -4.875 155.330
 Approx polarizability: 229.258 -28.231 275.706 -39.241  -8.872 238.427

                      1                      2                      3
                      A                      A                      A
 Frequencies --     33.1670                36.8799                51.6910
 Red. masses --      4.9571                 1.0756                 3.9927
 Frc consts  --      0.0032                 0.0009                 0.0063
 IR Inten    --      0.7509                 0.1616                 1.6162

                      4                      5                      6
                      A                      A                      A
 Frequencies --     63.8403                69.3462                87.7088
 Red. masses --      3.9387                 4.6749                 2.7924
 Frc consts  --      0.0095                 0.0132                 0.0127
 IR Inten    --      1.3611                 3.4087                 1.2146

                      7                      8                      9
                      A                      A                      A
 Frequencies --     90.9878               108.2922               124.4173
 Red. masses --      2.8248                 1.4313                 3.9273
 Frc consts  --      0.0138                 0.0099                 0.0358
 IR Inten    --      0.2400                 1.2531                 1.5053

                     10                     11                     12
                      A                      A                      A
 Frequencies --    176.5721               182.0948               201.8321
 Red. masses --      4.6061                 3.6577                 3.3329
 Frc consts  --      0.0846                 0.0715                 0.0800
 IR Inten    --      0.5743                 8.2021                 4.1675

                     13                     14                     15
                      A                      A                      A
 Frequencies --    218.1817               238.5142               244.0393
 Red. masses --      2.8655                 2.4327                 2.8847
 Frc consts  --      0.0804                 0.0815                 0.1012
 IR Inten    --      1.1487                 3.2712                 2.5844

                     16                     17                     18
                      A                      A                      A
 Frequencies --    259.7659               272.2768               300.0524
 Red. masses --      1.2064                 2.4749                 2.2062
 Frc consts  --      0.0480                 0.1081                 0.1170
 IR Inten    --      0.5601                 0.1720                 2.4164

                     19                     20                     21
                      A                      A                      A
 Frequencies --    333.8129               345.9298               374.5631
 Red. masses --      1.9950                 2.8978                 1.3843
 Frc consts  --      0.1310                 0.2043                 0.1144
 IR Inten    --      1.4540                 7.7356                38.8998

                     22                     23                     24
                      A                      A                      A
 Frequencies --    408.3982               432.7088               463.1643
 Red. masses --      2.2440                 2.3330                 2.3636
 Frc consts  --      0.2205                 0.2574                 0.2987
 IR Inten    --     14.5811                 3.8067                 0.1391

                     25                     26                     27
                      A                      A                      A
 Frequencies --    499.6346               518.1807               524.0830
 Red. masses --      2.8149                 4.2997                 4.9162
 Frc consts  --      0.4140                 0.6802                 0.7956
 IR Inten    --      5.4877                 2.5081                 0.5643

                     28                     29                     30
                      A                      A                      A
 Frequencies --    533.1021               540.8745               555.9455
 Red. masses --      3.1305                 2.7832                 2.8609
 Frc consts  --      0.5242                 0.4797                 0.5210
 IR Inten    --      2.7147                 9.4271                12.0999

                     31                     32                     33
                      A                      A                      A
 Frequencies --    574.4207               611.9644               646.0324
 Red. masses --      3.9542                 3.7097                 1.8531
 Frc consts  --      0.7687                 0.8185                 0.4557
 IR Inten    --      3.2324                 3.4701                29.2840

                     34                     35                     36
                      A                      A                      A
 Frequencies --    725.0759               745.1392               775.2734
 Red. masses --      2.4698                 2.1408                 2.5954
 Frc consts  --      0.7650                 0.7003                 0.9191
 IR Inten    --     23.5911                32.0803                 4.2502

                     37                     38                     39
                      A                      A                      A
 Frequencies --    829.4112               869.3800               872.9746
 Red. masses --      1.9825                 1.4999                 1.6748
 Frc consts  --      0.8035                 0.6679                 0.7520
 IR Inten    --      8.7398                 5.5103                24.8584

                     40                     41                     42
                      A                      A                      A
 Frequencies --    903.7748               908.7480               916.4946
 Red. masses --      1.4546                 1.4489                 2.0830
 Frc consts  --      0.7000                 0.7050                 1.0309
 IR Inten    --      0.1895                 3.5506                 7.1185

                     43                     44                     45
                      A                      A                      A
 Frequencies --    949.9490               962.2455               983.0689
 Red. masses --      2.2173                 2.0132                 2.1821
 Frc consts  --      1.1789                 1.0983                 1.2425
 IR Inten    --      5.5962                 6.2845                 3.5839

                     46                     47                     48
                      A                      A                      A
 Frequencies --    987.0262              1004.8598              1021.0719
 Red. masses --      1.9437                 1.7825                 5.7521
 Frc consts  --      1.1157                 1.0604                 3.5334
 IR Inten    --      2.2131                 2.0119                 0.8715

                     49                     50                     51
                      A                      A                      A
 Frequencies --   1032.6034              1047.8350              1054.8386
 Red. masses --      2.0975                 1.6112                 1.6743
 Frc consts  --      1.3177                 1.0423                 1.0976
 IR Inten    --      2.4044                 1.2710                 0.6207

                     52                     53                     54
                      A                      A                      A
 Frequencies --   1056.8249              1074.9455              1081.5410
 Red. masses --      2.3840                 1.5373                 1.6375
 Frc consts  --      1.5688                 1.0466                 1.1286
 IR Inten    --      3.5981                11.8172                23.5421

                     55                     56                     57
                      A                      A                      A
 Frequencies --   1086.5415              1122.7462              1139.9293
 Red. masses --      3.2659                 1.8512                 2.2960
 Frc consts  --      2.2717                 1.3749                 1.7578
 IR Inten    --     35.6778                14.4801                25.0184

                     58                     59                     60
                      A                      A                      A
 Frequencies --   1176.9473              1196.7859              1200.5942
 Red. masses --      1.2224                 1.5958                 1.8471
 Frc consts  --      0.9976                 1.3466                 1.5687
 IR Inten    --     23.9025                13.0789                19.1419

                     61                     62                     63
                      A                      A                      A
 Frequencies --   1205.7415              1233.8460              1238.6099
 Red. masses --      1.3757                 1.2691                 1.2592
 Frc consts  --      1.1783                 1.1383                 1.1382
 IR Inten    --      0.0527                22.0172                21.4945

                     64                     65                     66
                      A                      A                      A
 Frequencies --   1272.8582              1325.3362              1329.9265
 Red. masses --      1.3625                 2.4782                 1.7117
 Frc consts  --      1.3006                 2.5647                 1.7838
 IR Inten    --      6.5648                 0.6866                15.0645

                     67                     68                     69
                      A                      A                      A
 Frequencies --   1341.7565              1343.4046              1363.0291
 Red. masses --      1.3224                 1.4546                 3.5937
 Frc consts  --      1.4027                 1.5467                 3.9337
 IR Inten    --      3.4727                34.9006                 0.8698

                     70                     71                     72
                      A                      A                      A
 Frequencies --   1374.8688              1376.5686              1398.7252
 Red. masses --      1.3402                 1.6512                 1.2133
 Frc consts  --      1.4926                 1.8435                 1.3986
 IR Inten    --      1.2563                 4.0284                 5.0132

                     73                     74                     75
                      A                      A                      A
 Frequencies --   1420.6513              1422.3675              1437.6926
 Red. masses --      2.1317                 1.3931                 1.2656
 Frc consts  --      2.5349                 1.6606                 1.5413
 IR Inten    --     66.5068                27.6833                12.8737

                     76                     77                     78
                      A                      A                      A
 Frequencies --   1440.2825              1443.9164              1447.6205
 Red. masses --      1.2582                 1.2804                 1.2743
 Frc consts  --      1.5378                 1.5728                 1.5734
 IR Inten    --     22.0825                17.6949                13.8231

                     79                     80                     81
                      A                      A                      A
 Frequencies --   1481.8261              1484.1031              1496.5055
 Red. masses --      2.0552                 1.3009                 2.1311
 Frc consts  --      2.6589                 1.6881                 2.8119
 IR Inten    --      1.1460                32.8266                 1.3411

                     82                     83                     84
                      A                      A                      A
 Frequencies --   1500.0058              1516.4792              1517.6671
 Red. masses --      1.2114                 1.0501                 1.0489
 Frc consts  --      1.6060                 1.4228                 1.4235
 IR Inten    --      4.3880                12.9534                 1.7820

                     85                     86                     87
                      A                      A                      A
 Frequencies --   1520.3893              1524.3966              1525.1886
 Red. masses --      1.0962                 1.0698                 1.1097
 Frc consts  --      1.4930                 1.4647                 1.5209
 IR Inten    --      3.8647                 8.4085                10.8025

                     88                     89                     90
                      A                      A                      A
 Frequencies --   1527.1076              1532.3747              1539.6421
 Red. masses --      1.0764                 1.2613                 1.2958
 Frc consts  --      1.4790                 1.7450                 1.8099
 IR Inten    --      5.2824                13.6586                18.5909

                     91                     92                     93
                      A                      A                      A
 Frequencies --   1544.2105              1658.0694              1662.3754
 Red. masses --      1.0871                 5.4229                 5.5608
 Frc consts  --      1.5274                 8.7839                 9.0541
 IR Inten    --      0.8209                20.0595                28.9376

                     94                     95                     96
                      A                      A                      A
 Frequencies --   1774.3088              3014.7572              3041.0167
 Red. masses --      7.5649                 1.0712                 1.0564
 Frc consts  --     14.0317                 5.7360                 5.7559
 IR Inten    --    336.7352                45.0744                 8.6379

                     97                     98                     99
                      A                      A                      A
 Frequencies --   3044.9585              3047.1479              3047.5509
 Red. masses --      1.0391                 1.0377                 1.0445
 Frc consts  --      5.6762                 5.6768                 5.7154
 IR Inten    --     25.0283                25.1484                33.4529

                    100                    101                    102
                      A                      A                      A
 Frequencies --   3060.8928              3086.8182              3091.1207
 Red. masses --      1.0626                 1.1023                 1.0642
 Frc consts  --      5.8655                 6.1883                 5.9909
 IR Inten    --     27.4476                25.6754                15.9145

                    103                    104                    105
                      A                      A                      A
 Frequencies --   3101.6428              3103.9908              3107.3482
 Red. masses --      1.0975                 1.1008                 1.0941
 Frc consts  --      6.2207                 6.2487                 6.2243
 IR Inten    --     18.8334                12.7073                51.9525

                    106                    107                    108
                      A                      A                      A
 Frequencies --   3111.8097              3116.1887              3127.4170
 Red. masses --      1.1023                 1.0935                 1.1026
 Frc consts  --      6.2891                 6.2562                 6.3536
 IR Inten    --      8.3805                20.7466                13.3438

                    109                    110                    111
                      A                      A                      A
 Frequencies --   3130.7290              3145.3006              3148.3141
 Red. masses --      1.1018                 1.1028                 1.0965
 Frc consts  --      6.3630                 6.4277                 6.4034
 IR Inten    --     14.5922                17.8877                10.3520

                    112                    113                    114
                      A                      A                      A
 Frequencies --   3154.2863              3157.3934              3173.7328
 Red. masses --      1.0867                 1.0895                 1.0899
 Frc consts  --      6.3701                 6.3992                 6.4679
 IR Inten    --     10.8174                12.3300                18.1606

                    115                    116                    117
                      A                      A                      A
 Frequencies --   3179.9331              3554.0273              3724.6199
 Red. masses --      1.0903                 1.0747                 1.0660
 Frc consts  --      6.4961                 7.9982                 8.7132
 IR Inten    --      7.3135                11.4370               103.4287

 - Thermochemistry -
 -------------------
 Temperature   298.150 Kelvin.  Pressure   1.00000 Atm.
 Atom     1 has atomic number  6 and mass  12.00000

 Molecular mass:   249.17288 amu.
 Principal axes and moments of inertia in atomic units:
                           1         2         3
     Eigenvalues --  3814.934394903.090355720.29528
           X            0.99925   0.03654  -0.01298
           Y           -0.03693   0.99882  -0.03169
           Z            0.01181   0.03214   0.99941
 This molecule is an asymmetric top.
 Rotational symmetry number  1.
 Warning -- assumption of classical behavior for rotation
           may cause significant error
 Rotational temperatures (Kelvin)      0.02270     0.01767     0.01514
 Rotational constants (GHZ):           0.47307     0.36808     0.31550
 Zero-point vibrational energy     948291.4 (Joules/Mol)
                                  226.64709 (Kcal/Mol)
 Warning -- explicit consideration of  32 degrees of freedom as
           vibrations may cause significant error
 Vibrational temperatures:     47.72    53.06    74.37    91.85    99.77
          (Kelvin)            126.19   130.91   155.81   179.01   254.05
                              261.99   290.39   313.91   343.17   351.12
                              373.75   391.75   431.71   480.28   497.72
                              538.91   587.59   622.57   666.39   718.86
                              745.55   754.04   767.02   778.20   799.88
                              826.46   880.48   929.50  1043.22  1072.09
                             1115.45  1193.34  1250.84  1256.02  1300.33
                             1307.49  1318.63  1366.76  1384.46  1414.42
                             1420.11  1445.77  1469.09  1485.69  1507.60
                             1517.68  1520.54  1546.61  1556.10  1563.29
                             1615.38  1640.10  1693.36  1721.91  1727.39
                             1734.79  1775.23  1782.08  1831.36  1906.86
                             1913.47  1930.49  1932.86  1961.09  1978.13
                             1980.58  2012.45  2044.00  2046.47  2068.52
                             2072.25  2077.47  2082.80  2132.02  2135.29
                             2153.14  2158.17  2181.88  2183.58  2187.50
                             2193.27  2194.41  2197.17  2204.75  2215.20
                             2221.77  2385.59  2391.79  2552.83  4337.56
                             4375.34  4381.02  4384.17  4384.75  4403.94
                             4441.24  4447.43  4462.57  4465.95  4470.78
                             4477.20  4483.50  4499.66  4504.42  4525.39
                             4529.72  4538.31  4542.78  4566.29  4575.21
                             5113.45  5358.90

 Zero-point correction=                           0.361185 (Hartree/Particle)
 Thermal correction to Energy=                    0.380729
 Thermal correction to Enthalpy=                  0.381674
 Thermal correction to Gibbs Free Energy=         0.312812
 Sum of electronic and zero-point Energies=           -790.389460
 Sum of electronic and thermal Energies=              -790.369916
 Sum of electronic and thermal Enthalpies=            -790.368972
 Sum of electronic and thermal Free Energies=         -790.437834

                     E (Thermal)             CV                S
                      KCal/Mol        Cal/Mol-Kelvin    Cal/Mol-Kelvin
 Total                  238.911             73.148            144.932
 Electronic               0.000              0.000              0.000
 Translational            0.889              2.981             42.439
 Rotational               0.889              2.981             33.036
 Vibrational            237.134             67.187             69.456
 Vibration     1          0.594              1.983              5.630
 Vibration     2          0.594              1.982              5.420
 Vibration     3          0.596              1.977              4.752
 Vibration     4          0.597              1.972              4.335
 Vibration     5          0.598              1.969              4.172
 Vibration     6          0.601              1.958              3.711
 Vibration     7          0.602              1.956              3.639
 Vibration     8          0.606              1.943              3.299
 Vibration     9          0.610              1.929              3.031
 Vibration    10          0.628              1.871              2.364
 Vibration    11          0.630              1.864              2.307
 Vibration    12          0.639              1.837              2.116
 Vibration    13          0.646              1.813              1.974
 Vibration    14          0.656              1.782              1.814
 Vibration    15          0.659              1.773              1.773
 Vibration    16          0.668              1.746              1.663
 Vibration    17          0.675              1.724              1.582
 Vibration    18          0.693              1.674              1.417
 Vibration    19          0.715              1.608              1.242
 Vibration    20          0.724              1.584              1.185
 Vibration    21          0.746              1.524              1.061
 Vibration    22          0.773              1.452              0.932
 Vibration    23          0.794              1.399              0.850
 Vibration    24          0.821              1.332              0.757
 Vibration    25          0.855              1.251              0.659
 Vibration    26          0.873              1.210              0.614
 Vibration    27          0.879              1.197              0.601
 Vibration    28          0.888              1.177              0.580
 Vibration    29          0.896              1.160              0.563
 Vibration    30          0.911              1.127              0.532
 Vibration    31          0.931              1.087              0.496
 Vibration    32          0.971              1.007              0.430

 Optimization completed on the basis of negligible forces.
    -- Stationary point found.
 Normal termination of Gaussian 16 at Fri Dec 11 20:51:10 2020.

 ----------------------------------------------------------------------
 # B3LYP/6-311++G(d,p) empiricaldispersion=gd3bj scf=xqc pop=npa geom=c
 heck
 ----------------------------------------------------------------------

 ---------------------------------------
 CID_112373704_JID_8222_Energie_neutraal
 ---------------------------------------
 Structure from the checkpoint file:  "JID_8222.chk"
 Charge =  0 Multiplicity = 1

 SCF Done:  E(RB3LYP) =  -790.980277218     A.U. after   15 cycles
 Normal termination of Gaussian 16 at Fri Dec 11 21:02:09 2020.

 ----------------------------------------------------------------------
 # B3LYP/6-311++G(d,p) empiricaldispersion=gd3bj scf=xqc pop=npa geom=c
 heck
 ----------------------------------------------------------------------

 -------------------------------------
 CID_112373704_JID_8222_Energie_kation
 -------------------------------------
 Structure from the checkpoint file:  "JID_8222.chk"
 Charge =  1 Multiplicity = 2

 SCF Done:  E(UB3LYP) =  -790.668761140     A.U. after   33 cycles
 SCF Done:  E(UB3LYP) =  -790.670843482     a.u. after   15 cycles
 Normal termination of Gaussian 16 at Sat Dec 12 03:24:46 2020.
 Gaussian 16:  ES64L-G16RevA.03 25-Dec-2016

 ----------------------------------------------------------------------
 # B3LYP/6-311++G(d,p) empiricaldispersion=gd3bj scf=xqc pop=npa geom=c
 heck
 ----------------------------------------------------------------------

 ------------------------------------
 CID_112373704_JID_8222_Energie_anion
 ------------------------------------
 Structure from the checkpoint file:  "JID_8222.chk"
 Charge = -1 Multiplicity = 2

                         Standard orientation:
 ---------------------------------------------------------------------
 Center     Atomic      Atomic             Coordinates (Angstroms)
 Number     Number       Type             X           Y           Z
 ---------------------------------------------------------------------
      1          6           0       -2.710215    2.429284   -0.705184
      2          6           0       -2.250096    0.994122   -0.620713
      3          6           0       -2.739493    0.128241    0.362233
      4          6           0       -2.286591   -1.192384    0.468191
      5          6           0       -1.292545   -1.633945   -0.411430
      6          6           0       -0.769930   -0.788441   -1.393889
      7          6           0       -1.278374    0.511173   -1.506361
      8          6           0        0.423741   -1.194746   -2.222596
      9          6           0        1.722808   -0.569202   -1.661007
     10          6           0        2.232067   -1.281850   -0.410416
     11          8           0        2.804740   -2.361468   -0.518238
     12          7           0        2.110668   -0.678169    0.819579
     13          6           0        1.089668    0.260057    1.309674
     14          6           0        0.434716   -0.332783    2.560499
     15          6           0        1.663073    1.660257    1.589407
     16          6           0        2.043307    2.431451    0.328402
     17          8           0        0.915866    2.768230   -0.479054
     18          6           0       -2.859365   -2.117255    1.514008
     19          1           0       -3.531578    2.627943   -0.010373
     20          1           0       -1.886345    3.111876   -0.462161
     21          1           0       -3.051649    2.680220   -1.716029
     22          1           0       -3.491979    0.489726    1.059914
     23          1           0       -0.899284   -2.643334   -0.315259
     24          1           0       -0.891710    1.168958   -2.284002
     25          1           0        0.538949   -2.283010   -2.245723
     26          1           0        0.296692   -0.854540   -3.256809
     27          1           0        2.522933   -0.694681   -2.396792
     28          1           0        1.580318    0.502852   -1.511814
     29          1           0        2.527624   -1.261806    1.538150
     30          1           0        0.313619    0.332899    0.547813
     31          1           0        1.161525   -0.419294    3.378786
     32          1           0       -0.384019    0.307320    2.902589
     33          1           0        0.028662   -1.325292    2.347228
     34          1           0        0.914518    2.244747    2.139157
     35          1           0        2.544443    1.560291    2.236788
     36          1           0        2.506147    3.386302    0.594490
     37          1           0        2.784478    1.856357   -0.247477
     38          1           0        0.388131    1.966133   -0.621490
     39          1           0       -3.043697   -1.589974    2.456197
     40          1           0       -3.817872   -2.538852    1.184859
     41          1           0       -2.186061   -2.955629    1.718329
 ---------------------------------------------------------------------

 SCF Done:  E(UB3LYP) =  -790.970411667     A.U. after   33 cycles
 SCF Done:  E(UB3LYP) =  -790.970411666     a.u. after    1 cycles

 The electronic state is 2-A.
 Alpha  occ. eigenvalues --  -19.02852 -18.99129 -14.23743 -10.17760 -10.12409
 Alpha  occ. eigenvalues --  -10.12052 -10.08633 -10.08600 -10.08376 -10.08006
 Alpha  occ. eigenvalues --  -10.07919 -10.07653 -10.07056 -10.07048 -10.06838
 Alpha  occ. eigenvalues --  -10.06787 -10.06548 -10.06500  -0.94222  -0.92932
 Alpha  occ. eigenvalues --   -0.82717  -0.76722  -0.70850  -0.69360  -0.68549
 Alpha  occ. eigenvalues --   -0.64980  -0.63341  -0.59655  -0.58512  -0.56403
 Alpha  occ. eigenvalues --   -0.55333  -0.50944  -0.49057  -0.47882  -0.46333
 Alpha  occ. eigenvalues --   -0.42039  -0.40887  -0.40067  -0.38544  -0.37741
 Alpha  occ. eigenvalues --   -0.37112  -0.35890  -0.35537  -0.33478  -0.33011
 Alpha  occ. eigenvalues --   -0.32591  -0.32119  -0.31632  -0.30901  -0.30640
 Alpha  occ. eigenvalues --   -0.30473  -0.30043  -0.29315  -0.28438  -0.27898
 Alpha  occ. eigenvalues --   -0.27263  -0.26877  -0.26429  -0.26072  -0.23974
 Alpha  occ. eigenvalues --   -0.23772  -0.23404  -0.23095  -0.18675  -0.16771
 Alpha  occ. eigenvalues --   -0.15581  -0.14729  -0.14572   0.04206
 Alpha virt. eigenvalues --    0.06404   0.06696   0.07123   0.07418   0.08024
 Alpha virt. eigenvalues --    0.08508   0.08831   0.09304   0.09669   0.09934
 Alpha virt. eigenvalues --    0.10501   0.11078   0.11206   0.11699   0.11816

  Beta  occ. eigenvalues --  -19.02847 -18.99122 -14.23732 -10.17758 -10.12401
  Beta  occ. eigenvalues --  -10.12050 -10.08638 -10.08584 -10.08373 -10.07935
  Beta  occ. eigenvalues --  -10.07802 -10.07635 -10.07042 -10.07034 -10.06859
  Beta  occ. eigenvalues --  -10.06757 -10.06511 -10.06426  -0.94210  -0.92919
  Beta  occ. eigenvalues --   -0.82699  -0.76600  -0.70771  -0.69330  -0.68435
  Beta  occ. eigenvalues --   -0.64901  -0.63308  -0.59594  -0.58431  -0.56349
  Beta  occ. eigenvalues --   -0.55290  -0.50904  -0.48965  -0.47799  -0.46249
  Beta  occ. eigenvalues --   -0.42014  -0.40861  -0.40005  -0.38498  -0.37709
  Beta  occ. eigenvalues --   -0.37076  -0.35820  -0.35500  -0.33403  -0.32891
  Beta  occ. eigenvalues --   -0.32550  -0.32066  -0.31582  -0.30854  -0.30586
  Beta  occ. eigenvalues --   -0.30429  -0.30005  -0.29274  -0.28404  -0.27855
  Beta  occ. eigenvalues --   -0.27207  -0.26825  -0.26397  -0.26023  -0.23923
  Beta  occ. eigenvalues --   -0.23734  -0.23240  -0.23039  -0.18657  -0.16752
  Beta  occ. eigenvalues --   -0.15549  -0.14532  -0.14068
  Beta virt. eigenvalues --    0.06397   0.07091   0.07254   0.07601   0.07827
  Beta virt. eigenvalues --    0.08304   0.08794   0.09279   0.09544   0.09885
  Beta virt. eigenvalues --    0.10135   0.10627   0.11280   0.11483   0.11978

 Mulliken charges and spin densities:
               1          2
     1  C    0.307962  -0.961842
     2  C   -0.621556   0.997907
     3  C   -0.137275  -0.311042
     4  C    0.162670   0.407831
     5  C   -0.799892   0.184223
     6  C   -0.146585   0.447460
     7  C   -0.704184   0.329511
     8  C    0.309084  -0.846692
     9  C   -0.107294   0.123562
    10  C   -0.722853   0.360517
    11  O   -0.286517  -0.007752
    12  N   -0.162491   0.059134
    13  C   -0.505406   0.962895
    14  C    0.464798  -1.367103
    15  C   -0.322385   0.199566
    16  C   -0.404795  -0.124734
    17  O   -0.248758   0.007821
    18  C    1.187570  -1.739175
    19  H   -0.097460   0.233683
    20  H    0.169885   0.012634
    21  H   -0.089064   0.231269
    22  H   -0.313940   0.494855
    23  H    0.055279   0.137451
    24  H   -0.088516   0.296683
    25  H    0.207976  -0.032206
    26  H   -0.112644   0.283837
    27  H   -0.099650   0.329814
    28  H    0.297475  -0.185513
    29  H    0.198573   0.102977
    30  H    2.302228  -2.246048
    31  H   -0.441566   0.596578
    32  H   -0.252872   0.396610
    33  H    0.014960   0.174893
    34  H   -0.060506   0.251391
    35  H   -0.140991   0.278430
    36  H   -0.100346   0.281672
    37  H    0.055778   0.087975
    38  H    0.354231  -0.025889
    39  H   -0.223055   0.383917
    40  H    0.119490   0.035988
    41  H   -0.017356   0.156912
 Sum of Mulliken charges =  -1.00000   1.00000

 Dipole moment (field-independent basis, Debye):
    X=              0.0662    Y=             -0.0015    Z=             -2.4994  Tot=              2.5003
 Quadrupole moment (field-independent basis, Debye-Ang):
   XX=           -165.0791   YY=           -159.0312   ZZ=           -166.7935
   XY=             10.0064   XZ=              5.5994   YZ=              1.0595

 Summary of Natural Population Analysis:

                                       Natural Population
                Natural  -----------------------------------------------
    Atom  No    Charge         Core      Valence    Rydberg      Total
 -----------------------------------------------------------------------
      C    1   -0.29405      0.99963     2.28943    0.00499     3.29405
      C    2   -0.00888      0.99951     1.99963    0.00974     3.00888
      C    3   -0.10447      0.99946     2.09544    0.00956     3.10447
      C    4    0.01048      0.99952     1.98108    0.00893     2.98952
      C    5   -0.11711      0.99946     2.10925    0.00841     3.11711
      C    6   -0.00040      0.99950     1.99085    0.01005     3.00040
      C    7   -0.12257      0.99946     2.11296    0.01015     3.12257
      C    8   -0.19367      0.99959     2.18448    0.00961     3.19367
      C    9   -0.22804      0.99957     2.22000    0.00847     3.22804
      C   10    0.34850      0.99966     1.62996    0.02187     2.65150
      O   11   -0.32837      0.99988     3.32264    0.00585     4.32837
      N   12   -0.32167      0.99966     2.81147    0.01055     3.82167
      C   13   -0.02961      0.99956     2.01717    0.01288     3.02961
      C   14   -0.28283      0.99964     2.27685    0.00633     3.28283
      C   15   -0.20357      0.99960     2.19526    0.00871     3.20357
      C   16   -0.01094      0.99958     1.99992    0.01143     3.01094
      O   17   -0.37564      0.99990     3.36960    0.00615     4.37564
      C   18   -0.29475      0.99963     2.28902    0.00610     3.29475
      H   19    0.10138      0.00000     0.39776    0.00086     0.39862
      H   20    0.11012      0.00000     0.38875    0.00113     0.38988
      H   21    0.10283      0.00000     0.39613    0.00104     0.39717
      H   22    0.09933      0.00000     0.39965    0.00102     0.40067
      H   23    0.10023      0.00000     0.39876    0.00102     0.39977
      H   24    0.10168      0.00000     0.39696    0.00135     0.39832
      H   25    0.10572      0.00000     0.39301    0.00127     0.39428
      H   26    0.10455      0.00000     0.39421    0.00123     0.39545
      H   27    0.11301      0.00000     0.38592    0.00106     0.38699
      H   28    0.10013      0.00000     0.39762    0.00225     0.39987
      H   29    0.19137      0.00000     0.30631    0.00232     0.30863
      H   30    0.10552      0.00000     0.38873    0.00575     0.39448
      H   31    0.09620      0.00000     0.40247    0.00134     0.40380
      H   32    0.10822      0.00000     0.39011    0.00167     0.39178
      H   33    0.10427      0.00000     0.39424    0.00149     0.39573
      H   34    0.10321      0.00000     0.39557    0.00122     0.39679
      H   35    0.10138      0.00000     0.39734    0.00128     0.39862
      H   36    0.08677      0.00000     0.41215    0.00107     0.41323
      H   37    0.07646      0.00000     0.42203    0.00151     0.42354
      H   38    0.23371      0.00000     0.26241    0.00388     0.26629
      H   39    0.10772      0.00000     0.39074    0.00154     0.39228
      H   40    0.10213      0.00000     0.39710    0.00076     0.39787
      H   41    0.10162      0.00000     0.39753    0.00085     0.39838
 =======================================================================
   * Total *   -0.00000     17.99280    49.80050    0.20670    68.00000

 Normal termination of Gaussian 16 at Sat Dec 12 03:56:01 2020.
