 Gaussian 16, Revision A.03,

 -----------------------------------------------------------
 # opt freq B3LYP/6-31G(d) empiricaldispersion=gd3bj scf=xqc
 -----------------------------------------------------------

 -------------------------------
 CID_146517956_JID_6674_neutraal
 -------------------------------
 Symbolic Z-matrix:
 Charge =  0 Multiplicity = 1

 SCF Done:  E(RB3LYP) =  -731.743755518     A.U. after   15 cycles
 SCF Done:  E(RB3LYP) =  -731.748692414     A.U. after   13 cycles
 SCF Done:  E(RB3LYP) =  -731.745942646     A.U. after   14 cycles
 SCF Done:  E(RB3LYP) =  -731.748051958     A.U. after   13 cycles
 SCF Done:  E(RB3LYP) =  -731.749607746     A.U. after    9 cycles
 SCF Done:  E(RB3LYP) =  -731.750251497     A.U. after   12 cycles
 SCF Done:  E(RB3LYP) =  -731.750029716     A.U. after   13 cycles
 SCF Done:  E(RB3LYP) =  -731.750590175     A.U. after   12 cycles
 SCF Done:  E(RB3LYP) =  -731.750762604     A.U. after   11 cycles
 SCF Done:  E(RB3LYP) =  -731.750849084     A.U. after   12 cycles
 SCF Done:  E(RB3LYP) =  -731.751583451     A.U. after    9 cycles
 SCF Done:  E(RB3LYP) =  -731.751587714     A.U. after    9 cycles
 SCF Done:  E(RB3LYP) =  -731.751590281     A.U. after    9 cycles
 SCF Done:  E(RB3LYP) =  -731.751591066     A.U. after    8 cycles
 SCF Done:  E(RB3LYP) =  -731.751591142     A.U. after    7 cycles
 Optimization completed.
    -- Stationary point found.
 Normal termination of Gaussian 16 at Fri Dec 11 00:52:16 2020.

 --------------------------------------------------------------------
 #N Geom=AllCheck Guess=TCheck SCRF=Check GenChk RB3LYP/6-31G(d) Freq
 --------------------------------------------------------------------

 Structure from the checkpoint file:  "JID_6674.chk"
 -------------------------------
 CID_146517956_JID_6674_neutraal
 -------------------------------
 Charge =  0 Multiplicity = 1

 SCF Done:  E(RB3LYP) =  -731.751591142     A.U. after    1 cycles

  Exact polarizability: 165.525   0.497 134.747  -1.634  -5.827 130.972
 Approx polarizability: 209.949  -1.735 185.262  -6.612  -9.039 206.683

                      1                      2                      3
                      A                      A                      A
 Frequencies --     31.9446                37.1063                46.2473
 Red. masses --      2.9310                 3.1266                 3.3605
 Frc consts  --      0.0018                 0.0025                 0.0042
 IR Inten    --      0.2170                 0.7996                 1.1344

                      4                      5                      6
                      A                      A                      A
 Frequencies --     74.1689                80.6175                83.3510
 Red. masses --      2.8607                 2.4793                 1.6285
 Frc consts  --      0.0093                 0.0095                 0.0067
 IR Inten    --      0.5010                 1.3080                 0.2421

                      7                      8                      9
                      A                      A                      A
 Frequencies --     98.4535               112.6611               118.7957
 Red. masses --      3.0072                 2.6172                 2.1438
 Frc consts  --      0.0172                 0.0196                 0.0178
 IR Inten    --      2.8596                11.1405                 1.9981

                     10                     11                     12
                      A                      A                      A
 Frequencies --    138.5192               154.1602               193.0613
 Red. masses --      2.8058                 4.1274                 2.2706
 Frc consts  --      0.0317                 0.0578                 0.0499
 IR Inten    --      8.5599                 0.9894                 0.9964

                     13                     14                     15
                      A                      A                      A
 Frequencies --    199.1596               223.3740               224.4269
 Red. masses --      3.9515                 1.2399                 1.1960
 Frc consts  --      0.0923                 0.0364                 0.0355
 IR Inten    --      0.5460                 0.0828                 0.3414

                     16                     17                     18
                      A                      A                      A
 Frequencies --    231.3716               252.9246               260.5991
 Red. masses --      2.5198                 1.3702                 1.4328
 Frc consts  --      0.0795                 0.0516                 0.0573
 IR Inten    --      1.9985                 0.7237                 1.5625

                     19                     20                     21
                      A                      A                      A
 Frequencies --    292.1900               321.5526               341.0735
 Red. masses --      2.6673                 2.4473                 2.5787
 Frc consts  --      0.1342                 0.1491                 0.1767
 IR Inten    --      2.7944                 1.4706                 0.7829

                     22                     23                     24
                      A                      A                      A
 Frequencies --    376.4987               384.1412               420.2330
 Red. masses --      2.0918                 2.0836                 2.2340
 Frc consts  --      0.1747                 0.1812                 0.2324
 IR Inten    --      0.6939                 0.4915                 0.6212

                     25                     26                     27
                      A                      A                      A
 Frequencies --    422.1783               460.1422               505.2316
 Red. masses --      2.5767                 3.8947                 3.1869
 Frc consts  --      0.2706                 0.4859                 0.4793
 IR Inten    --      1.0551                 6.9478                 4.9883

                     28                     29                     30
                      A                      A                      A
 Frequencies --    520.4311               531.9559               618.9607
 Red. masses --      2.9615                 3.1946                 3.8062
 Frc consts  --      0.4726                 0.5326                 0.8591
 IR Inten    --     10.2846                 9.9525                21.3418

                     31                     32                     33
                      A                      A                      A
 Frequencies --    660.8292               712.2918               753.0233
 Red. masses --      3.1407                 4.9734                 3.7328
 Frc consts  --      0.8081                 1.4867                 1.2471
 IR Inten    --      7.1627                 9.9175                 2.4817

                     34                     35                     36
                      A                      A                      A
 Frequencies --    800.9801               816.3230               846.4624
 Red. masses --      2.6125                 1.2913                 2.5856
 Frc consts  --      0.9875                 0.5070                 1.0915
 IR Inten    --      1.6760                68.7563                 1.0819

                     37                     38                     39
                      A                      A                      A
 Frequencies --    862.3935               914.8698               937.9627
 Red. masses --      2.0596                 1.9487                 1.2232
 Frc consts  --      0.9025                 0.9610                 0.6340
 IR Inten    --      3.0956                 3.2469                 0.4441

                     40                     41                     42
                      A                      A                      A
 Frequencies --    955.0307               967.8822               979.5152
 Red. masses --      1.8350                 1.8103                 1.6006
 Frc consts  --      0.9861                 0.9992                 0.9048
 IR Inten    --      7.2344                 6.0491                 0.0389

                     43                     44                     45
                      A                      A                      A
 Frequencies --    993.7346               999.7824              1016.4517
 Red. masses --      1.7725                 2.4174                 1.7068
 Frc consts  --      1.0313                 1.4237                 1.0390
 IR Inten    --      2.2601                14.7274                16.5747

                     46                     47                     48
                      A                      A                      A
 Frequencies --   1025.8900              1070.5100              1101.6834
 Red. masses --      1.8485                 2.0812                 2.2717
 Frc consts  --      1.1462                 1.4053                 1.6245
 IR Inten    --     21.4934                23.3643                 0.4825

                     49                     50                     51
                      A                      A                      A
 Frequencies --   1136.7621              1146.1983              1155.5277
 Red. masses --      1.8640                 2.0160                 1.7939
 Frc consts  --      1.4192                 1.5605                 1.4113
 IR Inten    --     52.4485                 5.4803                22.5927

                     52                     53                     54
                      A                      A                      A
 Frequencies --   1159.8723              1166.0053              1191.0566
 Red. masses --      1.5870                 1.3716                 1.7901
 Frc consts  --      1.2579                 1.0987                 1.4962
 IR Inten    --     12.0726                12.7359                 8.0974

                     55                     56                     57
                      A                      A                      A
 Frequencies --   1199.4673              1203.1869              1210.5100
 Red. masses --      1.9911                 2.2282                 1.9127
 Frc consts  --      1.6878                 1.9005                 1.6513
 IR Inten    --     14.6624                27.2490                 7.9022

                     58                     59                     60
                      A                      A                      A
 Frequencies --   1239.0666              1259.6974              1286.5538
 Red. masses --      2.6018                 1.4530                 1.4306
 Frc consts  --      2.3535                 1.3585                 1.3952
 IR Inten    --     21.8451                 2.4389                18.3479

                     61                     62                     63
                      A                      A                      A
 Frequencies --   1296.4804              1321.7890              1323.0929
 Red. masses --      1.4650                 1.3429                 1.3180
 Frc consts  --      1.4508                 1.3823                 1.3594
 IR Inten    --     53.7657                18.4608                 9.3883

                     64                     65                     66
                      A                      A                      A
 Frequencies --   1372.5101              1379.9612              1392.8050
 Red. masses --      1.4211                 1.4231                 1.4611
 Frc consts  --      1.5773                 1.5967                 1.6699
 IR Inten    --     24.7886                21.9476                 6.6301

                     67                     68                     69
                      A                      A                      A
 Frequencies --   1398.3291              1412.5484              1421.1705
 Red. masses --      1.2654                 1.4827                 1.8003
 Frc consts  --      1.4578                 1.7431                 2.1424
 IR Inten    --     10.5432                69.4095                70.0239

                     70                     71                     72
                      A                      A                      A
 Frequencies --   1431.1346              1450.1675              1454.9306
 Red. masses --      1.2727                 1.2371                 1.3044
 Frc consts  --      1.5358                 1.5328                 1.6269
 IR Inten    --     10.4369                 3.3973                 3.3731

                     73                     74                     75
                      A                      A                      A
 Frequencies --   1481.7723              1487.2612              1495.0050
 Red. masses --      1.1979                 1.0612                 1.3263
 Frc consts  --      1.5497                 1.3830                 1.7465
 IR Inten    --     10.9859                12.3940                24.4234

                     76                     77                     78
                      A                      A                      A
 Frequencies --   1503.1516              1506.6997              1512.8335
 Red. masses --      1.1026                 1.2217                 1.0813
 Frc consts  --      1.4678                 1.6341                 1.4581
 IR Inten    --      1.4370                 5.8087                11.8353

                     79                     80                     81
                      A                      A                      A
 Frequencies --   1514.3066              1518.0998              1518.5806
 Red. masses --      1.0978                 1.0530                 1.0499
 Frc consts  --      1.4832                 1.4298                 1.4266
 IR Inten    --     13.6169                 9.3544                 2.6958

                     82                     83                     84
                      A                      A                      A
 Frequencies --   1526.4948              1534.8252              1536.2137
 Red. masses --      1.0571                 1.0765                 1.0602
 Frc consts  --      1.4513                 1.4941                 1.4741
 IR Inten    --      1.9825                15.7868                 3.5775

                     85                     86                     87
                      A                      A                      A
 Frequencies --   1539.9054              1540.3471              1546.2505
 Red. masses --      1.0577                 1.0820                 1.0529
 Frc consts  --      1.4778                 1.5126                 1.4831
 IR Inten    --      4.8873                11.6845                 7.5801

                     88                     89                     90
                      A                      A                      A
 Frequencies --   1563.6330              1747.9454              1796.1348
 Red. masses --      1.0946                 9.6641                 9.8588
 Frc consts  --      1.5767                17.3968                18.7393
 IR Inten    --     13.7811               215.7518               137.7611

                     91                     92                     93
                      A                      A                      A
 Frequencies --   2968.8982              3005.2764              3014.5370
 Red. masses --      1.0583                 1.0822                 1.0637
 Frc consts  --      5.4959                 5.7587                 5.6955
 IR Inten    --    102.5406                22.4810                41.7706

                     94                     95                     96
                      A                      A                      A
 Frequencies --   3038.1907              3042.5201              3045.3013
 Red. masses --      1.0355                 1.0368                 1.0402
 Frc consts  --      5.6315                 5.6548                 5.6837
 IR Inten    --     30.6685                17.0082                29.5460

                     97                     98                     99
                      A                      A                      A
 Frequencies --   3054.4683              3065.8060              3066.2659
 Red. masses --      1.0401                 1.0882                 1.0749
 Frc consts  --      5.7174                 6.0263                 5.9543
 IR Inten    --      3.6727                18.2266                 8.0109

                    100                    101                    102
                      A                      A                      A
 Frequencies --   3068.4568              3077.5182              3078.6995
 Red. masses --      1.0709                 1.0762                 1.0757
 Frc consts  --      5.9406                 6.0055                 6.0073
 IR Inten    --     21.5912                34.1916                30.4369

                    103                    104                    105
                      A                      A                      A
 Frequencies --   3102.4032              3107.9006              3110.3436
 Red. masses --      1.1017                 1.1002                 1.1020
 Frc consts  --      6.2474                 6.2612                 6.2815
 IR Inten    --      7.3923                57.5693                26.5678

                    106                    107                    108
                      A                      A                      A
 Frequencies --   3113.3041              3114.0856              3116.9251
 Red. masses --      1.1022                 1.1002                 1.1048
 Frc consts  --      6.2941                 6.2861                 6.3241
 IR Inten    --     72.9515                14.2480                22.5562

                    109                    110                    111
                      A                      A                      A
 Frequencies --   3124.5916              3126.1949              3145.4185
 Red. masses --      1.1026                 1.0965                 1.0936
 Frc consts  --      6.3423                 6.3137                 6.3746
 IR Inten    --     33.1737                11.0600                20.9775

                    112                    113                    114
                      A                      A                      A
 Frequencies --   3169.6136              3172.6936              3491.6680
 Red. masses --      1.1032                 1.1007                 1.0742
 Frc consts  --      6.5301                 6.5281                 7.7165
 IR Inten    --     11.0836                 2.1592                 0.1822

 - Thermochemistry -
 -------------------
 Temperature   298.150 Kelvin.  Pressure   1.00000 Atm.
 Atom     1 has atomic number  6 and mass  12.00000

 Molecular mass:   228.18378 amu.
 Principal axes and moments of inertia in atomic units:
                           1         2         3
     Eigenvalues --  2795.914455399.397526663.95801
           X            0.99999   0.00149  -0.00383
           Y           -0.00157   0.99977  -0.02123
           Z            0.00380   0.02123   0.99977
 This molecule is an asymmetric top.
 Rotational symmetry number  1.
 Warning -- assumption of classical behavior for rotation
           may cause significant error
 Rotational temperatures (Kelvin)      0.03098     0.01604     0.01300
 Rotational constants (GHZ):           0.64549     0.33425     0.27082
 Zero-point vibrational energy     941882.8 (Joules/Mol)
                                  225.11540 (Kcal/Mol)
 Warning -- explicit consideration of  30 degrees of freedom as
           vibrations may cause significant error
 Vibrational temperatures:     45.96    53.39    66.54   106.71   115.99
          (Kelvin)            119.92   141.65   162.09   170.92   199.30
                              221.80   277.77   286.55   321.39   322.90
                              332.89   363.90   374.94   420.40   462.64
                              490.73   541.70   552.69   604.62   607.42
                              662.04   726.92   748.78   765.37   890.55
                              950.79  1024.83  1083.43  1152.43  1174.51
                             1217.87  1240.79  1316.29  1349.52  1374.08
                             1392.57  1409.30  1429.76  1438.46  1462.45
                             1476.03  1540.23  1585.08  1635.55  1649.12
                             1662.55  1668.80  1677.62  1713.66  1725.77
                             1731.12  1741.65  1782.74  1812.42  1851.06
                             1865.35  1901.76  1903.64  1974.74  1985.46
                             2003.94  2011.88  2032.34  2044.75  2059.08
                             2086.47  2093.32  2131.94  2139.84  2150.98
                             2162.70  2167.80  2176.63  2178.75  2184.21
                             2184.90  2196.29  2208.27  2210.27  2215.58
                             2216.22  2224.71  2249.72  2514.90  2584.24
                             4271.58  4323.92  4337.25  4371.28  4377.51
                             4381.51  4394.70  4411.01  4411.67  4414.82
                             4427.86  4429.56  4463.67  4471.58  4475.09
                             4479.35  4480.47  4484.56  4495.59  4497.90
                             4525.56  4560.37  4564.80  5023.73

 Zero-point correction=                           0.358744 (Hartree/Particle)
 Thermal correction to Energy=                    0.378452
 Thermal correction to Enthalpy=                  0.379396
 Thermal correction to Gibbs Free Energy=         0.309965
 Sum of electronic and zero-point Energies=           -731.392847
 Sum of electronic and thermal Energies=              -731.373139
 Sum of electronic and thermal Enthalpies=            -731.372195
 Sum of electronic and thermal Free Energies=         -731.441626

                     E (Thermal)             CV                S
                      KCal/Mol        Cal/Mol-Kelvin    Cal/Mol-Kelvin
 Total                  237.482             70.871            146.130
 Electronic               0.000              0.000              0.000
 Translational            0.889              2.981             42.177
 Rotational               0.889              2.981             32.975
 Vibrational            235.705             64.910             70.978
 Vibration     1          0.594              1.983              5.705
 Vibration     2          0.594              1.982              5.408
 Vibration     3          0.595              1.979              4.972
 Vibration     4          0.599              1.966              4.040
 Vibration     5          0.600              1.962              3.876
 Vibration     6          0.600              1.961              3.810
 Vibration     7          0.604              1.950              3.485
 Vibration     8          0.607              1.939              3.223
 Vibration     9          0.609              1.934              3.120
 Vibration    10          0.614              1.915              2.824
 Vibration    11          0.620              1.898              2.620
 Vibration    12          0.635              1.849              2.198
 Vibration    13          0.637              1.841              2.141
 Vibration    14          0.649              1.805              1.932
 Vibration    15          0.649              1.804              1.923
 Vibration    16          0.653              1.793              1.868
 Vibration    17          0.664              1.758              1.710
 Vibration    18          0.669              1.745              1.658
 Vibration    19          0.688              1.688              1.461
 Vibration    20          0.707              1.632              1.302
 Vibration    21          0.721              1.593              1.207
 Vibration    22          0.747              1.520              1.053
 Vibration    23          0.753              1.504              1.023
 Vibration    24          0.783              1.426              0.891
 Vibration    25          0.785              1.422              0.885
 Vibration    26          0.818              1.338              0.766
 Vibration    27          0.860              1.238              0.645
 Vibration    28          0.875              1.205              0.609
 Vibration    29          0.887              1.179              0.583
 Vibration    30          0.979              0.992              0.418

 Optimization completed.
    -- Stationary point found.
 Normal termination of Gaussian 16 at Fri Dec 11 01:06:47 2020.

 ----------------------------------------------------------------------
 # B3LYP/6-311++G(d,p) empiricaldispersion=gd3bj scf=xqc pop=npa geom=c
 heck
 ----------------------------------------------------------------------

 ---------------------------------------
 CID_146517956_JID_6674_Energie_neutraal
 ---------------------------------------
 Structure from the checkpoint file:  "JID_6674.chk"
 Charge =  0 Multiplicity = 1

 SCF Done:  E(RB3LYP) =  -731.966842970     A.U. after   15 cycles
 Normal termination of Gaussian 16 at Fri Dec 11 01:13:31 2020.

 ----------------------------------------------------------------------
 # B3LYP/6-311++G(d,p) empiricaldispersion=gd3bj scf=xqc pop=npa geom=c
 heck
 ----------------------------------------------------------------------

 -------------------------------------
 CID_146517956_JID_6674_Energie_kation
 -------------------------------------
 Structure from the checkpoint file:  "JID_6674.chk"
 Charge =  1 Multiplicity = 2

 SCF Done:  E(UB3LYP) =  -731.664872166     A.U. after   27 cycles
 Normal termination of Gaussian 16 at Fri Dec 11 01:29:47 2020.
 Gaussian 16:  ES64L-G16RevA.03 25-Dec-2016

 ----------------------------------------------------------------------
 # B3LYP/6-311++G(d,p) empiricaldispersion=gd3bj scf=xqc pop=npa geom=c
 heck
 ----------------------------------------------------------------------

 ------------------------------------
 CID_146517956_JID_6674_Energie_anion
 ------------------------------------
 Structure from the checkpoint file:  "JID_6674.chk"
 Charge = -1 Multiplicity = 2

                         Standard orientation:
 ---------------------------------------------------------------------
 Center     Atomic      Atomic             Coordinates (Angstroms)
 Number     Number       Type             X           Y           Z
 ---------------------------------------------------------------------
      1          6           0        3.186696   -2.285230    0.811362
      2          6           0        3.135817   -1.005750   -0.034703
      3          6           0        4.014409   -1.158193   -1.282675
      4          6           0        1.697708   -0.633609   -0.447355
      5          6           0        0.853688   -0.098020    0.723722
      6          6           0        1.153038    1.397667    1.071945
      7          6           0        0.291839    2.409315    0.324951
      8          8           0       -0.834174    2.652771    0.726997
      9          6           0        0.877788    3.087041   -0.891995
     10          7           0       -0.589472   -0.356821    0.605309
     11          6           0       -1.313475   -0.475712    1.872521
     12          6           0       -1.239914   -0.007460   -0.548445
     13          8           0       -0.645960    0.391739   -1.550179
     14          6           0       -2.763963   -0.125917   -0.581196
     15          7           0       -3.239972   -1.478111   -0.295248
     16          6           0       -4.690805   -1.587253   -0.407199
     17          1           0        2.811515   -3.140349    0.234861
     18          1           0        2.582525   -2.209938    1.722511
     19          1           0        4.214067   -2.513195    1.117416
     20          1           0        3.552693   -0.183619    0.567455
     21          1           0        3.625784   -1.950771   -1.934726
     22          1           0        4.039907   -0.230959   -1.866356
     23          1           0        5.044622   -1.420947   -1.015970
     24          1           0        1.720199    0.096280   -1.257443
     25          1           0        1.205562   -1.523984   -0.856390
     26          1           0        1.152968   -0.666673    1.608898
     27          1           0        0.945906    1.553063    2.135369
     28          1           0        2.219020    1.584460    0.905510
     29          1           0        1.819886    3.589354   -0.639871
     30          1           0        1.091470    2.329154   -1.652617
     31          1           0        0.164788    3.809801   -1.292788
     32          1           0       -2.254918   -0.996972    1.701176
     33          1           0       -0.713056   -1.073444    2.564670
     34          1           0       -1.493181    0.511293    2.316761
     35          1           0       -3.189557    0.557072    0.166041
     36          1           0       -3.064103    0.246181   -1.572407
     37          1           0       -2.801791   -2.122791   -0.950626
     38          1           0       -5.094417   -1.249583   -1.378810
     39          1           0       -4.991478   -2.627662   -0.248821
     40          1           0       -5.158188   -0.978597    0.375596
 ---------------------------------------------------------------------

 SCF Done:  E(UB3LYP) =  -731.956203242     A.U. after   33 cycles
 SCF Done:  E(UB3LYP) =  -731.956203242     a.u. after    1 cycles

 The electronic state is 2-A.
 Alpha  occ. eigenvalues --  -19.00131 -18.98843 -14.24305 -14.21686 -10.17169
 Alpha  occ. eigenvalues --  -10.14979 -10.11879 -10.10635 -10.10258 -10.09295
 Alpha  occ. eigenvalues --  -10.07880 -10.07437 -10.06743 -10.06587 -10.06459
 Alpha  occ. eigenvalues --  -10.06193  -0.94282  -0.93276  -0.83907  -0.81962
 Alpha  occ. eigenvalues --   -0.72189  -0.68162  -0.64408  -0.62932  -0.60312
 Alpha  occ. eigenvalues --   -0.59138  -0.58922  -0.55851  -0.53331  -0.46995
 Alpha  occ. eigenvalues --   -0.45016  -0.42669  -0.41122  -0.39467  -0.38268
 Alpha  occ. eigenvalues --   -0.37708  -0.36085  -0.35646  -0.35143  -0.34583
 Alpha  occ. eigenvalues --   -0.34480  -0.33193  -0.33144  -0.32039  -0.30943
 Alpha  occ. eigenvalues --   -0.30605  -0.29877  -0.29324  -0.29136  -0.29022
 Alpha  occ. eigenvalues --   -0.28458  -0.27704  -0.27060  -0.26260  -0.25395
 Alpha  occ. eigenvalues --   -0.24507  -0.23171  -0.22676  -0.22528  -0.15846
 Alpha  occ. eigenvalues --   -0.15010  -0.14802  -0.14219   0.04053
 Alpha virt. eigenvalues --    0.05518   0.06704   0.07092   0.07906   0.08007
 Alpha virt. eigenvalues --    0.08625   0.08695   0.09329   0.09609   0.10183
 Alpha virt. eigenvalues --    0.10256   0.10888   0.11263   0.11743   0.12296

  Beta  occ. eigenvalues --  -19.00059 -18.98844 -14.24301 -14.21669 -10.17163
  Beta  occ. eigenvalues --  -10.14866 -10.11862 -10.10632 -10.10226 -10.09274
  Beta  occ. eigenvalues --  -10.07866 -10.07428 -10.06740 -10.06571 -10.06456
  Beta  occ. eigenvalues --  -10.06162  -0.94248  -0.93148  -0.83896  -0.81939
  Beta  occ. eigenvalues --   -0.72158  -0.68089  -0.64331  -0.62894  -0.60272
  Beta  occ. eigenvalues --   -0.59093  -0.58875  -0.55787  -0.53287  -0.46936
  Beta  occ. eigenvalues --   -0.44920  -0.42599  -0.41022  -0.39404  -0.38203
  Beta  occ. eigenvalues --   -0.37663  -0.36013  -0.35600  -0.35093  -0.34547
  Beta  occ. eigenvalues --   -0.34417  -0.33155  -0.33048  -0.31973  -0.30913
  Beta  occ. eigenvalues --   -0.30578  -0.29841  -0.29290  -0.29104  -0.28988
  Beta  occ. eigenvalues --   -0.28420  -0.27658  -0.26973  -0.26226  -0.25352
  Beta  occ. eigenvalues --   -0.24284  -0.23128  -0.22584  -0.22491  -0.15838
  Beta  occ. eigenvalues --   -0.14974  -0.14768  -0.14174
  Beta virt. eigenvalues --    0.06056   0.06449   0.07397   0.07624   0.08291
  Beta virt. eigenvalues --    0.08525   0.08920   0.09161   0.09533   0.09874
  Beta virt. eigenvalues --    0.10382   0.10546   0.11136   0.11495   0.11963

 Mulliken charges and spin densities:
               1          2
     1  C    0.539939  -1.197002
     2  C   -1.049483   1.534333
     3  C   -0.216264  -0.459642
     4  C    0.087970  -0.767338
     5  C    0.173155   0.138839
     6  C    0.261339  -0.817677
     7  C   -0.534372   0.799081
     8  O   -0.230717   0.030258
     9  C    0.121377  -0.703427
    10  N    0.404215   0.015677
    11  C    0.360912  -0.638182
    12  C    0.004795  -0.216922
    13  O   -0.174262  -0.000905
    14  C   -0.690871  -0.153940
    15  N   -0.227550   0.115002
    16  C    0.508271  -0.889882
    17  H    0.018243   0.116715
    18  H   -0.352070   0.472045
    19  H   -0.239210   0.393970
    20  H   -0.284328   0.420075
    21  H    0.048673   0.080424
    22  H    0.040824   0.087547
    23  H   -0.169203   0.325812
    24  H    0.273495  -0.080594
    25  H    0.112783   0.046735
    26  H    0.630123  -0.461032
    27  H   -0.358609   0.560816
    28  H   -0.015036   0.184928
    29  H   -0.128226   0.275535
    30  H    0.166788   0.006708
    31  H    0.128402   0.028281
    32  H    0.163968   0.060205
    33  H   -0.319521   0.464056
    34  H    0.098961   0.091006
    35  H    0.170913   0.022190
    36  H    0.162033  -0.002441
    37  H    0.065707   0.170598
    38  H   -0.111833   0.231109
    39  H   -0.359831   0.499488
    40  H   -0.081502   0.217550
 Sum of Mulliken charges =  -1.00000   1.00000

 Dipole moment (field-independent basis, Debye):
    X=             -1.1288    Y=              1.0595    Z=             -2.4560  Tot=              2.9032
 Quadrupole moment (field-independent basis, Debye-Ang):
   XX=           -181.2490   YY=           -150.6050   ZZ=           -139.0384
   XY=             -3.8370   XZ=             -6.5697   YZ=              1.6193

 Summary of Natural Population Analysis:

                                       Natural Population
                Natural  -----------------------------------------------
    Atom  No    Charge         Core      Valence    Rydberg      Total
 -----------------------------------------------------------------------
      C    1   -0.28425      0.99965     2.27848    0.00612     3.28425
      C    2   -0.11611      0.99961     2.10718    0.00933     3.11611
      C    3   -0.28111      0.99965     2.27517    0.00629     3.28111
      C    4   -0.19169      0.99958     2.18214    0.00997     3.19169
      C    5    0.00384      0.99956     1.98230    0.01431     2.99616
      C    6   -0.24167      0.99955     2.23234    0.00979     3.24167
      C    7    0.30987      0.99968     1.66915    0.02131     2.69013
      O    8   -0.29351      0.99987     3.28705    0.00659     4.29351
      C    9   -0.33325      0.99960     2.32863    0.00502     3.33325
      N   10   -0.25149      0.99962     2.74042    0.01144     3.75149
      C   11   -0.18442      0.99962     2.17700    0.00780     3.18442
      C   12    0.34836      0.99964     1.62763    0.02437     2.65164
      O   13   -0.32969      0.99988     3.32436    0.00546     4.32969
      C   14   -0.12693      0.99959     2.11591    0.01144     3.12693
      N   15   -0.33732      0.99975     2.82664    0.01094     3.83732
      C   16   -0.17806      0.99966     2.16980    0.00859     3.17806
      H   17    0.09462      0.00000     0.40444    0.00094     0.40538
      H   18    0.10015      0.00000     0.39863    0.00122     0.39985
      H   19    0.09949      0.00000     0.39955    0.00096     0.40051
      H   20    0.09344      0.00000     0.40418    0.00238     0.40656
      H   21    0.09477      0.00000     0.40444    0.00079     0.40523
      H   22    0.09870      0.00000     0.40054    0.00076     0.40130
      H   23    0.09840      0.00000     0.40084    0.00076     0.40160
      H   24    0.10807      0.00000     0.39059    0.00134     0.39193
      H   25    0.10247      0.00000     0.39627    0.00126     0.39753
      H   26    0.10142      0.00000     0.39587    0.00271     0.39858
      H   27    0.11269      0.00000     0.38590    0.00141     0.38731
      H   28    0.10659      0.00000     0.39152    0.00189     0.39341
      H   29    0.10543      0.00000     0.39347    0.00110     0.39457
      H   30    0.11866      0.00000     0.38033    0.00102     0.38134
      H   31    0.10593      0.00000     0.39317    0.00090     0.39407
      H   32    0.11415      0.00000     0.38432    0.00153     0.38585
      H   33    0.09672      0.00000     0.40209    0.00120     0.40328
      H   34    0.09803      0.00000     0.40087    0.00110     0.40197
      H   35    0.10330      0.00000     0.39552    0.00118     0.39670
      H   36    0.09433      0.00000     0.40436    0.00131     0.40567
      H   37    0.17302      0.00000     0.32415    0.00283     0.32698
      H   38    0.07895      0.00000     0.41953    0.00152     0.42105
      H   39    0.09718      0.00000     0.40166    0.00117     0.40282
      H   40    0.09097      0.00000     0.40797    0.00106     0.40903
 =======================================================================
   * Total *    0.00000     15.99452    46.80438    0.20109    63.00000

 Normal termination of Gaussian 16 at Fri Dec 11 01:50:34 2020.
