 Gaussian 16, Revision A.03,

 -----------------------------------------------------------
 # opt freq B3LYP/6-31G(d) empiricaldispersion=gd3bj scf=xqc
 -----------------------------------------------------------

 ------------------------------
 CID_23298310_JID_9673_neutraal
 ------------------------------
 Symbolic Z-matrix:
 Charge =  0 Multiplicity = 1

 SCF Done:  E(RB3LYP) =  -824.000479793     A.U. after   15 cycles
 SCF Done:  E(RB3LYP) =  -824.010238935     A.U. after   14 cycles
 SCF Done:  E(RB3LYP) =  -824.009510105     A.U. after   14 cycles
 SCF Done:  E(RB3LYP) =  -824.014975004     A.U. after   13 cycles
 SCF Done:  E(RB3LYP) =  -824.017111010     A.U. after   13 cycles
 SCF Done:  E(RB3LYP) =  -824.018900377     A.U. after   13 cycles
 SCF Done:  E(RB3LYP) =  -824.018918431     A.U. after   14 cycles
 SCF Done:  E(RB3LYP) =  -824.019853495     A.U. after   12 cycles
 SCF Done:  E(RB3LYP) =  -824.020198374     A.U. after   12 cycles
 SCF Done:  E(RB3LYP) =  -824.020381458     A.U. after   12 cycles
 SCF Done:  E(RB3LYP) =  -824.020480502     A.U. after    8 cycles
 SCF Done:  E(RB3LYP) =  -824.020480703     A.U. after    8 cycles
 SCF Done:  E(RB3LYP) =  -824.020480763     A.U. after    8 cycles
 SCF Done:  E(RB3LYP) =  -824.020480806     A.U. after    7 cycles
 SCF Done:  E(RB3LYP) =  -824.020480813     A.U. after    7 cycles
 Optimization completed.
    -- Stationary point found.
 Normal termination of Gaussian 16 at Sun Dec 13 20:43:24 2020.

 --------------------------------------------------------------------
 #N Geom=AllCheck Guess=TCheck SCRF=Check GenChk RB3LYP/6-31G(d) Freq
 --------------------------------------------------------------------

 Structure from the checkpoint file:  "JID_9673.chk"
 ------------------------------
 CID_23298310_JID_9673_neutraal
 ------------------------------
 Charge =  0 Multiplicity = 1

 SCF Done:  E(RB3LYP) =  -824.020480813     A.U. after    1 cycles

  Exact polarizability: 166.591  -8.507 184.552   8.494  -2.732 140.138
 Approx polarizability: 238.562 -21.781 294.887  16.577  -2.991 259.319

                      1                      2                      3
                      A                      A                      A
 Frequencies --     14.1989                22.5935                32.1602
 Red. masses --      4.0598                 4.9159                 5.6604
 Frc consts  --      0.0005                 0.0015                 0.0034
 IR Inten    --      0.0232                 0.5026                 0.0560

                      4                      5                      6
                      A                      A                      A
 Frequencies --     42.4245                66.9291                87.4115
 Red. masses --      4.2272                 3.9279                 5.5139
 Frc consts  --      0.0045                 0.0104                 0.0248
 IR Inten    --      0.8233                 6.5086                 2.9209

                      7                      8                      9
                      A                      A                      A
 Frequencies --    102.3016               119.4051               192.9770
 Red. masses --      7.4780                 5.5066                 4.0623
 Frc consts  --      0.0461                 0.0463                 0.0891
 IR Inten    --      2.5390                 1.2642                 3.0932

                     10                     11                     12
                      A                      A                      A
 Frequencies --    216.5717               227.2641               271.0883
 Red. masses --      4.2058                 1.1570                 4.8804
 Frc consts  --      0.1162                 0.0352                 0.2113
 IR Inten    --      2.8195                 0.0774                 0.4984

                     13                     14                     15
                      A                      A                      A
 Frequencies --    293.7208               344.5221               386.7817
 Red. masses --      4.9721                 3.5509                 2.4579
 Frc consts  --      0.2527                 0.2483                 0.2166
 IR Inten    --      1.2581                 1.4121                 1.1150

                     16                     17                     18
                      A                      A                      A
 Frequencies --    415.2039               420.9315               437.4734
 Red. masses --      2.9587                 3.0029                 4.2923
 Frc consts  --      0.3005                 0.3135                 0.4840
 IR Inten    --      0.0237                 0.0724                 2.8502

                     19                     20                     21
                      A                      A                      A
 Frequencies --    475.8816               502.9648               514.6930
 Red. masses --      8.1200                 3.7523                 3.8608
 Frc consts  --      1.0834                 0.5593                 0.6026
 IR Inten    --      4.7382                 8.6471                 1.8786

                     22                     23                     24
                      A                      A                      A
 Frequencies --    532.8014               570.8434               608.6804
 Red. masses --      5.5468                 3.6397                 3.3157
 Frc consts  --      0.9277                 0.6988                 0.7238
 IR Inten    --      3.0158                10.8048                21.0792

                     25                     26                     27
                      A                      A                      A
 Frequencies --    627.1917               637.6381               642.4134
 Red. masses --      4.5478                 6.0199                 5.0162
 Frc consts  --      1.0540                 1.4421                 1.2197
 IR Inten    --     32.9006                 0.5285                15.9576

                     28                     29                     30
                      A                      A                      A
 Frequencies --    705.3233               707.3484               708.7399
 Red. masses --      2.1717                 3.8144                 3.0919
 Frc consts  --      0.6365                 1.1245                 0.9151
 IR Inten    --     16.9066                 1.0264                12.2115

                     31                     32                     33
                      A                      A                      A
 Frequencies --    730.8253               768.9953               786.4323
 Red. masses --      1.8389                 1.8347                 2.6957
 Frc consts  --      0.5787                 0.6392                 0.9823
 IR Inten    --     62.5289                13.3244                 1.8795

                     34                     35                     36
                      A                      A                      A
 Frequencies --    848.1441               851.8513               859.0416
 Red. masses --      1.3614                 3.1149                 1.2526
 Frc consts  --      0.5770                 1.3317                 0.5446
 IR Inten    --      0.3653                 7.0698                 0.3840

                     37                     38                     39
                      A                      A                      A
 Frequencies --    892.8208               921.0693               930.4765
 Red. masses --      4.1463                 1.4061                 1.5105
 Frc consts  --      1.9473                 0.7028                 0.7705
 IR Inten    --      1.5660                 0.1409                 0.5520

                     40                     41                     42
                      A                      A                      A
 Frequencies --    962.2691               967.8417               970.1821
 Red. masses --      1.3472                 2.1127                 1.3620
 Frc consts  --      0.7350                 1.1660                 0.7553
 IR Inten    --      0.1103                27.9278                 1.2555

                     43                     44                     45
                      A                      A                      A
 Frequencies --    992.2921               997.6616              1018.1361
 Red. masses --      1.2573                 1.2673                 2.5972
 Frc consts  --      0.7294                 0.7432                 1.5862
 IR Inten    --      0.0999                 0.2850                40.1679

                     46                     47                     48
                      A                      A                      A
 Frequencies --   1024.1782              1025.9209              1055.9227
 Red. masses --      5.1100                 6.0076                 2.4799
 Frc consts  --      3.1581                 3.7254                 1.6291
 IR Inten    --      3.1905                 1.9417                 4.5980

                     49                     50                     51
                      A                      A                      A
 Frequencies --   1060.5685              1062.0523              1065.3851
 Red. masses --      2.2458                 2.0436                 1.7474
 Frc consts  --      1.4883                 1.3581                 1.1686
 IR Inten    --      4.1957                 6.6837                 2.5175

                     52                     53                     54
                      A                      A                      A
 Frequencies --   1112.8115              1115.1030              1161.3198
 Red. masses --      1.5260                 1.6254                 1.5712
 Frc consts  --      1.1134                 1.1908                 1.2485
 IR Inten    --      2.1986                 1.1943                47.7990

                     55                     56                     57
                      A                      A                      A
 Frequencies --   1193.8056              1195.0900              1207.4473
 Red. masses --      1.0995                 1.1002                 1.1384
 Frc consts  --      0.9232                 0.9258                 0.9779
 IR Inten    --      0.0436                 0.1102                 1.6785

                     58                     59                     60
                      A                      A                      A
 Frequencies --   1217.0339              1221.8622              1235.7324
 Red. masses --      1.2097                 2.5277                 3.0614
 Frc consts  --      1.0557                 2.2234                 2.7544
 IR Inten    --      3.5502                 7.5265                23.2722

                     61                     62                     63
                      A                      A                      A
 Frequencies --   1285.3915              1314.3835              1344.9490
 Red. masses --      3.2109                 1.5065                 3.0221
 Frc consts  --      3.1257                 1.5334                 3.2208
 IR Inten    --    285.3053                38.6217                78.5982

                     64                     65                     66
                      A                      A                      A
 Frequencies --   1348.2403              1364.9040              1365.4335
 Red. masses --      3.2729                 2.8389                 3.7395
 Frc consts  --      3.5053                 3.1161                 4.1077
 IR Inten    --    137.5563                 7.6521                 6.3543

                     67                     68                     69
                      A                      A                      A
 Frequencies --   1372.7040              1423.4768              1502.5805
 Red. masses --      1.2953                 1.2717                 1.4989
 Frc consts  --      1.4380                 1.5182                 1.9938
 IR Inten    --      6.6180                47.7810                15.1283

                     70                     71                     72
                      A                      A                      A
 Frequencies --   1502.8530              1506.4375              1515.2593
 Red. masses --      2.1069                 1.4184                 1.0946
 Frc consts  --      2.8037                 1.8965                 1.4808
 IR Inten    --      3.1046                 5.3764                 5.3808

                     73                     74                     75
                      A                      A                      A
 Frequencies --   1523.7508              1546.5679              1547.3438
 Red. masses --      1.0833                 2.2377                 2.2063
 Frc consts  --      1.4819                 3.1535                 3.1123
 IR Inten    --      4.4748                26.0606                15.9091

                     76                     77                     78
                      A                      A                      A
 Frequencies --   1647.9599              1653.9581              1662.1906
 Red. masses --      5.5795                 6.0099                 5.7003
 Frc consts  --      8.9277                 9.6865                 9.2791
 IR Inten    --      1.5306                 2.0535                 4.7630

                     79                     80                     81
                      A                      A                      A
 Frequencies --   1664.8647              1778.6691              1814.3669
 Red. masses --      5.5443                11.7919                11.6886
 Frc consts  --      9.0542                21.9799                22.6705
 IR Inten    --      3.5590               381.1803                41.7298

                     82                     83                     84
                      A                      A                      A
 Frequencies --   3072.0386              3113.1809              3142.5493
 Red. masses --      1.0376                 1.0649                 1.0982
 Frc consts  --      5.7697                 6.0811                 6.3901
 IR Inten    --      4.2963                11.5653                 7.1929

                     85                     86                     87
                      A                      A                      A
 Frequencies --   3165.4816              3181.2493              3185.1914
 Red. masses --      1.1053                 1.0899                 1.0944
 Frc consts  --      6.5254                 6.4985                 6.5416
 IR Inten    --     10.8855                 2.9700                 7.2610

                     88                     89                     90
                      A                      A                      A
 Frequencies --   3187.3153              3189.2773              3197.9520
 Red. masses --      1.0853                 1.0876                 1.0892
 Frc consts  --      6.4960                 6.5179                 6.5628
 IR Inten    --      0.0741                 1.2927                 8.9490

                     91                     92                     93
                      A                      A                      A
 Frequencies --   3198.3715              3206.5229              3208.0448
 Red. masses --      1.0904                 1.0943                 1.0931
 Frc consts  --      6.5721                 6.6289                 6.6283
 IR Inten    --     16.0670                24.4003                28.7554

                     94                     95                     96
                      A                      A                      A
 Frequencies --   3215.1381              3217.9745              3223.5827
 Red. masses --      1.0981                 1.0956                 1.0950
 Frc consts  --      6.6879                 6.6844                 6.7043
 IR Inten    --     13.4659                13.3718                 2.9683

 - Thermochemistry -
 -------------------
 Temperature   298.150 Kelvin.  Pressure   1.00000 Atm.
 Atom     1 has atomic number  6 and mass  12.00000

 Molecular mass:   253.11028 amu.
 Principal axes and moments of inertia in atomic units:
                           1         2         3
     Eigenvalues --  3489.612355442.155216800.53916
           X            0.99997   0.00538   0.00467
           Y           -0.00536   0.99997  -0.00480
           Z           -0.00469   0.00477   0.99998
 This molecule is an asymmetric top.
 Rotational symmetry number  1.
 Warning -- assumption of classical behavior for rotation
           may cause significant error
 Rotational temperatures (Kelvin)      0.02482     0.01592     0.01274
 Rotational constants (GHZ):           0.51718     0.33162     0.26538
 Zero-point vibrational energy     722370.4 (Joules/Mol)
                                  172.65068 (Kcal/Mol)
 Warning -- explicit consideration of  24 degrees of freedom as
           vibrations may cause significant error
 Vibrational temperatures:     20.43    32.51    46.27    61.04    96.30
          (Kelvin)            125.77   147.19   171.80   277.65   311.60
                              326.98   390.04   422.60   495.69   556.49
                              597.39   605.63   629.43   684.69   723.65
                              740.53   766.58   821.32   875.76   902.39
                              917.42   924.29  1014.80  1017.72  1019.72
                             1051.49  1106.41  1131.50  1220.29  1225.62
                             1235.97  1284.57  1325.21  1338.75  1384.49
                             1392.51  1395.88  1427.69  1435.41  1464.87
                             1473.56  1476.07  1519.24  1525.92  1528.06
                             1532.85  1601.09  1604.38  1670.88  1717.62
                             1719.47  1737.25  1751.04  1757.99  1777.94
                             1849.39  1891.10  1935.08  1939.82  1963.79
                             1964.55  1975.01  2048.07  2161.88  2162.27
                             2167.43  2180.12  2192.34  2225.17  2226.28
                             2371.05  2379.68  2391.52  2395.37  2559.11
                             2610.47  4419.98  4479.17  4521.43  4554.42
                             4577.11  4582.78  4585.84  4588.66  4601.14
                             4601.74  4613.47  4615.66  4625.87  4629.95
                             4638.02

 Zero-point correction=                           0.275136 (Hartree/Particle)
 Thermal correction to Energy=                    0.291828
 Thermal correction to Enthalpy=                  0.292772
 Thermal correction to Gibbs Free Energy=         0.227371
 Sum of electronic and zero-point Energies=           -823.745344
 Sum of electronic and thermal Energies=              -823.728653
 Sum of electronic and thermal Enthalpies=            -823.727709
 Sum of electronic and thermal Free Energies=         -823.793110

                     E (Thermal)             CV                S
                      KCal/Mol        Cal/Mol-Kelvin    Cal/Mol-Kelvin
 Total                  183.125             63.574            137.648
 Electronic               0.000              0.000              0.000
 Translational            0.889              2.981             42.486
 Rotational               0.889              2.981             33.223
 Vibrational            181.347             57.612             61.939
 Vibration     1          0.593              1.986              7.315
 Vibration     2          0.593              1.985              6.392
 Vibration     3          0.594              1.983              5.692
 Vibration     4          0.595              1.980              5.143
 Vibration     5          0.598              1.970              4.242
 Vibration     6          0.601              1.958              3.717
 Vibration     7          0.604              1.947              3.410
 Vibration     8          0.609              1.933              3.110
 Vibration     9          0.635              1.850              2.199
 Vibration    10          0.645              1.816              1.988
 Vibration    11          0.651              1.799              1.900
 Vibration    12          0.675              1.727              1.589
 Vibration    13          0.689              1.685              1.452
 Vibration    14          0.723              1.586              1.191
 Vibration    15          0.755              1.498              1.013
 Vibration    16          0.779              1.437              0.908
 Vibration    17          0.783              1.425              0.889
 Vibration    18          0.798              1.388              0.835
 Vibration    19          0.833              1.304              0.721
 Vibration    20          0.858              1.243              0.651
 Vibration    21          0.870              1.217              0.622
 Vibration    22          0.888              1.177              0.581
 Vibration    23          0.927              1.094              0.503
 Vibration    24          0.968              1.013              0.435

 Optimization completed.
    -- Stationary point found.
 Normal termination of Gaussian 16 at Sun Dec 13 20:59:51 2020.

 ----------------------------------------------------------------------
 # B3LYP/6-311++G(d,p) empiricaldispersion=gd3bj scf=xqc pop=npa geom=c
 heck
 ----------------------------------------------------------------------

 --------------------------------------
 CID_23298310_JID_9673_Energie_neutraal
 --------------------------------------
 Structure from the checkpoint file:  "JID_9673.chk"
 Charge =  0 Multiplicity = 1

 SCF Done:  E(RB3LYP) =  -824.243304408     A.U. after   15 cycles
 Normal termination of Gaussian 16 at Sun Dec 13 21:05:36 2020.

 ----------------------------------------------------------------------
 # B3LYP/6-311++G(d,p) empiricaldispersion=gd3bj scf=xqc pop=npa geom=c
 heck
 ----------------------------------------------------------------------

 ------------------------------------
 CID_23298310_JID_9673_Energie_kation
 ------------------------------------
 Structure from the checkpoint file:  "JID_9673.chk"
 Charge =  1 Multiplicity = 2

 SCF Done:  E(UB3LYP) =  -823.931921940     A.U. after   33 cycles
 SCF Done:  E(UB3LYP) =  -823.931921940     a.u. after    1 cycles
 Normal termination of Gaussian 16 at Sun Dec 13 21:22:39 2020.
 Gaussian 16:  ES64L-G16RevA.03 25-Dec-2016

 ----------------------------------------------------------------------
 # B3LYP/6-311++G(d,p) empiricaldispersion=gd3bj scf=xqc pop=npa geom=c
 heck
 ----------------------------------------------------------------------

 -----------------------------------
 CID_23298310_JID_9673_Energie_anion
 -----------------------------------
 Structure from the checkpoint file:  "JID_9673.chk"
 Charge = -1 Multiplicity = 2

                         Standard orientation:
 ---------------------------------------------------------------------
 Center     Atomic      Atomic             Coordinates (Angstroms)
 Number     Number       Type             X           Y           Z
 ---------------------------------------------------------------------
      1          6           0        0.379931   -3.385492   -0.533833
      2          6           0        0.878002   -1.977503   -0.820780
      3          8           0        1.416797   -1.712939   -1.878317
      4          7           0        0.796866   -1.017379    0.202363
      5          6           0        1.614291    0.165766    0.059927
      6          6           0        1.003696    1.372529   -0.277123
      7          6           0        1.784049    2.520640   -0.405195
      8          6           0        3.163826    2.457163   -0.204927
      9          6           0        3.765548    1.242044    0.127414
     10          6           0        2.989733    0.092417    0.264293
     11          6           0       -0.045675   -1.051952    1.346518
     12          8           0        0.303939   -0.534122    2.386291
     13          6           0       -1.488901   -1.508634    1.138698
     14          6           0       -2.197166   -0.362923    0.437919
     15          6           0       -2.444157   -0.409590   -0.937627
     16          6           0       -3.009240    0.684614   -1.593393
     17          6           0       -3.329111    1.839017   -0.877832
     18          6           0       -3.081747    1.893643    0.495695
     19          6           0       -2.515103    0.800419    1.148734
     20          1           0       -0.578955   -3.561297   -1.032400
     21          1           0        0.280602   -3.614684    0.528955
     22          1           0        1.104702   -4.068446   -0.983165
     23          1           0       -0.068848    1.405164   -0.437590
     24          1           0        1.312952    3.463714   -0.666635
     25          1           0        3.769853    3.352772   -0.307541
     26          1           0        4.838749    1.189452    0.285442
     27          1           0        3.440840   -0.858373    0.528750
     28          1           0       -1.578128   -2.417456    0.546468
     29          1           0       -1.909273   -1.693214    2.129766
     30          1           0       -2.185874   -1.301981   -1.502041
     31          1           0       -3.194300    0.635543   -2.662502
     32          1           0       -3.767062    2.692307   -1.387575
     33          1           0       -3.324413    2.790797    1.057971
     34          1           0       -2.292653    0.850897    2.210845
 ---------------------------------------------------------------------

 SCF Done:  E(UB3LYP) =  -824.249098878     A.U. after   31 cycles

 The electronic state is 2-A.
 Alpha  occ. eigenvalues --  -18.96176 -18.94512 -14.22013 -10.14483 -10.11632
 Alpha  occ. eigenvalues --  -10.09703 -10.07183 -10.07057 -10.06906 -10.06540
 Alpha  occ. eigenvalues --  -10.06127 -10.06074 -10.05833 -10.05655 -10.05534
 Alpha  occ. eigenvalues --  -10.05201 -10.05092 -10.05089 -10.04878  -0.92220
 Alpha  occ. eigenvalues --   -0.89971  -0.80366  -0.74220  -0.73862  -0.66254
 Alpha  occ. eigenvalues --   -0.64251  -0.64169  -0.62798  -0.61340  -0.58014
 Alpha  occ. eigenvalues --   -0.50848  -0.50381  -0.49242  -0.48858  -0.46875
 Alpha  occ. eigenvalues --   -0.43503  -0.39877  -0.38846  -0.36249  -0.36143
 Alpha  occ. eigenvalues --   -0.35793  -0.34257  -0.33745  -0.33196  -0.32762
 Alpha  occ. eigenvalues --   -0.31817  -0.30696  -0.30455  -0.29439  -0.29153
 Alpha  occ. eigenvalues --   -0.28709  -0.26706  -0.25897  -0.25395  -0.25149
 Alpha  occ. eigenvalues --   -0.24607  -0.23863  -0.23684  -0.22419  -0.21654
 Alpha  occ. eigenvalues --   -0.15724  -0.14892  -0.14809  -0.13953  -0.13429
 Alpha  occ. eigenvalues --   -0.12820  -0.11117   0.04456
 Alpha virt. eigenvalues --    0.07451   0.07975   0.08293   0.08928   0.09363
 Alpha virt. eigenvalues --    0.09418   0.09479   0.10092   0.10314   0.10545
 Alpha virt. eigenvalues --    0.10915   0.11203   0.11866   0.12971   0.13166

  Beta  occ. eigenvalues --  -18.95988 -18.94065 -14.22121 -10.14305 -10.11231
  Beta  occ. eigenvalues --  -10.09651 -10.07186 -10.07041 -10.06901 -10.06530
  Beta  occ. eigenvalues --  -10.06134 -10.06079 -10.05865 -10.05632 -10.05383
  Beta  occ. eigenvalues --  -10.05139 -10.05084 -10.05068 -10.04794  -0.91849
  Beta  occ. eigenvalues --   -0.89255  -0.80189  -0.74131  -0.73720  -0.66001
  Beta  occ. eigenvalues --   -0.64194  -0.64054  -0.62672  -0.61252  -0.57744
  Beta  occ. eigenvalues --   -0.50714  -0.50266  -0.48867  -0.48748  -0.46655
  Beta  occ. eigenvalues --   -0.43383  -0.39747  -0.38751  -0.36044  -0.35965
  Beta  occ. eigenvalues --   -0.35558  -0.34087  -0.33640  -0.33014  -0.32487
  Beta  occ. eigenvalues --   -0.31783  -0.30489  -0.30211  -0.29301  -0.28988
  Beta  occ. eigenvalues --   -0.28334  -0.26497  -0.25765  -0.25230  -0.24972
  Beta  occ. eigenvalues --   -0.24063  -0.23379  -0.23132  -0.22313  -0.20571
  Beta  occ. eigenvalues --   -0.15476  -0.14821  -0.14458  -0.13613  -0.12906
  Beta  occ. eigenvalues --   -0.12316  -0.10712
  Beta virt. eigenvalues --    0.07329   0.07881   0.08276   0.09137   0.09328
  Beta virt. eigenvalues --    0.09377   0.09471   0.09608   0.10180   0.10593
  Beta virt. eigenvalues --    0.10923   0.11164   0.11618   0.12455   0.12986

 Mulliken charges and spin densities:
               1          2
     1  C   -0.348685  -0.236776
     2  C   -0.087408   0.189093
     3  O   -0.254231   0.064763
     4  N    0.556801  -0.039154
     5  C   -0.953871  -0.039763
     6  C   -0.169457  -0.010769
     7  C   -0.108979   0.026598
     8  C   -0.262438  -0.005364
     9  C   -0.132362  -0.014821
    10  C    0.442083   0.024424
    11  C   -0.044665   0.226180
    12  O   -0.298035   0.163338
    13  C   -0.060266  -0.487982
    14  C    0.296427   0.313680
    15  C   -0.217157   0.096537
    16  C   -0.054194  -0.257573
    17  C   -0.279828   0.036386
    18  C   -0.349213   0.024336
    19  C   -0.191945   0.106948
    20  H   -0.038534   0.223560
    21  H    0.180435  -0.018444
    22  H    0.177169  -0.010308
    23  H    0.192955  -0.012024
    24  H    0.150353   0.013927
    25  H    0.111646   0.003030
    26  H    0.139922   0.005233
    27  H    0.121851   0.013073
    28  H   -0.102986   0.250201
    29  H    0.083121   0.112286
    30  H    0.026263   0.128847
    31  H    0.074606   0.079956
    32  H    0.102482   0.009748
    33  H    0.118801   0.018090
    34  H    0.179340   0.002744
 Sum of Mulliken charges =  -1.00000   1.00000

 Dipole moment (field-independent basis, Debye):
    X=              1.3272    Y=              2.0730    Z=             -0.2272  Tot=              2.4719
 Quadrupole moment (field-independent basis, Debye-Ang):
   XX=           -143.4132   YY=           -127.9180   ZZ=           -143.1687
   XY=             -2.0481   XZ=              2.6057   YZ=             -4.6313

 Summary of Natural Population Analysis:

                                       Natural Population
                Natural  -----------------------------------------------
    Atom  No    Charge         Core      Valence    Rydberg      Total
 -----------------------------------------------------------------------
      C    1   -0.33317      0.99963     2.32853    0.00501     3.33317
      C    2    0.37101      0.99969     1.60649    0.02281     2.62899
      O    3   -0.29448      0.99987     3.28928    0.00533     4.29448
      N    4   -0.29855      0.99958     2.78627    0.01269     3.79855
      C    5    0.10752      0.99946     1.87935    0.01367     2.89248
      C    6   -0.09687      0.99949     2.08752    0.00986     3.09687
      C    7   -0.09994      0.99957     2.09231    0.00806     3.09994
      C    8   -0.10868      0.99958     2.10035    0.00875     3.10868
      C    9   -0.10536      0.99957     2.09733    0.00846     3.10536
      C   10   -0.09063      0.99949     2.08358    0.00756     3.09063
      C   11    0.40328      0.99966     1.57319    0.02387     2.59672
      O   12   -0.25724      0.99987     3.25216    0.00522     4.25724
      C   13   -0.24084      0.99956     2.23196    0.00932     3.24084
      C   14    0.00742      0.99950     1.98273    0.01035     2.99258
      C   15   -0.08847      0.99950     2.07902    0.00994     3.08847
      C   16   -0.11070      0.99957     2.10188    0.00926     3.11070
      C   17   -0.09242      0.99957     2.08297    0.00988     3.09242
      C   18   -0.10321      0.99957     2.09524    0.00839     3.10321
      C   19   -0.09885      0.99951     2.08975    0.00959     3.09885
      H   20    0.11107      0.00000     0.38735    0.00157     0.38893
      H   21    0.10371      0.00000     0.39557    0.00072     0.39629
      H   22    0.10931      0.00000     0.38988    0.00081     0.39069
      H   23    0.11439      0.00000     0.38354    0.00207     0.38561
      H   24    0.09737      0.00000     0.40174    0.00089     0.40263
      H   25    0.09398      0.00000     0.40508    0.00094     0.40602
      H   26    0.09494      0.00000     0.40411    0.00095     0.40506
      H   27    0.10265      0.00000     0.39611    0.00123     0.39735
      H   28    0.10800      0.00000     0.39027    0.00173     0.39200
      H   29    0.10938      0.00000     0.38957    0.00105     0.39062
      H   30    0.09881      0.00000     0.39957    0.00163     0.40119
      H   31    0.09629      0.00000     0.40287    0.00083     0.40371
      H   32    0.09281      0.00000     0.40636    0.00083     0.40719
      H   33    0.09307      0.00000     0.40562    0.00131     0.40693
      H   34    0.10437      0.00000     0.39466    0.00097     0.39563
 =======================================================================
   * Total *   -0.00000     18.99224    47.79223    0.21553    67.00000

 Normal termination of Gaussian 16 at Sun Dec 13 21:38:21 2020.
