 Gaussian 16, Revision A.03,

 -----------------------------------------------------------
 # opt freq B3LYP/6-31G(d) empiricaldispersion=gd3bj scf=xqc
 -----------------------------------------------------------

 ------------------------------
 CID_152453477_JID_413_neutraal
 ------------------------------
 Symbolic Z-matrix:
 Charge =  0 Multiplicity = 1

 SCF Done:  E(RB3LYP) =  -487.078421305     A.U. after   17 cycles
 SCF Done:  E(RB3LYP) =  -487.088828756     A.U. after   16 cycles
 SCF Done:  E(RB3LYP) =  -487.090321376     A.U. after   16 cycles
 SCF Done:  E(RB3LYP) =  -487.089945031     A.U. after   14 cycles
 SCF Done:  E(RB3LYP) =  -487.091269290     A.U. after   14 cycles
 SCF Done:  E(RB3LYP) =  -487.091511445     A.U. after   13 cycles
 SCF Done:  E(RB3LYP) =  -487.091545358     A.U. after   12 cycles
 SCF Done:  E(RB3LYP) =  -487.091576778     A.U. after   13 cycles
 SCF Done:  E(RB3LYP) =  -487.091585387     A.U. after   11 cycles
 SCF Done:  E(RB3LYP) =  -487.091590582     A.U. after   11 cycles
 SCF Done:  E(RB3LYP) =  -487.091591379     A.U. after    9 cycles
 SCF Done:  E(RB3LYP) =  -487.091591461     A.U. after    8 cycles
 SCF Done:  E(RB3LYP) =  -487.091591499     A.U. after    8 cycles
 Optimization completed.
    -- Stationary point found.
 Normal termination of Gaussian 16 at Tue Dec  8 10:31:30 2020.

 --------------------------------------------------------------------
 #N Geom=AllCheck Guess=TCheck SCRF=Check GenChk RB3LYP/6-31G(d) Freq
 --------------------------------------------------------------------

 Structure from the checkpoint file:  "JID_413.chk"
 ------------------------------
 CID_152453477_JID_413_neutraal
 ------------------------------
 Charge =  0 Multiplicity = 1

 SCF Done:  E(RB3LYP) =  -487.091591499     A.U. after    1 cycles

  Exact polarizability: 105.147   6.294  68.547   1.168  -1.231  54.779
 Approx polarizability: 179.711  13.225 121.128  -0.971  -0.647  90.791

                      1                      2                      3
                      A                      A                      A
 Frequencies --     33.2821                81.1424                97.5653
 Red. masses --      7.4588                 7.6958                 6.0725
 Frc consts  --      0.0049                 0.0299                 0.0341
 IR Inten    --      2.3371                 1.2039                 0.1319

                      4                      5                      6
                      A                      A                      A
 Frequencies --    166.9481               225.7418               330.1498
 Red. masses --     10.0877                 5.7331                 6.6459
 Frc consts  --      0.1657                 0.1721                 0.4268
 IR Inten    --      0.0331                 2.9899                 4.6074

                      7                      8                      9
                      A                      A                      A
 Frequencies --    434.2396               528.6441               558.9344
 Red. masses --      9.8124                 8.7579                 3.6542
 Frc consts  --      1.0901                 1.4420                 0.6726
 IR Inten    --      0.3428                 0.2014                 0.5274

                     10                     11                     12
                      A                      A                      A
 Frequencies --    583.2506               710.3919               722.1355
 Red. masses --      9.4697                 1.7046                 7.6123
 Frc consts  --      1.8980                 0.5068                 2.3388
 IR Inten    --      7.0177                 1.6604                37.8638

                     13                     14                     15
                      A                      A                      A
 Frequencies --    802.1215               847.1962               863.6816
 Red. masses --      2.8444                 4.4619                 6.3568
 Frc consts  --      1.0782                 1.8869                 2.7938
 IR Inten    --    188.0002                18.9662                10.0593

                     16                     17                     18
                      A                      A                      A
 Frequencies --    880.4702               936.1460               957.4000
 Red. masses --      8.7424                 1.2865                 1.7868
 Frc consts  --      3.9931                 0.6643                 0.9650
 IR Inten    --     17.3094                16.8603                 6.2354

                     19                     20                     21
                      A                      A                      A
 Frequencies --    980.1820              1012.5341              1031.5072
 Red. masses --      1.7759                 2.2430                 2.6941
 Frc consts  --      1.0053                 1.3549                 1.6889
 IR Inten    --      3.4542                 0.9806                24.4746

                     22                     23                     24
                      A                      A                      A
 Frequencies --   1120.0527              1188.7574              1239.3416
 Red. masses --      1.3508                 5.8665                 1.4489
 Frc consts  --      0.9985                 4.8845                 1.3112
 IR Inten    --     24.4114                95.8341                 7.5158

                     25                     26                     27
                      A                      A                      A
 Frequencies --   1260.3036              1301.5318              1322.8024
 Red. masses --      1.4926                 7.0616                 1.4373
 Frc consts  --      1.3968                 7.0479                 1.4817
 IR Inten    --      7.0678               506.7891                 1.2643

                     28                     29                     30
                      A                      A                      A
 Frequencies --   1381.2192              1559.4821              1666.3077
 Red. masses --      1.8266                 8.3307                 5.9671
 Frc consts  --      2.0531                11.9369                 9.7616
 IR Inten    --     17.1010                16.2821                 7.7994

                     31                     32                     33
                      A                      A                      A
 Frequencies --   1804.1274              2298.6868              3092.6923
 Red. masses --     12.7132                13.9946                 1.0833
 Frc consts  --     24.3802                43.5683                 6.1051
 IR Inten    --    261.4819               506.4922                 0.3236

                     34                     35                     36
                      A                      A                      A
 Frequencies --   3192.7548              3239.3687              3261.9698
 Red. masses --      1.0934                 1.0886                 1.1058
 Frc consts  --      6.5667                 6.7303                 6.9323
 IR Inten    --     24.2926                 3.5515                 5.1033

 - Thermochemistry -
 -------------------
 Temperature   298.150 Kelvin.  Pressure   1.00000 Atm.
 Atom     1 has atomic number  6 and mass  12.00000

 Molecular mass:   136.03851 amu.
 Principal axes and moments of inertia in atomic units:
                           1         2         3
     Eigenvalues --   602.526411993.807502190.76687
           X            0.99989   0.01120   0.00923
           Y           -0.01103   0.99976  -0.01870
           Z           -0.00943   0.01859   0.99978
 This molecule is an asymmetric top.
 Rotational symmetry number  1.
 Warning -- assumption of classical behavior for rotation
           may cause significant error
 Rotational temperatures (Kelvin)      0.14375     0.04344     0.03954
 Rotational constants (GHZ):           2.99529     0.90517     0.82379
 Zero-point vibrational energy     249499.5 (Joules/Mol)
                                   59.63182 (Kcal/Mol)
 Warning -- explicit consideration of  10 degrees of freedom as
           vibrations may cause significant error
 Vibrational temperatures:     47.89   116.75   140.37   240.20   324.79
          (Kelvin)            475.01   624.77   760.60   804.18   839.17
                             1022.10  1038.99  1154.07  1218.93  1242.65
                             1266.80  1346.91  1377.49  1410.26  1456.81
                             1484.11  1611.51  1710.36  1783.14  1813.30
                             1872.61  1903.22  1987.27  2243.75  2397.45
                             2595.74  3307.30  4449.69  4593.66  4660.73
                             4693.25

 Zero-point correction=                           0.095029 (Hartree/Particle)
 Thermal correction to Energy=                    0.103377
 Thermal correction to Enthalpy=                  0.104321
 Thermal correction to Gibbs Free Energy=         0.060091
 Sum of electronic and zero-point Energies=           -486.996562
 Sum of electronic and thermal Energies=              -486.988215
 Sum of electronic and thermal Enthalpies=            -486.987271
 Sum of electronic and thermal Free Energies=         -487.031500

                     E (Thermal)             CV                S
                      KCal/Mol        Cal/Mol-Kelvin    Cal/Mol-Kelvin
 Total                   64.870             29.166             93.089
 Electronic               0.000              0.000              0.000
 Translational            0.889              2.981             40.635
 Rotational               0.889              2.981             29.355
 Vibrational             63.092             23.204             23.098
 Vibration     1          0.594              1.983              5.624
 Vibration     2          0.600              1.962              3.863
 Vibration     3          0.603              1.951              3.502
 Vibration     4          0.624              1.883              2.470
 Vibration     5          0.650              1.802              1.913
 Vibration     6          0.713              1.615              1.259
 Vibration     7          0.795              1.396              0.845
 Vibration     8          0.884              1.187              0.590
 Vibration     9          0.915              1.120              0.526
 Vibration    10          0.940              1.068              0.479

 Optimization completed.
    -- Stationary point found.
 Normal termination of Gaussian 16 at Tue Dec  8 10:34:04 2020.

 ----------------------------------------------------------------------
 # B3LYP/6-311++G(d,p) empiricaldispersion=gd3bj scf=xqc pop=npa geom=c
 heck
 ----------------------------------------------------------------------

 --------------------------------------
 CID_152453477_JID_413_Energie_neutraal
 --------------------------------------
 Structure from the checkpoint file:  "JID_413.chk"
 Charge =  0 Multiplicity = 1

 SCF Done:  E(RB3LYP) =  -487.228361617     A.U. after   17 cycles
 Normal termination of Gaussian 16 at Tue Dec  8 10:35:11 2020.

 ----------------------------------------------------------------------
 # B3LYP/6-311++G(d,p) empiricaldispersion=gd3bj scf=xqc pop=npa geom=c
 heck
 ----------------------------------------------------------------------

 ------------------------------------
 CID_152453477_JID_413_Energie_kation
 ------------------------------------
 Structure from the checkpoint file:  "JID_413.chk"
 Charge =  1 Multiplicity = 2

 SCF Done:  E(UB3LYP) =  -486.873506214     A.U. after   32 cycles
 Normal termination of Gaussian 16 at Tue Dec  8 10:37:36 2020.
 Gaussian 16:  ES64L-G16RevA.03 25-Dec-2016

 ----------------------------------------------------------------------
 # B3LYP/6-311++G(d,p) empiricaldispersion=gd3bj scf=xqc pop=npa geom=c
 heck
 ----------------------------------------------------------------------

 -----------------------------------
 CID_152453477_JID_413_Energie_anion
 -----------------------------------
 Structure from the checkpoint file:  "JID_413.chk"
 Charge = -1 Multiplicity = 2

                         Standard orientation:
 ---------------------------------------------------------------------
 Center     Atomic      Atomic             Coordinates (Angstroms)
 Number     Number       Type             X           Y           Z
 ---------------------------------------------------------------------
      1          6           0       -2.394776   -0.522654   -0.873976
      2          6           0       -1.586932    0.541169   -1.032371
      3          6           0       -0.921654    0.789914    0.302177
      4          7           0       -1.430889   -0.232100    1.218720
      5          6           0       -2.252907   -0.947108    0.526601
      6          6           0        0.599533    0.733696    0.173180
      7          8           0        1.316649    1.707456    0.165270
      8          7           0        1.055351   -0.605108    0.006150
      9          7           0        2.291594   -0.714853   -0.124813
     10          7           0        3.396614   -0.929700   -0.247780
     11          1           0       -3.034459   -0.987075   -1.614968
     12          1           0       -1.412807    1.130397   -1.924078
     13          1           0       -1.154137    1.784522    0.699239
     14          1           0       -2.780051   -1.785267    0.978055
 ---------------------------------------------------------------------

 SCF Done:  E(UB3LYP) =  -487.242527320     A.U. after   33 cycles
 SCF Done:  E(UB3LYP) =  -487.242527320     a.u. after    1 cycles

 The electronic state is 2-A.
 Alpha  occ. eigenvalues --  -18.95815 -14.32248 -14.23365 -14.21386 -14.13553
 Alpha  occ. eigenvalues --  -10.12648 -10.05619 -10.04868 -10.01942 -10.01772
 Alpha  occ. eigenvalues --   -0.99763  -0.90825  -0.82486  -0.78891  -0.61665
 Alpha  occ. eigenvalues --   -0.59836  -0.52163  -0.43326  -0.40855  -0.37219
 Alpha  occ. eigenvalues --   -0.36938  -0.35967  -0.33011  -0.31532  -0.29581
 Alpha  occ. eigenvalues --   -0.27281  -0.26119  -0.24183  -0.22192  -0.18656
 Alpha  occ. eigenvalues --   -0.18445  -0.13548  -0.11962  -0.11608  -0.10651
 Alpha  occ. eigenvalues --    0.05071
 Alpha virt. eigenvalues --    0.09417   0.09634   0.10677   0.11176   0.11892
 Alpha virt. eigenvalues --    0.13053   0.15031   0.17353   0.17496   0.18107
 Alpha virt. eigenvalues --    0.18398   0.18979   0.19760   0.20325   0.20968

  Beta  occ. eigenvalues --  -18.95646 -14.31927 -14.22981 -14.21511 -14.13193
  Beta  occ. eigenvalues --  -10.12327 -10.05685 -10.04822 -10.01693 -10.01615
  Beta  occ. eigenvalues --   -0.99201  -0.90476  -0.82255  -0.78392  -0.61120
  Beta  occ. eigenvalues --   -0.59331  -0.51662  -0.42822  -0.40472  -0.36638
  Beta  occ. eigenvalues --   -0.35874  -0.35679  -0.32451  -0.30940  -0.28879
  Beta  occ. eigenvalues --   -0.26645  -0.25737  -0.23759  -0.21717  -0.18218
  Beta  occ. eigenvalues --   -0.17406  -0.12911  -0.11685  -0.11172  -0.09064
  Beta virt. eigenvalues --    0.09535   0.10828   0.10983   0.11259   0.11836
  Beta virt. eigenvalues --    0.12338   0.13186   0.15041   0.17329   0.17991
  Beta virt. eigenvalues --    0.18196   0.18664   0.19561   0.20044   0.20538

 Mulliken charges and spin densities:
               1          2
     1  C   -0.324094   0.108325
     2  C   -0.260905   0.248671
     3  C   -0.105939  -0.052261
     4  N   -0.172413   0.155635
     5  C   -0.093208   0.061684
     6  C   -0.184829   0.104877
     7  O   -0.342694   0.055481
     8  N    0.362564  -0.318373
     9  N    0.193930   0.260062
    10  N   -0.561068   0.307542
    11  H    0.085699  -0.002944
    12  H    0.124352  -0.006057
    13  H    0.172592   0.081062
    14  H    0.106015  -0.003704
 Sum of Mulliken charges =  -1.00000   1.00000

 Dipole moment (field-independent basis, Debye):
    X=             -1.9462    Y=             -0.6630    Z=             -1.5149  Tot=              2.5539
 Quadrupole moment (field-independent basis, Debye-Ang):
   XX=            -89.3516   YY=            -68.5312   ZZ=            -65.9676
   XY=             -0.2833   XZ=              2.8675   YZ=             -0.9604

 Summary of Natural Population Analysis:

                                       Natural Population
                Natural  -----------------------------------------------
    Atom  No    Charge         Core      Valence    Rydberg      Total
 -----------------------------------------------------------------------
      C    1   -0.12494      0.99952     2.11631    0.00911     3.12494
      C    2   -0.03721      0.99954     2.02919    0.00848     3.03721
      C    3   -0.08709      0.99953     2.07258    0.01498     3.08709
      N    4   -0.18434      0.99972     2.67331    0.01131     3.68434
      C    5    0.03774      0.99964     1.94714    0.01548     2.96226
      C    6    0.37826      0.99965     1.59587    0.02622     2.62174
      O    7   -0.29829      0.99987     3.29144    0.00699     4.29829
      N    8   -0.23098      0.99966     2.71585    0.01546     3.73098
      N    9    0.15843      0.99971     2.32474    0.01713     3.34157
      N   10    0.00763      0.99981     2.47965    0.01291     3.49237
      H   11    0.09154      0.00000     0.40726    0.00119     0.40846
      H   12    0.09285      0.00000     0.40609    0.00106     0.40715
      H   13    0.11884      0.00000     0.37926    0.00190     0.38116
      H   14    0.07757      0.00000     0.42112    0.00131     0.42243
 =======================================================================
   * Total *    0.00000      9.99666    24.85982    0.14352    35.00000

 Normal termination of Gaussian 16 at Tue Dec  8 10:42:14 2020.
