 Gaussian 16, Revision A.03,

 -----------------------------------------------------------
 # opt freq B3LYP/6-31G(d) empiricaldispersion=gd3bj scf=xqc
 -----------------------------------------------------------

 -----------------------------
 CID_66236500_JID_397_neutraal
 -----------------------------
 Symbolic Z-matrix:
 Charge =  0 Multiplicity = 1

 SCF Done:  E(RB3LYP) =  -511.829730382     A.U. after   14 cycles
 SCF Done:  E(RB3LYP) =  -511.834651718     A.U. after   12 cycles
 SCF Done:  E(RB3LYP) =  -511.831414086     A.U. after   13 cycles
 SCF Done:  E(RB3LYP) =  -511.835329751     A.U. after   12 cycles
 SCF Done:  E(RB3LYP) =  -511.835734026     A.U. after   12 cycles
 SCF Done:  E(RB3LYP) =  -511.835894049     A.U. after   12 cycles
 SCF Done:  E(RB3LYP) =  -511.836018896     A.U. after   11 cycles
 SCF Done:  E(RB3LYP) =  -511.836043598     A.U. after   10 cycles
 SCF Done:  E(RB3LYP) =  -511.836050950     A.U. after    9 cycles
 SCF Done:  E(RB3LYP) =  -511.836060384     A.U. after   10 cycles
 SCF Done:  E(RB3LYP) =  -511.836064023     A.U. after    9 cycles
 SCF Done:  E(RB3LYP) =  -511.836068089     A.U. after    9 cycles
 SCF Done:  E(RB3LYP) =  -511.836071527     A.U. after    9 cycles
 SCF Done:  E(RB3LYP) =  -511.836072624     A.U. after    8 cycles
 SCF Done:  E(RB3LYP) =  -511.836073717     A.U. after    8 cycles
 SCF Done:  E(RB3LYP) =  -511.836074297     A.U. after    8 cycles
 Optimization completed.
    -- Stationary point found.
 Normal termination of Gaussian 16 at Tue Dec  8 10:37:10 2020.

 --------------------------------------------------------------------
 #N Geom=AllCheck Guess=TCheck SCRF=Check GenChk RB3LYP/6-31G(d) Freq
 --------------------------------------------------------------------

 Structure from the checkpoint file:  "JID_397.chk"
 -----------------------------
 CID_66236500_JID_397_neutraal
 -----------------------------
 Charge =  0 Multiplicity = 1

 SCF Done:  E(RB3LYP) =  -511.836074297     A.U. after    1 cycles

  Exact polarizability:  81.157  -1.193  74.694  -0.580   6.555  67.525
 Approx polarizability: 109.089  -6.190 115.341  -2.490  14.706  99.603

                      1                      2                      3
                      A                      A                      A
 Frequencies --     53.5058                81.0914               137.0416
 Red. masses --      4.2456                 3.9683                 3.9807
 Frc consts  --      0.0072                 0.0154                 0.0440
 IR Inten    --      1.7221                 0.7539                 3.7725

                      4                      5                      6
                      A                      A                      A
 Frequencies --    175.1309               225.7773               258.8688
 Red. masses --      4.0872                 4.2856                 3.6093
 Frc consts  --      0.0739                 0.1287                 0.1425
 IR Inten    --      1.2082                 6.6238                 5.6129

                      7                      8                      9
                      A                      A                      A
 Frequencies --    303.0134               329.4087               337.8335
 Red. masses --      1.3623                 2.2659                 2.0373
 Frc consts  --      0.0737                 0.1449                 0.1370
 IR Inten    --     33.9543                 8.5701                17.1830

                     10                     11                     12
                      A                      A                      A
 Frequencies --    357.4713               448.6972               480.6975
 Red. masses --      1.1693                 3.6122                 3.8975
 Frc consts  --      0.0880                 0.4285                 0.5306
 IR Inten    --     17.7422                 8.9482                 5.6611

                     13                     14                     15
                      A                      A                      A
 Frequencies --    595.2277               618.5490               628.6000
 Red. masses --      1.5328                 3.0207                 3.7120
 Frc consts  --      0.3200                 0.6809                 0.8642
 IR Inten    --     91.7063                18.5045                 7.5044

                     16                     17                     18
                      A                      A                      A
 Frequencies --    681.9062               766.6852               798.5136
 Red. masses --      4.5963                 5.7035                 2.8527
 Frc consts  --      1.2592                 1.9753                 1.0717
 IR Inten    --     36.2303                 3.2648                29.5371

                     19                     20                     21
                      A                      A                      A
 Frequencies --    890.4874               911.7958               953.2876
 Red. masses --      1.5316                 2.4943                 3.9750
 Frc consts  --      0.7156                 1.2218                 2.1283
 IR Inten    --    207.7907                11.1239                23.7811

                     22                     23                     24
                      A                      A                      A
 Frequencies --    963.3470               987.2043              1016.9147
 Red. masses --      1.9627                 1.6911                 1.8340
 Frc consts  --      1.0732                 0.9710                 1.1174
 IR Inten    --    100.1041               113.4917                 3.7460

                     25                     26                     27
                      A                      A                      A
 Frequencies --   1041.1370              1092.3051              1106.4886
 Red. masses --      3.0866                 2.3567                 3.4853
 Frc consts  --      1.9713                 1.6567                 2.5141
 IR Inten    --     35.5535                 6.2847                71.1232

                     28                     29                     30
                      A                      A                      A
 Frequencies --   1149.9667              1209.8505              1228.0029
 Red. masses --      2.9091                 1.2467                 2.1352
 Frc consts  --      2.2667                 1.0752                 1.8971
 IR Inten    --     19.9002                 4.0620                 1.0574

                     31                     32                     33
                      A                      A                      A
 Frequencies --   1240.5012              1275.6399              1293.5773
 Red. masses --      1.3736                 1.2968                 1.2716
 Frc consts  --      1.2454                 1.2434                 1.2536
 IR Inten    --     11.5771                15.8126                 5.8074

                     34                     35                     36
                      A                      A                      A
 Frequencies --   1311.6276              1353.6863              1360.7570
 Red. masses --      1.3650                 1.4443                 1.3020
 Frc consts  --      1.3836                 1.5594                 1.4204
 IR Inten    --     11.4957                 6.6405                25.5945

                     37                     38                     39
                      A                      A                      A
 Frequencies --   1371.3466              1395.9239              1416.9169
 Red. masses --      1.2650                 1.6177                 1.6260
 Frc consts  --      1.4016                 1.8573                 1.9234
 IR Inten    --     18.0588                41.3251                64.0651

                     40                     41                     42
                      A                      A                      A
 Frequencies --   1449.1519              1469.7955              1530.0625
 Red. masses --      1.3609                 1.5745                 1.0828
 Frc consts  --      1.6838                 2.0040                 1.4936
 IR Inten    --      1.1985                31.7843                 0.9272

                     43                     44                     45
                      A                      A                      A
 Frequencies --   1545.7435              1700.0430              1757.7286
 Red. masses --      1.0994                 1.0907                 1.0727
 Frc consts  --      1.5477                 1.8572                 1.9528
 IR Inten    --      3.7944                28.2421                35.7837

                     46                     47                     48
                      A                      A                      A
 Frequencies --   1772.1927              3005.8095              3019.2087
 Red. masses --      7.6612                 1.0717                 1.0717
 Frc consts  --     14.1764                 5.7050                 5.7557
 IR Inten    --    286.3531                44.6586                69.7186

                     49                     50                     51
                      A                      A                      A
 Frequencies --   3096.4089              3116.8133              3131.8536
 Red. masses --      1.0854                 1.0860                 1.0954
 Frc consts  --      6.1314                 6.2158                 6.3306
 IR Inten    --     18.2437                 9.9988                19.2028

                     52                     53                     54
                      A                      A                      A
 Frequencies --   3139.0604              3441.4136              3465.8502
 Red. masses --      1.0949                 1.0473                 1.0503
 Frc consts  --      6.3567                 7.3081                 7.4335
 IR Inten    --     25.1453                24.9806                 0.4183

                     55                     56                     57
                      A                      A                      A
 Frequencies --   3534.4231              3556.1750              3595.8882
 Red. masses --      1.0970                 1.0921                 1.0769
 Frc consts  --      8.0743                 8.1370                 8.2045
 IR Inten    --     49.5114                 0.2236                29.8270

 - Thermochemistry -
 -------------------
 Temperature   298.150 Kelvin.  Pressure   1.00000 Atm.
 Atom     1 has atomic number  6 and mass  12.00000

 Molecular mass:   145.08513 amu.
 Principal axes and moments of inertia in atomic units:
                           1         2         3
     Eigenvalues --  1033.252461574.591981896.99205
           X            0.99858   0.05285   0.00702
           Y           -0.05292   0.99853   0.01131
           Z           -0.00642  -0.01167   0.99991
 This molecule is an asymmetric top.
 Rotational symmetry number  1.
 Warning -- assumption of classical behavior for rotation
           may cause significant error
 Rotational temperatures (Kelvin)      0.08383     0.05501     0.04566
 Rotational constants (GHZ):           1.74666     1.14616     0.95137
 Zero-point vibrational energy     473580.1 (Joules/Mol)
                                  113.18835 (Kcal/Mol)
 Warning -- explicit consideration of  14 degrees of freedom as
           vibrations may cause significant error
 Vibrational temperatures:     76.98   116.67   197.17   251.97   324.84
          (Kelvin)            372.45   435.97   473.95   486.07   514.32
                              645.58   691.62   856.40   889.95   904.42
                              981.11  1103.09  1148.88  1281.21  1311.87
                             1371.57  1386.04  1420.37  1463.11  1497.96
                             1571.58  1591.99  1654.55  1740.70  1766.82
                             1784.80  1835.36  1861.17  1887.14  1947.65
                             1957.83  1973.06  2008.42  2038.63  2085.01
                             2114.71  2201.42  2223.98  2445.98  2528.98
                             2549.79  4324.69  4343.97  4455.04  4484.40
                             4506.04  4516.41  4951.43  4986.59  5085.25
                             5116.54  5173.68

 Zero-point correction=                           0.180377 (Hartree/Particle)
 Thermal correction to Energy=                    0.190364
 Thermal correction to Enthalpy=                  0.191308
 Thermal correction to Gibbs Free Energy=         0.144950
 Sum of electronic and zero-point Energies=           -511.655697
 Sum of electronic and thermal Energies=              -511.645710
 Sum of electronic and thermal Enthalpies=            -511.644766
 Sum of electronic and thermal Free Energies=         -511.691124

                     E (Thermal)             CV                S
                      KCal/Mol        Cal/Mol-Kelvin    Cal/Mol-Kelvin
 Total                  119.455             37.292             97.569
 Electronic               0.000              0.000              0.000
 Translational            0.889              2.981             40.827
 Rotational               0.889              2.981             29.513
 Vibrational            117.678             31.330             27.228
 Vibration     1          0.596              1.976              4.683
 Vibration     2          0.600              1.962              3.864
 Vibration     3          0.614              1.916              2.845
 Vibration     4          0.627              1.873              2.380
 Vibration     5          0.650              1.802              1.912
 Vibration     6          0.668              1.748              1.669
 Vibration     7          0.694              1.668              1.400
 Vibration     8          0.712              1.617              1.263
 Vibration     9          0.718              1.600              1.222
 Vibration    10          0.733              1.560              1.133
 Vibration    11          0.808              1.364              0.800
 Vibration    12          0.837              1.293              0.708
 Vibration    13          0.953              1.042              0.458
 Vibration    14          0.978              0.993              0.419

 Optimization completed.
    -- Stationary point found.
 Normal termination of Gaussian 16 at Tue Dec  8 10:41:42 2020.

 ----------------------------------------------------------------------
 # B3LYP/6-311++G(d,p) empiricaldispersion=gd3bj scf=xqc pop=npa geom=c
 heck
 ----------------------------------------------------------------------

 -------------------------------------
 CID_66236500_JID_397_Energie_neutraal
 -------------------------------------
 Structure from the checkpoint file:  "JID_397.chk"
 Charge =  0 Multiplicity = 1

 SCF Done:  E(RB3LYP) =  -512.005114552     A.U. after   14 cycles
 Normal termination of Gaussian 16 at Tue Dec  8 10:44:27 2020.

 ----------------------------------------------------------------------
 # B3LYP/6-311++G(d,p) empiricaldispersion=gd3bj scf=xqc pop=npa geom=c
 heck
 ----------------------------------------------------------------------

 -----------------------------------
 CID_66236500_JID_397_Energie_kation
 -----------------------------------
 Structure from the checkpoint file:  "JID_397.chk"
 Charge =  1 Multiplicity = 2

 SCF Done:  E(UB3LYP) =  -511.678506179     A.U. after   29 cycles
 Normal termination of Gaussian 16 at Tue Dec  8 10:50:23 2020.
 Gaussian 16:  ES64L-G16RevA.03 25-Dec-2016

 ----------------------------------------------------------------------
 # B3LYP/6-311++G(d,p) empiricaldispersion=gd3bj scf=xqc pop=npa geom=c
 heck
 ----------------------------------------------------------------------

 ----------------------------------
 CID_66236500_JID_397_Energie_anion
 ----------------------------------
 Structure from the checkpoint file:  "JID_397.chk"
 Charge = -1 Multiplicity = 2

                         Standard orientation:
 ---------------------------------------------------------------------
 Center     Atomic      Atomic             Coordinates (Angstroms)
 Number     Number       Type             X           Y           Z
 ---------------------------------------------------------------------
      1          6           0        0.441616   -0.505663    1.517185
      2          6           0        0.027157    0.636345    0.559163
      3          6           0        1.062801    0.511901   -0.614424
      4          6           0        1.891751   -0.731349   -0.215218
      5          8           0        1.099707   -1.477764    0.703357
      6          7           0        1.943000    1.647122   -0.855494
      7          6           0       -1.448474    0.603844    0.168623
      8          8           0       -2.215111    1.482873    0.547461
      9          7           0       -1.925532   -0.439447   -0.585407
     10          7           0       -1.275956   -1.604867   -1.042015
     11          1           0       -0.391755   -0.998792    2.022906
     12          1           0        1.137491   -0.124678    2.279439
     13          1           0        0.144666    1.604506    1.050379
     14          1           0        0.533618    0.325372   -1.552616
     15          1           0        2.827537   -0.403535    0.265189
     16          1           0        2.144134   -1.382925   -1.054213
     17          1           0        1.407095    2.441593   -1.199093
     18          1           0        2.376567    1.946519    0.017464
     19          1           0       -2.932794   -0.451338   -0.686801
     20          1           0       -0.774801   -1.392706   -1.904142
     21          1           0       -0.588211   -1.915024   -0.356612
 ---------------------------------------------------------------------

 SCF Done:  E(UB3LYP) =  -511.993350847     A.U. after   29 cycles

 The electronic state is 2-A.
 Alpha  occ. eigenvalues --  -19.03297 -18.98646 -14.25748 -14.23116 -14.19039
 Alpha  occ. eigenvalues --  -10.17117 -10.12247 -10.11141 -10.10463 -10.08115
 Alpha  occ. eigenvalues --   -0.95256  -0.94005  -0.87349  -0.78781  -0.69898
 Alpha  occ. eigenvalues --   -0.67125  -0.63030  -0.53874  -0.49827  -0.48714
 Alpha  occ. eigenvalues --   -0.42531  -0.41485  -0.40748  -0.39020  -0.37975
 Alpha  occ. eigenvalues --   -0.35200  -0.33697  -0.32798  -0.30818  -0.29623
 Alpha  occ. eigenvalues --   -0.28365  -0.25906  -0.24674  -0.23398  -0.20256
 Alpha  occ. eigenvalues --   -0.16713  -0.16043  -0.14624  -0.13736   0.04753
 Alpha virt. eigenvalues --    0.07208   0.08207   0.08688   0.10185   0.10586
 Alpha virt. eigenvalues --    0.11285   0.11366   0.11921   0.12959   0.13636
 Alpha virt. eigenvalues --    0.14564   0.16254   0.16460   0.17120   0.17993

  Beta  occ. eigenvalues --  -19.03290 -18.98643 -14.25735 -14.23074 -14.18980
  Beta  occ. eigenvalues --  -10.17115 -10.12211 -10.11103 -10.10437 -10.08104
  Beta  occ. eigenvalues --   -0.95241  -0.93992  -0.87316  -0.78687  -0.69827
  Beta  occ. eigenvalues --   -0.67062  -0.62938  -0.53816  -0.49709  -0.48669
  Beta  occ. eigenvalues --   -0.42459  -0.41403  -0.40705  -0.38955  -0.37916
  Beta  occ. eigenvalues --   -0.35152  -0.33636  -0.32721  -0.30770  -0.29578
  Beta  occ. eigenvalues --   -0.28333  -0.25856  -0.24608  -0.23356  -0.20225
  Beta  occ. eigenvalues --   -0.16664  -0.16020  -0.14590  -0.13689
  Beta virt. eigenvalues --    0.07525   0.08547   0.09045   0.09301   0.10665
  Beta virt. eigenvalues --    0.11184   0.11599   0.12092   0.12370   0.13447
  Beta virt. eigenvalues --    0.14076   0.15046   0.16389   0.16462   0.17362

 Mulliken charges and spin densities:
               1          2
     1  C    1.211184  -1.746343
     2  C   -1.449883   1.928288
     3  C    1.390585  -1.846685
     4  C    0.697358  -1.043755
     5  O   -0.173580   0.048696
     6  N   -0.445813   0.157035
     7  C    0.281488  -0.535177
     8  O   -0.338349   0.003999
     9  N   -0.452272   0.149111
    10  N   -0.035153  -0.367314
    11  H   -0.120298   0.334437
    12  H   -0.565469   0.732958
    13  H   -0.009127   0.303251
    14  H   -0.419966   0.613911
    15  H   -0.113460   0.268080
    16  H   -0.438736   0.633753
    17  H   -0.275322   0.518455
    18  H   -0.188079   0.427050
    19  H    0.204843   0.114936
    20  H   -0.019411   0.278629
    21  H    0.259459   0.026687
 Sum of Mulliken charges =  -1.00000   1.00000

 Dipole moment (field-independent basis, Debye):
    X=             -3.1415    Y=             -2.3186    Z=              0.8486  Tot=              3.9956
 Quadrupole moment (field-independent basis, Debye-Ang):
   XX=           -104.1585   YY=           -100.3587   ZZ=            -98.1921
   XY=             -1.4665   XZ=              1.1110   YZ=             -3.0003

 Summary of Natural Population Analysis:

                                       Natural Population
                Natural  -----------------------------------------------
    Atom  No    Charge         Core      Valence    Rydberg      Total
 -----------------------------------------------------------------------
      C    1   -0.01138      0.99958     1.99825    0.01354     3.01138
      C    2   -0.17473      0.99954     2.16153    0.01367     3.17473
      C    3   -0.02314      0.99960     2.00901    0.01453     3.02314
      C    4   -0.01333      0.99957     2.00019    0.01356     3.01333
      O    5   -0.30513      0.99990     3.29597    0.00926     4.30513
      N    6   -0.41579      0.99976     2.90504    0.01099     3.91579
      C    7    0.34158      0.99962     1.63620    0.02260     2.65842
      O    8   -0.32539      0.99988     3.31936    0.00616     4.32539
      N    9   -0.23671      0.99966     2.72325    0.01380     3.73671
      N   10   -0.32518      0.99977     2.81326    0.01215     3.82518
      H   11    0.09401      0.00000     0.40466    0.00134     0.40599
      H   12    0.08980      0.00000     0.40791    0.00229     0.41020
      H   13    0.11963      0.00000     0.37857    0.00179     0.38037
      H   14    0.09781      0.00000     0.39922    0.00298     0.40219
      H   15    0.08511      0.00000     0.41288    0.00201     0.41489
      H   16    0.09796      0.00000     0.39994    0.00210     0.40204
      H   17    0.17921      0.00000     0.31791    0.00287     0.32079
      H   18    0.17663      0.00000     0.31838    0.00499     0.32337
      H   19    0.18786      0.00000     0.30977    0.00237     0.31214
      H   20    0.17443      0.00000     0.32205    0.00352     0.32557
      H   21    0.18676      0.00000     0.30956    0.00368     0.31324
 =======================================================================
   * Total *   -0.00000      9.99688    28.84292    0.16021    39.00000

 Normal termination of Gaussian 16 at Tue Dec  8 10:58:02 2020.
