 Gaussian 16, Revision A.03,

 -----------------------------------------------------------
 # opt freq B3LYP/6-31G(d) empiricaldispersion=gd3bj scf=xqc
 -----------------------------------------------------------

 ------------------------------
 CID_69746808_JID_3408_neutraal
 ------------------------------
 Symbolic Z-matrix:
 Charge =  0 Multiplicity = 1

 SCF Done:  E(RB3LYP) =  -610.129432239     A.U. after   14 cycles
 SCF Done:  E(RB3LYP) =  -610.138230361     A.U. after   12 cycles
 SCF Done:  E(RB3LYP) =  -610.142607427     A.U. after   13 cycles
 SCF Done:  E(RB3LYP) =  -610.144740475     A.U. after   12 cycles
 SCF Done:  E(RB3LYP) =  -610.145403363     A.U. after   11 cycles
 SCF Done:  E(RB3LYP) =  -610.145636934     A.U. after   11 cycles
 SCF Done:  E(RB3LYP) =  -610.145672056     A.U. after   10 cycles
 SCF Done:  E(RB3LYP) =  -610.145683774     A.U. after    9 cycles
 SCF Done:  E(RB3LYP) =  -610.145685865     A.U. after    8 cycles
 SCF Done:  E(RB3LYP) =  -610.145686005     A.U. after    7 cycles
 Optimization completed.
    -- Stationary point found.
 Normal termination of Gaussian 16 at Wed Dec  9 23:07:24 2020.

 --------------------------------------------------------------------
 #N Geom=AllCheck Guess=TCheck SCRF=Check GenChk RB3LYP/6-31G(d) Freq
 --------------------------------------------------------------------

 Structure from the checkpoint file:  "JID_3408.chk"
 ------------------------------
 CID_69746808_JID_3408_neutraal
 ------------------------------
 Charge =  0 Multiplicity = 1

 SCF Done:  E(RB3LYP) =  -610.145686005     A.U. after    1 cycles

  Exact polarizability: 141.241  -1.673 131.105   0.001   0.001  68.458
 Approx polarizability: 196.647   3.523 194.210   0.002  -0.000 101.232

                      1                      2                      3
                      A                      A                      A
 Frequencies --     56.4582                86.7962               101.9528
 Red. masses --      3.2388                 2.8705                 3.1700
 Frc consts  --      0.0061                 0.0127                 0.0194
 IR Inten    --      1.4665                 4.9444                 0.0846

                      4                      5                      6
                      A                      A                      A
 Frequencies --    141.7948               150.2992               168.2799
 Red. masses --      3.7676                 2.1505                 1.3611
 Frc consts  --      0.0446                 0.0286                 0.0227
 IR Inten    --      0.6748                 0.0922                 0.4001

                      7                      8                      9
                      A                      A                      A
 Frequencies --    185.3898               203.2963               249.7739
 Red. masses --      3.3734                 1.9565                 4.7384
 Frc consts  --      0.0683                 0.0476                 0.1742
 IR Inten    --      3.4865                 4.6058                 1.3264

                     10                     11                     12
                      A                      A                      A
 Frequencies --    270.5460               271.8685               340.8219
 Red. masses --      1.7218                 3.2922                 3.3640
 Frc consts  --      0.0743                 0.1434                 0.2302
 IR Inten    --      2.2409                 0.7044                 0.0768

                     13                     14                     15
                      A                      A                      A
 Frequencies --    386.2315               439.2540               524.7706
 Red. masses --      4.6630                 4.5454                 5.4501
 Frc consts  --      0.4098                 0.5167                 0.8843
 IR Inten    --     12.9610                 7.3791                 0.6076

                     16                     17                     18
                      A                      A                      A
 Frequencies --    563.1994               599.2597               697.1221
 Red. masses --      6.6047                 4.1550                 3.0859
 Frc consts  --      1.2343                 0.8791                 0.8836
 IR Inten    --      0.5332                 4.1510                 0.0122

                     19                     20                     21
                      A                      A                      A
 Frequencies --    705.5776               707.5521               791.2677
 Red. masses --      9.7281                 3.4183                 2.0051
 Frc consts  --      2.8534                 1.0083                 0.7397
 IR Inten    --      0.0345                 3.7983                 0.2982

                     22                     23                     24
                      A                      A                      A
 Frequencies --    804.5142               821.4669               836.2372
 Red. masses --      1.0868                 2.6429                 2.0645
 Frc consts  --      0.4145                 1.0508                 0.8506
 IR Inten    --      1.1503                41.3225                12.5409

                     25                     26                     27
                      A                      A                      A
 Frequencies --    892.8575               921.8473               960.0568
 Red. masses --      3.3598                 2.4668                 5.1878
 Frc consts  --      1.5781                 1.2351                 2.8173
 IR Inten    --      6.8423                 0.8026                 0.6111

                     28                     29                     30
                      A                      A                      A
 Frequencies --   1000.3013              1006.4198              1069.0498
 Red. masses --      6.0397                 5.7364                 1.3892
 Frc consts  --      3.5606                 3.4233                 0.9354
 IR Inten    --     45.4035                13.5855                47.7015

                     31                     32                     33
                      A                      A                      A
 Frequencies --   1087.6595              1094.0214              1094.2614
 Red. masses --      2.0487                 2.9300                 1.3439
 Frc consts  --      1.4280                 2.0662                 0.9481
 IR Inten    --     54.8279                74.8894                 2.7141

                     34                     35                     36
                      A                      A                      A
 Frequencies --   1141.4364              1167.0725              1184.8734
 Red. masses --      1.0950                 2.3795                 1.2650
 Frc consts  --      0.8406                 1.9096                 1.0463
 IR Inten    --      1.6480                17.7689                 0.4442

                     37                     38                     39
                      A                      A                      A
 Frequencies --   1186.1085              1197.3881              1217.3310
 Red. masses --      1.2725                 1.4929                 1.5018
 Frc consts  --      1.0548                 1.2611                 1.3113
 IR Inten    --      0.9372                93.7203                19.3339

                     40                     41                     42
                      A                      A                      A
 Frequencies --   1221.6085              1233.1254              1255.4452
 Red. masses --      1.3651                 1.9946                 2.2738
 Frc consts  --      1.2003                 1.7870                 2.1116
 IR Inten    --      0.3057                15.0015               353.9573

                     43                     44                     45
                      A                      A                      A
 Frequencies --   1310.0310              1360.5082              1428.9735
 Red. masses --      5.4645                 2.5785                 2.8531
 Frc consts  --      5.5255                 2.8120                 3.4325
 IR Inten    --     11.7384                21.8960               272.6536

                     46                     47                     48
                      A                      A                      A
 Frequencies --   1463.9624              1479.0146              1480.8915
 Red. masses --      1.8635                 1.0895                 3.3684
 Frc consts  --      2.3531                 1.4042                 4.3523
 IR Inten    --    128.1469                 2.0037                65.8526

                     49                     50                     51
                      A                      A                      A
 Frequencies --   1506.6083              1509.7787              1522.8547
 Red. masses --      1.4407                 1.0491                 1.0470
 Frc consts  --      1.9268                 1.4089                 1.4306
 IR Inten    --      9.1608                 5.2831                 6.3132

                     52                     53                     54
                      A                      A                      A
 Frequencies --   1524.6386              1526.1909              1530.8031
 Red. masses --      1.4083                 1.1287                 1.3362
 Frc consts  --      1.9287                 1.5490                 1.8449
 IR Inten    --     37.9796                60.1946                19.8804

                     55                     56                     57
                      A                      A                      A
 Frequencies --   1537.6044              1624.1360              1634.7881
 Red. masses --      1.4991                 6.9281                 8.1552
 Frc consts  --      2.0882                10.7674                12.8412
 IR Inten    --     15.9166               530.2630               472.6879

                     58                     59                     60
                      A                      A                      A
 Frequencies --   3038.1108              3071.4268              3101.4303
 Red. masses --      1.0342                 1.0292                 1.1071
 Frc consts  --      5.6243                 5.7204                 6.2741
 IR Inten    --     41.5469                42.6102                34.9924

                     61                     62                     63
                      A                      A                      A
 Frequencies --   3145.0016              3154.7069              3156.7158
 Red. masses --      1.1073                 1.0505                 1.0581
 Frc consts  --      6.4529                 6.1599                 6.2121
 IR Inten    --     23.3556                18.3121                15.7184

                     64                     65                     66
                      A                      A                      A
 Frequencies --   3169.6989              3173.7720              3207.4559
 Red. masses --      1.1008                 1.1072                 1.0908
 Frc consts  --      6.5163                 6.5708                 6.6119
 IR Inten    --     21.6855                26.9973                 4.9187

                     67                     68                     69
                      A                      A                      A
 Frequencies --   3239.3022              3252.0282              3264.9629
 Red. masses --      1.1195                 1.1162                 1.0920
 Frc consts  --      6.9211                 6.9550                 6.8586
 IR Inten    --      0.4080                13.1490                 1.4431

 - Thermochemistry -
 -------------------
 Temperature   298.150 Kelvin.  Pressure   1.00000 Atm.
 Atom     1 has atomic number  6 and mass  12.00000

 Molecular mass:   180.08988 amu.
 Principal axes and moments of inertia in atomic units:
                           1         2         3
     Eigenvalues --  2134.073362553.929524523.76893
           X            0.99767  -0.06821  -0.00000
           Y            0.06821   0.99767   0.00000
           Z            0.00000  -0.00000   1.00000
 This molecule is an asymmetric top.
 Rotational symmetry number  1.
 Warning -- assumption of classical behavior for rotation
           may cause significant error
 Rotational temperatures (Kelvin)      0.04059     0.03391     0.01915
 Rotational constants (GHZ):           0.84568     0.70665     0.39895
 Zero-point vibrational energy     541011.1 (Joules/Mol)
                                  129.30475 (Kcal/Mol)
 Warning -- explicit consideration of  17 degrees of freedom as
           vibrations may cause significant error
 Vibrational temperatures:     81.23   124.88   146.69   204.01   216.25
          (Kelvin)            242.12   266.73   292.50   359.37   389.26
                              391.16   490.37   555.70   631.99   755.03
                              810.32   862.20  1003.00  1015.17  1018.01
                             1138.46  1157.52  1181.91  1203.16  1284.62
                             1326.33  1381.31  1439.21  1448.01  1538.12
                             1564.90  1574.05  1574.40  1642.27  1679.16
                             1704.77  1706.55  1722.77  1751.47  1757.62
                             1774.19  1806.31  1884.84  1957.47  2055.97
                             2106.32  2127.97  2130.67  2167.67  2172.23
                             2191.05  2193.61  2195.85  2202.48  2212.27
                             2336.77  2352.10  4371.16  4419.10  4462.27
                             4524.96  4538.92  4541.81  4560.49  4566.35
                             4614.81  4660.63  4678.94  4697.55

 Zero-point correction=                           0.206060 (Hartree/Particle)
 Thermal correction to Energy=                    0.218366
 Thermal correction to Enthalpy=                  0.219310
 Thermal correction to Gibbs Free Energy=         0.167201
 Sum of electronic and zero-point Energies=           -609.939626
 Sum of electronic and thermal Energies=              -609.927320
 Sum of electronic and thermal Enthalpies=            -609.926376
 Sum of electronic and thermal Free Energies=         -609.978485

                     E (Thermal)             CV                S
                      KCal/Mol        Cal/Mol-Kelvin    Cal/Mol-Kelvin
 Total                  137.026             45.607            109.673
 Electronic               0.000              0.000              0.000
 Translational            0.889              2.981             41.472
 Rotational               0.889              2.981             31.578
 Vibrational            135.249             39.645             36.623
 Vibration     1          0.596              1.975              4.577
 Vibration     2          0.601              1.958              3.731
 Vibration     3          0.604              1.948              3.417
 Vibration     4          0.615              1.911              2.780
 Vibration     5          0.618              1.902              2.668
 Vibration     6          0.625              1.882              2.455
 Vibration     7          0.631              1.860              2.273
 Vibration     8          0.639              1.835              2.103
 Vibration     9          0.663              1.763              1.732
 Vibration    10          0.674              1.727              1.593
 Vibration    11          0.675              1.725              1.584
 Vibration    12          0.720              1.594              1.208
 Vibration    13          0.755              1.500              1.015
 Vibration    14          0.799              1.385              0.829
 Vibration    15          0.880              1.195              0.599
 Vibration    16          0.919              1.111              0.517
 Vibration    17          0.957              1.033              0.451

                           ! Non-Optimized Parameters !
 Normal termination of Gaussian 16 at Wed Dec  9 23:13:22 2020.

 ----------------------------------------------------------------------
 # B3LYP/6-311++G(d,p) empiricaldispersion=gd3bj scf=xqc pop=npa geom=c
 heck
 ----------------------------------------------------------------------

 --------------------------------------
 CID_69746808_JID_3408_Energie_neutraal
 --------------------------------------
 Structure from the checkpoint file:  "JID_3408.chk"
 Charge =  0 Multiplicity = 1

 SCF Done:  E(RB3LYP) =  -610.312876905     A.U. after   13 cycles
 Normal termination of Gaussian 16 at Wed Dec  9 23:15:44 2020.

 ----------------------------------------------------------------------
 # B3LYP/6-311++G(d,p) empiricaldispersion=gd3bj scf=xqc pop=npa geom=c
 heck
 ----------------------------------------------------------------------

 ------------------------------------
 CID_69746808_JID_3408_Energie_kation
 ------------------------------------
 Structure from the checkpoint file:  "JID_3408.chk"
 Charge =  1 Multiplicity = 2

 SCF Done:  E(UB3LYP) =  -610.000219213     A.U. after   22 cycles
 Normal termination of Gaussian 16 at Wed Dec  9 23:21:27 2020.
 Gaussian 16:  ES64L-G16RevA.03 25-Dec-2016

 ----------------------------------------------------------------------
 # B3LYP/6-311++G(d,p) empiricaldispersion=gd3bj scf=xqc pop=npa geom=c
 heck
 ----------------------------------------------------------------------

 -----------------------------------
 CID_69746808_JID_3408_Energie_anion
 -----------------------------------
 Structure from the checkpoint file:  "JID_3408.chk"
 Charge = -1 Multiplicity = 2

                         Standard orientation:
 ---------------------------------------------------------------------
 Center     Atomic      Atomic             Coordinates (Angstroms)
 Number     Number       Type             X           Y           Z
 ---------------------------------------------------------------------
      1          6           0        1.577177    3.366580   -0.000347
      2          8           0        2.075461    2.023393    0.000121
      3          6           0        1.163660    1.035169    0.000220
      4          6           0        1.651702   -0.278000    0.000224
      5          6           0        0.673847   -1.271720    0.000244
      6          7           0       -0.635388   -0.996670    0.000308
      7          6           0       -0.980127    0.291831    0.000270
      8          7           0       -0.131570    1.339090    0.000170
      9          6           0       -2.423899    0.617384    0.000261
     10          6           0       -3.389250   -0.288094   -0.747205
     11          6           0       -3.389456   -0.288701    0.746604
     12          8           0        0.940077   -2.594325    0.000206
     13          6           0        2.303639   -2.998704   -0.000539
     14          1           0        2.465852    3.999238   -0.001766
     15          1           0        0.970256    3.557901    0.888712
     16          1           0        0.968308    3.556607   -0.888333
     17          1           0        2.715795   -0.464593    0.000489
     18          1           0       -2.627151    1.682477    0.000592
     19          1           0       -4.209434    0.191067   -1.273955
     20          1           0       -2.947047   -1.143856   -1.246979
     21          1           0       -2.947212   -1.144886    1.245625
     22          1           0       -4.209903    0.189914    1.273419
     23          1           0        2.825973   -2.638663   -0.895304
     24          1           0        2.826509   -2.639989    0.894466
     25          1           0        2.288694   -4.089176   -0.001318
 ---------------------------------------------------------------------

 SCF Done:  E(UB3LYP) =  -610.296983365     A.U. after   33 cycles
 SCF Done:  E(UB3LYP) =  -610.296983365     a.u. after    1 cycles

 The electronic state is 2-A.
 Alpha  occ. eigenvalues --  -19.07041 -19.06844 -14.21185 -14.20913 -10.18250
 Alpha  occ. eigenvalues --  -10.18235 -10.15653 -10.12573 -10.12460 -10.09221
 Alpha  occ. eigenvalues --  -10.08710 -10.08682 -10.08226  -0.99588  -0.99134
 Alpha  occ. eigenvalues --   -0.88651  -0.79011  -0.77406  -0.69857  -0.63841
 Alpha  occ. eigenvalues --   -0.61734  -0.58647  -0.51951  -0.51443  -0.49285
 Alpha  occ. eigenvalues --   -0.46026  -0.44836  -0.40978  -0.39702  -0.39062
 Alpha  occ. eigenvalues --   -0.37928  -0.37792  -0.37546  -0.34532  -0.32993
 Alpha  occ. eigenvalues --   -0.32808  -0.29051  -0.28235  -0.27084  -0.26507
 Alpha  occ. eigenvalues --   -0.25687  -0.25627  -0.22845  -0.20674  -0.20177
 Alpha  occ. eigenvalues --   -0.17492  -0.17129  -0.15138   0.04395
 Alpha virt. eigenvalues --    0.05825   0.06493   0.06779   0.08220   0.08567
 Alpha virt. eigenvalues --    0.08625   0.08889   0.09748   0.09787   0.10699
 Alpha virt. eigenvalues --    0.11317   0.12379   0.12630   0.12672   0.13828

  Beta  occ. eigenvalues --  -19.07032 -19.06833 -14.21177 -14.20911 -10.18251
  Beta  occ. eigenvalues --  -10.18236 -10.15654 -10.12510 -10.12423 -10.09213
  Beta  occ. eigenvalues --  -10.08703 -10.08674 -10.08211  -0.99573  -0.99116
  Beta  occ. eigenvalues --   -0.88645  -0.79002  -0.77394  -0.69840  -0.63784
  Beta  occ. eigenvalues --   -0.61677  -0.58624  -0.51901  -0.51418  -0.49253
  Beta  occ. eigenvalues --   -0.46006  -0.44794  -0.40946  -0.39682  -0.39039
  Beta  occ. eigenvalues --   -0.37899  -0.37762  -0.37506  -0.34479  -0.32970
  Beta  occ. eigenvalues --   -0.32758  -0.29032  -0.28220  -0.27057  -0.26467
  Beta  occ. eigenvalues --   -0.25636  -0.25610  -0.22831  -0.20664  -0.20162
  Beta  occ. eigenvalues --   -0.17479  -0.17119  -0.15124
  Beta virt. eigenvalues --    0.06450   0.06790   0.07134   0.07481   0.08241
  Beta virt. eigenvalues --    0.08661   0.09212   0.09590   0.10133   0.10584
  Beta virt. eigenvalues --    0.11330   0.11679   0.12627   0.12750   0.13078

 Mulliken charges and spin densities:
               1          2
     1  C    0.786130  -1.085605
     2  O   -0.222253   0.068681
     3  C   -0.111744   0.249095
     4  C    1.221031  -1.141310
     5  C   -0.150108   0.054463
     6  N   -0.280022   0.096455
     7  C   -0.411345  -0.372102
     8  N   -0.146137   0.080679
     9  C   -0.389959   0.929711
    10  C    0.006280  -0.508387
    11  C    0.006341  -0.508640
    12  O   -0.117818   0.037829
    13  C    1.738458  -2.000253
    14  H   -0.341030   0.499426
    15  H   -0.256592   0.439332
    16  H   -0.256125   0.438937
    17  H   -0.344963   0.593020
    18  H   -0.292303   0.578020
    19  H   -0.058714   0.197003
    20  H    0.101018   0.061640
    21  H    0.101050   0.061636
    22  H   -0.058490   0.196795
    23  H   -0.447481   0.609601
    24  H   -0.447159   0.609316
    25  H   -0.628062   0.814659
 Sum of Mulliken charges =  -1.00000   1.00000

 Dipole moment (field-independent basis, Debye):
    X=             -5.1156    Y=              0.8541    Z=              0.0028  Tot=              5.1864
 Quadrupole moment (field-independent basis, Debye-Ang):
   XX=           -142.6909   YY=           -150.7712   ZZ=           -102.0333
   XY=             13.8687   XZ=              0.0075   YZ=             -0.0057

 Summary of Natural Population Analysis:

                                       Natural Population
                Natural  -----------------------------------------------
    Atom  No    Charge         Core      Valence    Rydberg      Total
 -----------------------------------------------------------------------
      C    1   -0.09931      0.99959     2.09163    0.00809     3.09931
      O    2   -0.26765      0.99985     3.25766    0.01013     4.26765
      C    3    0.29293      0.99947     1.69066    0.01695     2.70707
      C    4   -0.20386      0.99947     2.19580    0.00860     3.20386
      C    5    0.28670      0.99945     1.69683    0.01702     2.71330
      N    6   -0.27911      0.99962     2.76927    0.01021     3.77911
      C    7    0.23066      0.99959     1.75094    0.01881     2.76934
      N    8   -0.29046      0.99963     2.78115    0.00968     3.79046
      C    9   -0.13507      0.99956     2.12249    0.01303     3.13507
      C   10   -0.18850      0.99963     2.18248    0.00639     3.18850
      C   11   -0.18852      0.99963     2.18250    0.00640     3.18852
      O   12   -0.26149      0.99985     3.25159    0.01004     4.26149
      C   13   -0.10317      0.99960     2.09441    0.00917     3.10317
      H   14    0.09135      0.00000     0.40689    0.00176     0.40865
      H   15    0.09140      0.00000     0.40652    0.00208     0.40860
      H   16    0.09144      0.00000     0.40649    0.00208     0.40856
      H   17    0.11943      0.00000     0.37854    0.00203     0.38057
      H   18    0.11448      0.00000     0.38417    0.00135     0.38552
      H   19    0.10099      0.00000     0.39795    0.00106     0.39901
      H   20    0.11081      0.00000     0.38791    0.00128     0.38919
      H   21    0.11083      0.00000     0.38789    0.00128     0.38917
      H   22    0.10100      0.00000     0.39795    0.00106     0.39900
      H   23    0.08886      0.00000     0.40852    0.00262     0.41114
      H   24    0.08885      0.00000     0.40853    0.00262     0.41115
      H   25    0.09742      0.00000     0.40079    0.00179     0.40258
 =======================================================================
   * Total *    0.00000     12.99493    34.83956    0.16551    48.00000

 Normal termination of Gaussian 16 at Wed Dec  9 23:29:55 2020.
