 Gaussian 16, Revision A.03,

 -----------------------------------------------------------
 # opt freq B3LYP/6-31G(d) empiricaldispersion=gd3bj scf=xqc
 -----------------------------------------------------------

 ------------------------------
 CID_84006760_JID_1788_neutraal
 ------------------------------
 Symbolic Z-matrix:
 Charge =  0 Multiplicity = 1

 SCF Done:  E(RB3LYP) =  -536.362224702     A.U. after   14 cycles
 SCF Done:  E(RB3LYP) =  -536.364156475     A.U. after   12 cycles
 SCF Done:  E(RB3LYP) =  -536.362130461     A.U. after   13 cycles
 SCF Done:  E(RB3LYP) =  -536.364688591     A.U. after   12 cycles
 SCF Done:  E(RB3LYP) =  -536.366178493     A.U. after   14 cycles
 SCF Done:  E(RB3LYP) =  -536.367356355     A.U. after   12 cycles
 SCF Done:  E(RB3LYP) =  -536.367567822     A.U. after   12 cycles
 SCF Done:  E(RB3LYP) =  -536.367780757     A.U. after   11 cycles
 SCF Done:  E(RB3LYP) =  -536.367810210     A.U. after   11 cycles
 SCF Done:  E(RB3LYP) =  -536.367838892     A.U. after   10 cycles
 SCF Done:  E(RB3LYP) =  -536.367874197     A.U. after    8 cycles
 SCF Done:  E(RB3LYP) =  -536.367874269     A.U. after    7 cycles
 SCF Done:  E(RB3LYP) =  -536.367874289     A.U. after    7 cycles
 SCF Done:  E(RB3LYP) =  -536.367874303     A.U. after    7 cycles
 SCF Done:  E(RB3LYP) =  -536.367874312     A.U. after    7 cycles
 SCF Done:  E(RB3LYP) =  -536.367874313     A.U. after    7 cycles
 Optimization completed.
    -- Stationary point found.
 Normal termination of Gaussian 16 at Tue Dec  8 21:13:42 2020.

 --------------------------------------------------------------------
 #N Geom=AllCheck Guess=TCheck SCRF=Check GenChk RB3LYP/6-31G(d) Freq
 --------------------------------------------------------------------

 Structure from the checkpoint file:  "JID_1788.chk"
 ------------------------------
 CID_84006760_JID_1788_neutraal
 ------------------------------
 Charge =  0 Multiplicity = 1

 SCF Done:  E(RB3LYP) =  -536.367874313     A.U. after    1 cycles

  Exact polarizability:  99.799   4.662  91.566  -2.826  -0.274  87.296
 Approx polarizability: 122.879   8.640 135.196  -4.593  -0.162 125.384

                      1                      2                      3
                      A                      A                      A
 Frequencies --     24.7345                36.2063                63.9017
 Red. masses --      4.6974                 3.8474                 3.9706
 Frc consts  --      0.0017                 0.0030                 0.0096
 IR Inten    --      7.0831                 3.0873                 9.7102

                      4                      5                      6
                      A                      A                      A
 Frequencies --     80.8573               121.2063               156.7962
 Red. masses --      4.0925                 4.5119                 1.2790
 Frc consts  --      0.0158                 0.0391                 0.0185
 IR Inten    --      4.2425                17.3071               215.1236

                      7                      8                      9
                      A                      A                      A
 Frequencies --    161.7552               202.0883               234.9668
 Red. masses --      1.8650                 2.4440                 3.8232
 Frc consts  --      0.0288                 0.0588                 0.1244
 IR Inten    --      1.6712                 6.5067                 0.8715

                     10                     11                     12
                      A                      A                      A
 Frequencies --    244.3396               274.0314               292.4431
 Red. masses --      1.6403                 1.5724                 1.2027
 Frc consts  --      0.0577                 0.0696                 0.0606
 IR Inten    --      3.2142                 0.3487                39.9745

                     13                     14                     15
                      A                      A                      A
 Frequencies --    355.0621               388.7134               435.9908
 Red. masses --      2.3817                 2.3675                 2.1088
 Frc consts  --      0.1769                 0.2108                 0.2362
 IR Inten    --      6.4163                11.4329                 2.7995

                     16                     17                     18
                      A                      A                      A
 Frequencies --    462.0451               486.2713               521.2300
 Red. masses --      2.7279                 2.3961                 2.0137
 Frc consts  --      0.3431                 0.3338                 0.3223
 IR Inten    --      3.6348                 6.9378                11.2282

                     19                     20                     21
                      A                      A                      A
 Frequencies --    608.0206               632.4132               695.7959
 Red. masses --      1.7379                 2.4530                 2.1040
 Frc consts  --      0.3785                 0.5780                 0.6001
 IR Inten    --     10.9245                 7.0424                14.7155

                     22                     23                     24
                      A                      A                      A
 Frequencies --    775.9815               793.9873               819.2944
 Red. masses --      2.5788                 2.4419                 1.4750
 Frc consts  --      0.9149                 0.9070                 0.5833
 IR Inten    --      4.8875                 3.7054                 8.9191

                     25                     26                     27
                      A                      A                      A
 Frequencies --    877.7942               919.8042               964.0699
 Red. masses --      2.1281                 2.1836                 1.5971
 Frc consts  --      0.9661                 1.0885                 0.8746
 IR Inten    --      0.9904                51.3935               161.4970

                     28                     29                     30
                      A                      A                      A
 Frequencies --    970.9982              1001.6428              1023.0023
 Red. masses --      1.8506                 2.0204                 2.0617
 Frc consts  --      1.0280                 1.1943                 1.2713
 IR Inten    --      3.1447                11.6148                11.9907

                     31                     32                     33
                      A                      A                      A
 Frequencies --   1055.2517              1059.1743              1067.1301
 Red. masses --      2.2048                 2.4494                 1.3348
 Frc consts  --      1.4465                 1.6190                 0.8956
 IR Inten    --      9.8424                 3.7216                 2.5382

                     34                     35                     36
                      A                      A                      A
 Frequencies --   1112.5161              1126.0650              1153.4889
 Red. masses --      2.1415                 1.7721                 2.6141
 Frc consts  --      1.5617                 1.3239                 2.0492
 IR Inten    --     88.9431                17.8387                52.7377

                     37                     38                     39
                      A                      A                      A
 Frequencies --   1188.8444              1241.2224              1257.3294
 Red. masses --      2.2269                 1.2539                 1.6316
 Frc consts  --      1.8544                 1.1382                 1.5197
 IR Inten    --     45.2665                13.4169                 2.1799

                     40                     41                     42
                      A                      A                      A
 Frequencies --   1290.0292              1305.8053              1326.1076
 Red. masses --      1.2908                 1.3409                 1.4299
 Frc consts  --      1.2656                 1.3471                 1.4816
 IR Inten    --      4.7306                 5.9588                48.0459

                     43                     44                     45
                      A                      A                      A
 Frequencies --   1351.6678              1367.6534              1389.6400
 Red. masses --      1.2839                 1.4288                 1.3685
 Frc consts  --      1.3821                 1.5746                 1.5570
 IR Inten    --     40.5986                 3.2320                 7.7800

                     46                     47                     48
                      A                      A                      A
 Frequencies --   1408.0731              1424.7106              1439.1470
 Red. masses --      1.2305                 1.8733                 1.3935
 Frc consts  --      1.4375                 2.2403                 1.7005
 IR Inten    --     31.9856                62.7235                 3.5388

                     49                     50                     51
                      A                      A                      A
 Frequencies --   1442.7713              1454.5958              1486.5370
 Red. masses --      1.3210                 1.2417                 1.1513
 Frc consts  --      1.6201                 1.5479                 1.4989
 IR Inten    --      1.4340                 7.2021                11.3396

                     52                     53                     54
                      A                      A                      A
 Frequencies --   1516.0210              1527.7118              1529.3282
 Red. masses --      1.0816                 1.0601                 1.0717
 Frc consts  --      1.4647                 1.4578                 1.4768
 IR Inten    --      5.1565                 1.3370                 5.1468

                     55                     56                     57
                      A                      A                      A
 Frequencies --   1545.0799              1550.5933              1645.3609
 Red. masses --      1.0745                 1.0606                 1.2650
 Frc consts  --      1.5113                 1.5024                 2.0178
 IR Inten    --      0.9549                 2.9845               101.0171

                     58                     59                     60
                      A                      A                      A
 Frequencies --   1702.7234              1790.7842              3018.7465
 Red. masses --      1.0884                 8.4166                 1.0807
 Frc consts  --      1.8591                15.9029                 5.8023
 IR Inten    --     22.0001               308.0946                12.0608

                     61                     62                     63
                      A                      A                      A
 Frequencies --   3040.8781              3041.9607              3046.6396
 Red. masses --      1.0675                 1.0589                 1.0506
 Frc consts  --      5.8159                 5.7732                 5.7457
 IR Inten    --     18.2146                51.9822                58.6690

                     64                     65                     66
                      A                      A                      A
 Frequencies --   3047.1404              3069.8566              3088.2382
 Red. masses --      1.0593                 1.0588                 1.0961
 Frc consts  --      5.7948                 5.8792                 6.1589
 IR Inten    --     17.3330                32.2064                20.3304

                     67                     68                     69
                      A                      A                      A
 Frequencies --   3097.5328              3106.8722              3118.2116
 Red. masses --      1.1015                 1.1012                 1.0996
 Frc consts  --      6.2268                 6.2624                 6.2994
 IR Inten    --     17.1800                45.6383                11.8732

                     70                     71                     72
                      A                      A                      A
 Frequencies --   3120.2847              3128.3699              3439.6287
 Red. masses --      1.1059                 1.0998                 1.0495
 Frc consts  --      6.3437                 6.3416                 7.3160
 IR Inten    --     43.6659                14.6928                 3.9974

                     73                     74                     75
                      A                      A                      A
 Frequencies --   3522.3001              3595.0272              3724.6597
 Red. masses --      1.0907                 1.0453                 1.1050
 Frc consts  --      7.9729                 7.9595                 9.0321
 IR Inten    --      1.7900                39.4265                32.1270

 - Thermochemistry -
 -------------------
 Temperature   298.150 Kelvin.  Pressure   1.00000 Atm.
 Atom     1 has atomic number  6 and mass  12.00000

 Molecular mass:   160.12118 amu.
 Principal axes and moments of inertia in atomic units:
                           1         2         3
     Eigenvalues --  1075.640372930.549183336.36388
           X            0.99964   0.02669  -0.00020
           Y           -0.02669   0.99955  -0.01400
           Z           -0.00017   0.01400   0.99990
 This molecule is an asymmetric top.
 Rotational symmetry number  1.
 Warning -- assumption of classical behavior for rotation
           may cause significant error
 Rotational temperatures (Kelvin)      0.08052     0.02956     0.02596
 Rotational constants (GHZ):           1.67783     0.61584     0.54093
 Zero-point vibrational energy     631551.4 (Joules/Mol)
                                  150.94441 (Kcal/Mol)
 Warning -- explicit consideration of  19 degrees of freedom as
           vibrations may cause significant error
 Vibrational temperatures:     35.59    52.09    91.94   116.34   174.39
          (Kelvin)            225.59   232.73   290.76   338.06   351.55
                              394.27   420.76   510.86   559.27   627.29
                              664.78   699.64   749.93   874.81   909.90
                             1001.10  1116.46  1142.37  1178.78  1262.95
                             1323.39  1387.08  1397.05  1441.14  1471.87
                             1518.27  1523.92  1535.36  1600.66  1620.16
                             1659.61  1710.48  1785.84  1809.02  1856.06
                             1878.76  1907.97  1944.75  1967.75  1999.38
                             2025.90  2049.84  2070.61  2075.83  2092.84
                             2138.80  2181.22  2198.04  2200.36  2223.03
                             2230.96  2367.31  2449.84  2576.54  4343.30
                             4375.15  4376.70  4383.43  4384.16  4416.84
                             4443.29  4456.66  4470.10  4486.41  4489.39
                             4501.03  4948.86  5067.80  5172.44  5358.95

 Zero-point correction=                           0.240545 (Hartree/Particle)
 Thermal correction to Energy=                    0.253987
 Thermal correction to Enthalpy=                  0.254931
 Thermal correction to Gibbs Free Energy=         0.199355
 Sum of electronic and zero-point Energies=           -536.127329
 Sum of electronic and thermal Energies=              -536.113887
 Sum of electronic and thermal Enthalpies=            -536.112943
 Sum of electronic and thermal Free Energies=         -536.168519

                     E (Thermal)             CV                S
                      KCal/Mol        Cal/Mol-Kelvin    Cal/Mol-Kelvin
 Total                  159.379             48.053            116.970
 Electronic               0.000              0.000              0.000
 Translational            0.889              2.981             41.121
 Rotational               0.889              2.981             30.732
 Vibrational            157.602             42.092             45.118
 Vibration     1          0.593              1.985              6.212
 Vibration     2          0.594              1.982              5.457
 Vibration     3          0.597              1.972              4.333
 Vibration     4          0.600              1.962              3.870
 Vibration     5          0.609              1.932              3.081
 Vibration     6          0.620              1.895              2.588
 Vibration     7          0.622              1.889              2.529
 Vibration     8          0.639              1.837              2.114
 Vibration     9          0.655              1.787              1.841
 Vibration    10          0.660              1.772              1.771
 Vibration    11          0.676              1.721              1.571
 Vibration    12          0.688              1.688              1.460
 Vibration    13          0.731              1.565              1.144
 Vibration    14          0.757              1.494              1.005
 Vibration    15          0.796              1.392              0.839
 Vibration    16          0.820              1.334              0.760
 Vibration    17          0.842              1.280              0.693
 Vibration    18          0.876              1.203              0.607
 Vibration    19          0.967              1.015              0.436

 Optimization completed.
    -- Stationary point found.
 Normal termination of Gaussian 16 at Tue Dec  8 21:20:37 2020.

 ----------------------------------------------------------------------
 # B3LYP/6-311++G(d,p) empiricaldispersion=gd3bj scf=xqc pop=npa geom=c
 heck
 ----------------------------------------------------------------------

 --------------------------------------
 CID_84006760_JID_1788_Energie_neutraal
 --------------------------------------
 Structure from the checkpoint file:  "JID_1788.chk"
 Charge =  0 Multiplicity = 1

 SCF Done:  E(RB3LYP) =  -536.543481590     A.U. after   13 cycles
 Normal termination of Gaussian 16 at Tue Dec  8 21:24:12 2020.

 ----------------------------------------------------------------------
 # B3LYP/6-311++G(d,p) empiricaldispersion=gd3bj scf=xqc pop=npa geom=c
 heck
 ----------------------------------------------------------------------

 ------------------------------------
 CID_84006760_JID_1788_Energie_kation
 ------------------------------------
 Structure from the checkpoint file:  "JID_1788.chk"
 Charge =  1 Multiplicity = 2

 SCF Done:  E(UB3LYP) =  -536.230985028     A.U. after   23 cycles
 Normal termination of Gaussian 16 at Tue Dec  8 21:32:00 2020.
 Gaussian 16:  ES64L-G16RevA.03 25-Dec-2016

 ----------------------------------------------------------------------
 # B3LYP/6-311++G(d,p) empiricaldispersion=gd3bj scf=xqc pop=npa geom=c
 heck
 ----------------------------------------------------------------------

 -----------------------------------
 CID_84006760_JID_1788_Energie_anion
 -----------------------------------
 Structure from the checkpoint file:  "JID_1788.chk"
 Charge = -1 Multiplicity = 2

                         Standard orientation:
 ---------------------------------------------------------------------
 Center     Atomic      Atomic             Coordinates (Angstroms)
 Number     Number       Type             X           Y           Z
 ---------------------------------------------------------------------
      1          6           0        1.719428    2.217568   -0.181286
      2          6           0        2.399913    0.867022   -0.426309
      3          6           0        2.138767   -0.185079    0.661644
      4          6           0        0.655047   -0.566320    0.802198
      5          8           0        0.208396   -1.322599   -0.329892
      6          6           0       -0.559630   -0.627818   -1.300436
      7          6           0       -2.058877   -0.658271   -0.992365
      8          6           0       -2.450089    0.317534    0.113615
      9          8           0       -1.995570    1.454286    0.176113
     10          7           0       -3.363639   -0.149075    1.010473
     11          7           0        2.995895   -1.351881    0.404033
     12          1           0        0.626357    2.148847   -0.185538
     13          1           0        2.007563    2.940805   -0.952357
     14          1           0        2.018824    2.634358    0.788637
     15          1           0        2.091693    0.458366   -1.398639
     16          1           0        3.485623    0.999917   -0.486931
     17          1           0        2.448665    0.244485    1.626060
     18          1           0        0.537661   -1.225553    1.672512
     19          1           0        0.026244    0.314271    0.961025
     20          1           0       -0.238070    0.413027   -1.407222
     21          1           0       -0.379032   -1.142203   -2.250112
     22          1           0       -2.608540   -0.349975   -1.892161
     23          1           0       -2.360058   -1.685214   -0.757433
     24          1           0       -3.700815   -1.098836    0.995044
     25          1           0       -3.661222    0.462508    1.757695
     26          1           0        2.917880   -2.001495    1.187615
     27          1           0        2.591469   -1.847923   -0.391868
 ---------------------------------------------------------------------

 SCF Done:  E(UB3LYP) =  -536.533613496     A.U. after   31 cycles

 The electronic state is 2-A.
 Alpha  occ. eigenvalues --  -19.02174 -18.98164 -14.22008 -14.19471 -10.16800
 Alpha  occ. eigenvalues --  -10.11678 -10.10725 -10.10018 -10.07054 -10.07050
 Alpha  occ. eigenvalues --  -10.06482  -0.93516  -0.92804  -0.79417  -0.79140
 Alpha  occ. eigenvalues --   -0.67940  -0.66959  -0.61053  -0.55860  -0.52682
 Alpha  occ. eigenvalues --   -0.47676  -0.46357  -0.42655  -0.40717  -0.39320
 Alpha  occ. eigenvalues --   -0.38548  -0.36688  -0.35342  -0.34966  -0.33055
 Alpha  occ. eigenvalues --   -0.31515  -0.30798  -0.29359  -0.28596  -0.27324
 Alpha  occ. eigenvalues --   -0.26439  -0.26176  -0.24305  -0.23130  -0.21009
 Alpha  occ. eigenvalues --   -0.17005  -0.16541  -0.15457  -0.14366   0.04560
 Alpha virt. eigenvalues --    0.06972   0.07343   0.07816   0.09249   0.09781
 Alpha virt. eigenvalues --    0.10385   0.10565   0.11072   0.12155   0.12449
 Alpha virt. eigenvalues --    0.12764   0.13691   0.14008   0.14441   0.15166

  Beta  occ. eigenvalues --  -19.02170 -18.98155 -14.21909 -14.19459 -10.16795
  Beta  occ. eigenvalues --  -10.11667 -10.10710 -10.10013 -10.07050 -10.07004
  Beta  occ. eigenvalues --  -10.06478  -0.93498  -0.92786  -0.79289  -0.79114
  Beta  occ. eigenvalues --   -0.67919  -0.66917  -0.61012  -0.55823  -0.52630
  Beta  occ. eigenvalues --   -0.47591  -0.46265  -0.42563  -0.40687  -0.39270
  Beta  occ. eigenvalues --   -0.38523  -0.36659  -0.35312  -0.34951  -0.33020
  Beta  occ. eigenvalues --   -0.31496  -0.30771  -0.29325  -0.28571  -0.27273
  Beta  occ. eigenvalues --   -0.26401  -0.26160  -0.24296  -0.23114  -0.20989
  Beta  occ. eigenvalues --   -0.16987  -0.16466  -0.15426  -0.14349
  Beta virt. eigenvalues --    0.06822   0.07835   0.07845   0.08448   0.09745
  Beta virt. eigenvalues --    0.10488   0.10765   0.10917   0.11286   0.12588
  Beta virt. eigenvalues --    0.12920   0.13099   0.14039   0.14189   0.14630

 Mulliken charges and spin densities:
               1          2
     1  C   -0.382747  -0.233834
     2  C   -0.086670   0.094772
     3  C   -0.068717  -0.466282
     4  C   -0.012105  -0.219771
     5  O   -0.057526   0.015619
     6  C   -0.995572   0.770061
     7  C    2.433257  -2.841727
     8  C   -0.065034  -0.007613
     9  O   -0.312759  -0.022924
    10  N   -0.323838   0.125668
    11  N   -0.285478   0.023071
    12  H    0.169431  -0.004056
    13  H    0.093336   0.029315
    14  H    0.061678   0.057821
    15  H   -0.041489   0.186826
    16  H    0.167012   0.011150
    17  H   -0.003492   0.170629
    18  H   -0.335363   0.519346
    19  H    0.166814  -0.052400
    20  H    0.484768  -0.333712
    21  H   -0.258478   0.415422
    22  H   -0.402198   0.574527
    23  H   -0.276736   0.477653
    24  H   -0.494885   0.770611
    25  H   -0.491367   0.784227
    26  H    0.099490   0.129002
    27  H    0.218667   0.026598
 Sum of Mulliken charges =  -1.00000   1.00000

 Dipole moment (field-independent basis, Debye):
    X=              8.2514    Y=              3.2293    Z=             -2.5860  Tot=              9.2304
 Quadrupole moment (field-independent basis, Debye-Ang):
   XX=           -146.8800   YY=           -104.5336   ZZ=           -100.6858
   XY=             -5.6158   XZ=              8.5325   YZ=              1.2204

 Summary of Natural Population Analysis:

                                       Natural Population
                Natural  -----------------------------------------------
    Atom  No    Charge         Core      Valence    Rydberg      Total
 -----------------------------------------------------------------------
      C    1   -0.29282      0.99966     2.28863    0.00452     3.29282
      C    2   -0.19503      0.99962     2.18753    0.00788     3.19503
      C    3   -0.02538      0.99960     2.01273    0.01305     3.02538
      C    4   -0.02282      0.99953     2.00914    0.01415     3.02282
      O    5   -0.31120      0.99989     3.30094    0.01037     4.31120
      C    6   -0.00756      0.99956     1.99445    0.01354     3.00756
      C    7   -0.24489      0.99958     2.23483    0.01048     3.24489
      C    8    0.33669      0.99969     1.63938    0.02423     2.66331
      O    9   -0.33675      0.99987     3.33064    0.00624     4.33675
      N   10   -0.39273      0.99970     2.88462    0.00841     3.89273
      N   11   -0.42453      0.99977     2.91507    0.00969     3.92453
      H   12    0.11021      0.00000     0.38867    0.00112     0.38979
      H   13    0.09543      0.00000     0.40374    0.00083     0.40457
      H   14    0.09385      0.00000     0.40522    0.00093     0.40615
      H   15    0.09433      0.00000     0.40439    0.00128     0.40567
      H   16    0.09943      0.00000     0.39931    0.00126     0.40057
      H   17    0.08863      0.00000     0.41027    0.00110     0.41137
      H   18    0.08851      0.00000     0.40981    0.00168     0.41149
      H   19    0.09686      0.00000     0.40129    0.00185     0.40314
      H   20    0.08790      0.00000     0.41032    0.00178     0.41210
      H   21    0.08770      0.00000     0.41105    0.00125     0.41230
      H   22    0.11300      0.00000     0.38550    0.00150     0.38700
      H   23    0.10920      0.00000     0.38806    0.00274     0.39080
      H   24    0.20510      0.00000     0.26651    0.02839     0.29490
      H   25    0.19801      0.00000     0.29639    0.00561     0.30199
      H   26    0.17235      0.00000     0.32609    0.00156     0.32765
      H   27    0.17649      0.00000     0.32136    0.00215     0.32351
 =======================================================================
   * Total *    0.00000     10.99648    32.82594    0.17758    44.00000

 Normal termination of Gaussian 16 at Tue Dec  8 21:41:50 2020.
