 Gaussian 16, Revision A.03,

 -----------------------------------------------------------
 # opt freq B3LYP/6-31G(d) empiricaldispersion=gd3bj scf=xqc
 -----------------------------------------------------------

 -------------------------------
 CID_149425955_JID_1733_neutraal
 -------------------------------
 Symbolic Z-matrix:
 Charge =  0 Multiplicity = 1

 SCF Done:  E(RB3LYP) =  -428.627361883     A.U. after   14 cycles
 SCF Done:  E(RB3LYP) =  -428.655822292     A.U. after   13 cycles
 SCF Done:  E(RB3LYP) =  -428.685360323     A.U. after   13 cycles
 SCF Done:  E(RB3LYP) =  -428.689267993     A.U. after   11 cycles
 SCF Done:  E(RB3LYP) =  -428.690219112     A.U. after   10 cycles
 SCF Done:  E(RB3LYP) =  -428.690286266     A.U. after   10 cycles
 SCF Done:  E(RB3LYP) =  -428.690304601     A.U. after    9 cycles
 SCF Done:  E(RB3LYP) =  -428.690308809     A.U. after    8 cycles
 SCF Done:  E(RB3LYP) =  -428.690309215     A.U. after    7 cycles
 Optimization completed.
    -- Stationary point found.
 Normal termination of Gaussian 16 at Tue Dec  8 20:12:36 2020.

 --------------------------------------------------------------------
 #N Geom=AllCheck Guess=TCheck SCRF=Check GenChk RB3LYP/6-31G(d) Freq
 --------------------------------------------------------------------

 Structure from the checkpoint file:  "JID_1733.chk"
 -------------------------------
 CID_149425955_JID_1733_neutraal
 -------------------------------
 Charge =  0 Multiplicity = 1

 SCF Done:  E(RB3LYP) =  -428.690309215     A.U. after    1 cycles

  Exact polarizability: 142.749  -0.879 109.127   0.533   0.212  85.090
 Approx polarizability: 171.393   0.291 171.824   1.504   2.622 135.385

                      1                      2                      3
                      A                      A                      A
 Frequencies --     81.1277               134.6774               156.5892
 Red. masses --      3.0347                 2.5349                 2.8597
 Frc consts  --      0.0118                 0.0271                 0.0413
 IR Inten    --      0.5313                 0.0855                 1.1016

                      4                      5                      6
                      A                      A                      A
 Frequencies --    202.0731               237.6655               274.0678
 Red. masses --      1.7415                 1.2127                 2.1601
 Frc consts  --      0.0419                 0.0404                 0.0956
 IR Inten    --      1.1982                 0.6738                 0.7273

                      7                      8                      9
                      A                      A                      A
 Frequencies --    306.6432               330.9035               366.1623
 Red. masses --      2.2575                 2.4398                 3.5636
 Frc consts  --      0.1251                 0.1574                 0.2815
 IR Inten    --      0.4239                 0.7654                 0.3371

                     10                     11                     12
                      A                      A                      A
 Frequencies --    413.8583               478.8624               488.6015
 Red. masses --      2.7461                 2.5148                 2.5089
 Frc consts  --      0.2771                 0.3398                 0.3529
 IR Inten    --      1.6504                 0.0340                 0.0596

                     13                     14                     15
                      A                      A                      A
 Frequencies --    547.2976               612.7548               681.2738
 Red. masses --      3.3628                 4.4277                 3.0383
 Frc consts  --      0.5935                 0.9795                 0.8309
 IR Inten    --      3.4278                 0.0331                 1.1844

                     16                     17                     18
                      A                      A                      A
 Frequencies --    712.8584               735.4426               787.9378
 Red. masses --      2.1244                 2.2695                 3.2392
 Frc consts  --      0.6360                 0.7232                 1.1849
 IR Inten    --      1.2746                 0.7776                 1.4834

                     19                     20                     21
                      A                      A                      A
 Frequencies --    837.0018               846.8181               910.8297
 Red. masses --      2.6952                 1.5020                 2.5965
 Frc consts  --      1.1125                 0.6346                 1.2691
 IR Inten    --      0.2822                 2.4595                 1.9487

                     22                     23                     24
                      A                      A                      A
 Frequencies --    921.2201               935.9737               952.4209
 Red. masses --      1.8981                 1.3158                 2.1133
 Frc consts  --      0.9491                 0.6792                 1.1294
 IR Inten    --      0.7819                 2.1955                 0.2599

                     25                     26                     27
                      A                      A                      A
 Frequencies --    985.5793              1011.5870              1032.6675
 Red. masses --      2.5512                 1.9144                 1.3973
 Frc consts  --      1.4601                 1.1542                 0.8779
 IR Inten    --      1.4753                 1.0777                 2.0932

                     28                     29                     30
                      A                      A                      A
 Frequencies --   1067.8350              1080.4740              1092.8339
 Red. masses --      2.2802                 3.4329                 2.0648
 Frc consts  --      1.5319                 2.3612                 1.4529
 IR Inten    --      0.7820                 1.1517                 0.3625

                     31                     32                     33
                      A                      A                      A
 Frequencies --   1098.3121              1115.3489              1132.9202
 Red. masses --      2.0061                 2.2954                 1.7275
 Frc consts  --      1.4258                 1.6824                 1.3064
 IR Inten    --      0.9443                 1.2917                 3.8369

                     34                     35                     36
                      A                      A                      A
 Frequencies --   1152.0211              1164.4821              1184.6348
 Red. masses --      1.2317                 1.8618                 1.3235
 Frc consts  --      0.9631                 1.4875                 1.0943
 IR Inten    --      2.7239                 1.8086                 9.6162

                     37                     38                     39
                      A                      A                      A
 Frequencies --   1211.6735              1219.4210              1224.4282
 Red. masses --      2.3169                 1.4382                 1.5216
 Frc consts  --      2.0041                 1.2600                 1.3441
 IR Inten    --     11.1348                 2.3479                 3.2057

                     40                     41                     42
                      A                      A                      A
 Frequencies --   1236.6067              1265.6020              1285.3119
 Red. masses --      1.4650                 1.3501                 1.4438
 Frc consts  --      1.3199                 1.2741                 1.4054
 IR Inten    --      4.9687                 0.9053                 0.7124

                     43                     44                     45
                      A                      A                      A
 Frequencies --   1294.2827              1369.9565              1372.9236
 Red. masses --      1.2323                 1.3097                 1.8390
 Frc consts  --      1.2163                 1.4482                 2.0424
 IR Inten    --      1.8002                22.2046                 3.2289

                     46                     47                     48
                      A                      A                      A
 Frequencies --   1382.4941              1385.3054              1395.9739
 Red. masses --      1.3503                 1.4744                 1.5043
 Frc consts  --      1.5206                 1.6671                 1.7271
 IR Inten    --      6.1372                 0.5381                 2.5926

                     49                     50                     51
                      A                      A                      A
 Frequencies --   1432.8602              1439.0617              1452.8805
 Red. masses --      1.1844                 1.2538                 1.1021
 Frc consts  --      1.4327                 1.5299                 1.3707
 IR Inten    --      6.8637                 6.2067                 3.4573

                     52                     53                     54
                      A                      A                      A
 Frequencies --   1502.6670              1509.8772              1516.6376
 Red. masses --      1.1073                 1.0808                 1.0924
 Frc consts  --      1.4732                 1.4517                 1.4804
 IR Inten    --      0.4389                 2.4725                 3.7207

                     55                     56                     57
                      A                      A                      A
 Frequencies --   1516.7974              1524.2382              1524.4451
 Red. masses --      1.0918                 1.0495                 1.0528
 Frc consts  --      1.4799                 1.4366                 1.4415
 IR Inten    --      0.6303                 4.1688                 5.3204

                     58                     59                     60
                      A                      A                      A
 Frequencies --   1526.3174              1696.8600              2981.3139
 Red. masses --      1.0990                 8.4623                 1.0823
 Frc consts  --      1.5084                14.3558                 5.6677
 IR Inten    --      0.2034                 0.0186                18.2904

                     61                     62                     63
                      A                      A                      A
 Frequencies --   3004.0240              3010.7585              3010.9871
 Red. masses --      1.0823                 1.0675                 1.0673
 Frc consts  --      5.7547                 5.7012                 5.7011
 IR Inten    --     29.8470                42.6316                30.8059

                     64                     65                     66
                      A                      A                      A
 Frequencies --   3033.9256              3036.8108              3036.9693
 Red. masses --      1.0701                 1.0664                 1.0362
 Frc consts  --      5.8035                 5.7943                 5.6310
 IR Inten    --     21.9904                 9.0097                32.1285

                     67                     68                     69
                      A                      A                      A
 Frequencies --   3052.1328              3052.6569              3065.0746
 Red. masses --      1.0857                 1.0897                 1.0574
 Frc consts  --      5.9590                 5.9827                 5.8527
 IR Inten    --     87.3572                10.5796                72.3033

                     70                     71                     72
                      A                      A                      A
 Frequencies --   3073.9490              3081.9883              3086.6382
 Red. masses --      1.0864                 1.0979                 1.1058
 Frc consts  --      6.0482                 6.1442                 6.2072
 IR Inten    --     14.8411                68.0163                59.3846

                     73                     74                     75
                      A                      A                      A
 Frequencies --   3102.6941              3106.5200              3127.4843
 Red. masses --      1.1018                 1.1021                 1.1091
 Frc consts  --      6.2492                 6.2663                 6.3918
 IR Inten    --     32.3037                34.8652                58.7309

 - Thermochemistry -
 -------------------
 Temperature   298.150 Kelvin.  Pressure   1.00000 Atm.
 Atom     1 has atomic number  6 and mass  12.00000

 Molecular mass:   148.12520 amu.
 Principal axes and moments of inertia in atomic units:
                           1         2         3
     Eigenvalues --   675.800752787.939493305.51724
           X            0.99999   0.00352  -0.00214
           Y           -0.00353   0.99996  -0.00842
           Z            0.00211   0.00843   0.99996
 This molecule is an asymmetric top.
 Rotational symmetry number  1.
 Warning -- assumption of classical behavior for rotation
           may cause significant error
 Rotational temperatures (Kelvin)      0.12816     0.03107     0.02620
 Rotational constants (GHZ):           2.67052     0.64734     0.54598
 Zero-point vibrational energy     641331.8 (Joules/Mol)
                                  153.28198 (Kcal/Mol)
 Warning -- explicit consideration of  14 degrees of freedom as
           vibrations may cause significant error
 Vibrational temperatures:    116.72   193.77   225.30   290.74   341.95
          (Kelvin)            394.32   441.19   476.10   526.83   595.45
                              688.98   702.99   787.44   881.62   980.20
                             1025.64  1058.14  1133.67  1204.26  1218.38
                             1310.48  1325.43  1346.66  1370.32  1418.03
                             1455.45  1485.78  1536.38  1554.56  1572.34
                             1580.23  1604.74  1630.02  1657.50  1675.43
                             1704.43  1743.33  1754.47  1761.68  1779.20
                             1820.92  1849.28  1862.18  1971.06  1975.33
                             1989.10  1993.15  2008.50  2061.57  2070.49
                             2090.37  2162.00  2172.38  2182.10  2182.33
                             2193.04  2193.34  2196.03  2441.40  4289.45
                             4322.12  4331.81  4332.14  4365.14  4369.29
                             4369.52  4391.34  4392.09  4409.96  4422.73
                             4434.29  4440.98  4464.08  4469.59  4499.75

 Zero-point correction=                           0.244270 (Hartree/Particle)
 Thermal correction to Energy=                    0.254186
 Thermal correction to Enthalpy=                  0.255130
 Thermal correction to Gibbs Free Energy=         0.209438
 Sum of electronic and zero-point Energies=           -428.446039
 Sum of electronic and thermal Energies=              -428.436123
 Sum of electronic and thermal Enthalpies=            -428.435179
 Sum of electronic and thermal Free Energies=         -428.480871

                     E (Thermal)             CV                S
                      KCal/Mol        Cal/Mol-Kelvin    Cal/Mol-Kelvin
 Total                  159.504             40.256             96.167
 Electronic               0.000              0.000              0.000
 Translational            0.889              2.981             40.889
 Rotational               0.889              2.981             30.211
 Vibrational            157.727             34.295             25.067
 Vibration     1          0.600              1.962              3.863
 Vibration     2          0.613              1.919              2.878
 Vibration     3          0.620              1.895              2.591
 Vibration     4          0.639              1.837              2.114
 Vibration     5          0.656              1.783              1.820
 Vibration     6          0.676              1.721              1.570
 Vibration     7          0.697              1.661              1.380
 Vibration     8          0.713              1.614              1.256
 Vibration     9          0.739              1.542              1.096
 Vibration    10          0.777              1.440              0.913
 Vibration    11          0.835              1.297              0.713
 Vibration    12          0.844              1.275              0.687
 Vibration    13          0.903              1.146              0.550
 Vibration    14          0.972              1.005              0.428

                           ! Non-Optimized Parameters !
 Normal termination of Gaussian 16 at Tue Dec  8 20:18:33 2020.

 ----------------------------------------------------------------------
 # B3LYP/6-311++G(d,p) empiricaldispersion=gd3bj scf=xqc pop=npa geom=c
 heck
 ----------------------------------------------------------------------

 ---------------------------------------
 CID_149425955_JID_1733_Energie_neutraal
 ---------------------------------------
 Structure from the checkpoint file:  "JID_1733.chk"
 Charge =  0 Multiplicity = 1

 SCF Done:  E(RB3LYP) =  -428.798359352     A.U. after   14 cycles
 Normal termination of Gaussian 16 at Tue Dec  8 20:21:29 2020.

 ----------------------------------------------------------------------
 # B3LYP/6-311++G(d,p) empiricaldispersion=gd3bj scf=xqc pop=npa geom=c
 heck
 ----------------------------------------------------------------------

 -------------------------------------
 CID_149425955_JID_1733_Energie_kation
 -------------------------------------
 Structure from the checkpoint file:  "JID_1733.chk"
 Charge =  1 Multiplicity = 2

 SCF Done:  E(UB3LYP) =  -428.511193682     A.U. after   19 cycles
 Normal termination of Gaussian 16 at Tue Dec  8 20:27:43 2020.
 Gaussian 16:  ES64L-G16RevA.03 25-Dec-2016

 ----------------------------------------------------------------------
 # B3LYP/6-311++G(d,p) empiricaldispersion=gd3bj scf=xqc pop=npa geom=c
 heck
 ----------------------------------------------------------------------

 ------------------------------------
 CID_149425955_JID_1733_Energie_anion
 ------------------------------------
 Structure from the checkpoint file:  "JID_1733.chk"
 Charge = -1 Multiplicity = 2

                         Standard orientation:
 ---------------------------------------------------------------------
 Center     Atomic      Atomic             Coordinates (Angstroms)
 Number     Number       Type             X           Y           Z
 ---------------------------------------------------------------------
      1          6           0        3.668853    1.015239   -0.170238
      2          6           0        2.561368    0.150673    0.405162
      3          6           0        2.323930   -1.316165   -0.219077
      4          6           0        0.829246   -1.077214    0.189257
      5          6           0        1.073370    0.394079   -0.059085
      6          6           0       -0.472286    0.567301    0.120069
      7          6           0       -0.679347   -0.755250   -0.073023
      8          6           0       -2.008271   -1.425818   -0.189473
      9          6           0       -3.096847   -0.415796    0.245480
     10          6           0       -2.855849    0.997909   -0.321040
     11          6           0       -1.528776    1.620762    0.174517
     12          1           0        3.555989    1.124782   -1.255853
     13          1           0        4.655919    0.576642    0.021366
     14          1           0        3.655767    2.018402    0.272508
     15          1           0        2.659637    0.061465    1.492748
     16          1           0        2.520990   -1.307774   -1.295751
     17          1           0        2.854928   -2.153049    0.247597
     18          1           0        0.856690   -1.248192    1.274221
     19          1           0        1.208273    0.536956   -1.142160
     20          1           0       -2.185271   -1.760626   -1.223221
     21          1           0       -2.055532   -2.330349    0.432457
     22          1           0       -3.105582   -0.360922    1.342498
     23          1           0       -4.086235   -0.774826   -0.061999
     24          1           0       -3.697208    1.650705   -0.059686
     25          1           0       -2.827528    0.939831   -1.417561
     26          1           0       -1.642927    2.003580    1.200442
     27          1           0       -1.260261    2.489058   -0.442894
 ---------------------------------------------------------------------

 SCF Done:  E(UB3LYP) =  -428.779447189     A.U. after   33 cycles
 SCF Done:  E(UB3LYP) =  -428.779447189     a.u. after    1 cycles

 The electronic state is 2-A.
 Alpha  occ. eigenvalues --  -10.08366 -10.07477 -10.06855 -10.06809 -10.06746
 Alpha  occ. eigenvalues --  -10.06727 -10.06571 -10.06470 -10.06449 -10.06437
 Alpha  occ. eigenvalues --  -10.05514  -0.78353  -0.72081  -0.66626  -0.64083
 Alpha  occ. eigenvalues --   -0.60876  -0.55513  -0.51874  -0.48922  -0.46867
 Alpha  occ. eigenvalues --   -0.46018  -0.39093  -0.38022  -0.34748  -0.32955
 Alpha  occ. eigenvalues --   -0.32540  -0.32065  -0.30512  -0.30399  -0.30155
 Alpha  occ. eigenvalues --   -0.28552  -0.26642  -0.25702  -0.24778  -0.23867
 Alpha  occ. eigenvalues --   -0.22783  -0.21177  -0.20056  -0.19263  -0.13909
 Alpha  occ. eigenvalues --   -0.11502   0.04758
 Alpha virt. eigenvalues --    0.06349   0.07460   0.07955   0.08484   0.08829
 Alpha virt. eigenvalues --    0.09452   0.10305   0.10521   0.10873   0.11087
 Alpha virt. eigenvalues --    0.11352   0.12328   0.12872   0.13229   0.13690

  Beta  occ. eigenvalues --  -10.08353 -10.07457 -10.06839 -10.06802 -10.06732
  Beta  occ. eigenvalues --  -10.06714 -10.06562 -10.06449 -10.06431 -10.06427
  Beta  occ. eigenvalues --  -10.05480  -0.78328  -0.72051  -0.66590  -0.64046
  Beta  occ. eigenvalues --   -0.60827  -0.55462  -0.51823  -0.48864  -0.46814
  Beta  occ. eigenvalues --   -0.45961  -0.39055  -0.37977  -0.34709  -0.32921
  Beta  occ. eigenvalues --   -0.32507  -0.32021  -0.30471  -0.30363  -0.30106
  Beta  occ. eigenvalues --   -0.28510  -0.26604  -0.25664  -0.24734  -0.23820
  Beta  occ. eigenvalues --   -0.22739  -0.21135  -0.20024  -0.19229  -0.13888
  Beta  occ. eigenvalues --   -0.11461
  Beta virt. eigenvalues --    0.06904   0.07420   0.08074   0.08377   0.09084
  Beta virt. eigenvalues --    0.09484   0.09833   0.10694   0.10749   0.11190
  Beta virt. eigenvalues --    0.11631   0.11864   0.12702   0.13152   0.13435

 Mulliken charges and spin densities:
               1          2
     1  C    2.028245  -2.843643
     2  C   -3.080803   3.472845
     3  C    1.731433  -2.678396
     4  C   -0.637421   0.641661
     5  C    0.834442  -1.326169
     6  C    0.578465  -0.058857
     7  C   -0.278864   0.856428
     8  C    0.387417  -0.895502
     9  C    0.283873  -0.537138
    10  C   -0.563469   0.329208
    11  C    0.564890  -1.277871
    12  H   -0.277423   0.418029
    13  H   -0.414357   0.563840
    14  H   -0.112871   0.256313
    15  H   -0.535592   0.743654
    16  H   -0.086032   0.241311
    17  H   -0.237535   0.379728
    18  H    0.051445   0.109443
    19  H    0.058526   0.093026
    20  H   -0.073763   0.209980
    21  H   -0.176374   0.349330
    22  H    0.084497   0.047063
    23  H   -0.482752   0.651471
    24  H   -0.595025   0.762903
    25  H    0.190913  -0.061887
    26  H   -0.054442   0.195583
    27  H   -0.187421   0.357649
 Sum of Mulliken charges =  -1.00000   1.00000

 Dipole moment (field-independent basis, Debye):
    X=             -0.9349    Y=             -0.9398    Z=             -0.7609  Tot=              1.5284
 Quadrupole moment (field-independent basis, Debye-Ang):
   XX=           -157.9410   YY=           -110.2825   ZZ=            -95.9645
   XY=             -0.5713   XZ=             -1.0500   YZ=              0.1461

 Summary of Natural Population Analysis:

                                       Natural Population
                Natural  -----------------------------------------------
    Atom  No    Charge         Core      Valence    Rydberg      Total
 -----------------------------------------------------------------------
      C    1   -0.28908      0.99964     2.28327    0.00617     3.28908
      C    2   -0.09315      0.99959     2.08280    0.01076     3.09315
      C    3   -0.17371      0.99961     2.16513    0.00896     3.17371
      C    4   -0.11209      0.99945     2.10150    0.01115     3.11209
      C    5   -0.10744      0.99944     2.09582    0.01218     3.10744
      C    6    0.00172      0.99934     1.98767    0.01127     2.99828
      C    7   -0.00021      0.99934     1.98978    0.01110     3.00021
      C    8   -0.20450      0.99958     2.19622    0.00870     3.20450
      C    9   -0.18509      0.99964     2.17700    0.00845     3.18509
      C   10   -0.18492      0.99964     2.17678    0.00851     3.18492
      C   11   -0.20456      0.99957     2.19634    0.00865     3.20456
      H   12    0.09607      0.00000     0.40257    0.00135     0.40393
      H   13    0.10057      0.00000     0.39809    0.00134     0.39943
      H   14    0.10176      0.00000     0.39687    0.00137     0.39824
      H   15    0.09631      0.00000     0.40212    0.00157     0.40369
      H   16    0.09483      0.00000     0.40372    0.00145     0.40517
      H   17    0.09606      0.00000     0.40277    0.00118     0.40394
      H   18    0.08762      0.00000     0.40999    0.00239     0.41238
      H   19    0.08528      0.00000     0.41221    0.00251     0.41472
      H   20    0.10025      0.00000     0.39850    0.00124     0.39975
      H   21    0.10413      0.00000     0.39456    0.00131     0.39587
      H   22    0.09334      0.00000     0.40514    0.00152     0.40666
      H   23    0.09910      0.00000     0.39925    0.00165     0.40090
      H   24    0.09935      0.00000     0.39908    0.00157     0.40065
      H   25    0.09252      0.00000     0.40603    0.00145     0.40748
      H   26    0.10140      0.00000     0.39732    0.00129     0.39860
      H   27    0.10445      0.00000     0.39423    0.00133     0.39555
 =======================================================================
   * Total *   -0.00000     10.99482    29.87476    0.13042    41.00000

 Normal termination of Gaussian 16 at Tue Dec  8 20:37:51 2020.
