 Gaussian 16, Revision A.03,

 -----------------------------------------------------------
 # opt freq B3LYP/6-31G(d) empiricaldispersion=gd3bj scf=xqc
 -----------------------------------------------------------

 ------------------------------
 CID_130821866_JID_255_neutraal
 ------------------------------
 Symbolic Z-matrix:
 Charge =  0 Multiplicity = 1

 SCF Done:  E(RB3LYP) =  -885.469730654     A.U. after   15 cycles
 SCF Done:  E(RB3LYP) =  -885.478989405     A.U. after   13 cycles
 SCF Done:  E(RB3LYP) =  -885.480020716     A.U. after   12 cycles
 SCF Done:  E(RB3LYP) =  -885.480598201     A.U. after   12 cycles
 SCF Done:  E(RB3LYP) =  -885.481833248     A.U. after   13 cycles
 SCF Done:  E(RB3LYP) =  -885.482972354     A.U. after   12 cycles
 SCF Done:  E(RB3LYP) =  -885.484280840     A.U. after   12 cycles
 SCF Done:  E(RB3LYP) =  -885.484715643     A.U. after   12 cycles
 SCF Done:  E(RB3LYP) =  -885.484993799     A.U. after   12 cycles
 SCF Done:  E(RB3LYP) =  -885.485317984     A.U. after   12 cycles
 SCF Done:  E(RB3LYP) =  -885.487656185     A.U. after   10 cycles
 SCF Done:  E(RB3LYP) =  -885.487659441     A.U. after   10 cycles
 SCF Done:  E(RB3LYP) =  -885.487661058     A.U. after    8 cycles
 SCF Done:  E(RB3LYP) =  -885.487662609     A.U. after    9 cycles
 SCF Done:  E(RB3LYP) =  -885.487663164     A.U. after    8 cycles
 SCF Done:  E(RB3LYP) =  -885.487663305     A.U. after    8 cycles
 Optimization completed.
    -- Stationary point found.
 Normal termination of Gaussian 16 at Tue Dec  8 10:25:26 2020.

 --------------------------------------------------------------------
 #N Geom=AllCheck Guess=TCheck SCRF=Check GenChk RB3LYP/6-31G(d) Freq
 --------------------------------------------------------------------

 Structure from the checkpoint file:  "JID_255.chk"
 ------------------------------
 CID_130821866_JID_255_neutraal
 ------------------------------
 Charge =  0 Multiplicity = 1

 SCF Done:  E(RB3LYP) =  -885.487663305     A.U. after    1 cycles

  Exact polarizability: 104.452  -0.698  76.616   2.889  -1.525  48.286
 Approx polarizability: 145.631  -4.045 134.499   2.137  -8.201  80.646

                      1                      2                      3
                      A                      A                      A
 Frequencies --     44.1517                87.3931               151.8017
 Red. masses --      7.0132                 4.8595                 4.6828
 Frc consts  --      0.0081                 0.0219                 0.0636
 IR Inten    --      4.1241                 3.9945                14.4852

                      4                      5                      6
                      A                      A                      A
 Frequencies --    184.7934               248.9788               278.0422
 Red. masses --      1.0629                 1.5834                 3.8890
 Frc consts  --      0.0214                 0.0578                 0.1771
 IR Inten    --     31.8129                24.8355                15.8374

                      7                      8                      9
                      A                      A                      A
 Frequencies --    299.2677               347.5711               362.8664
 Red. masses --      3.9107                 7.2648                 3.4453
 Frc consts  --      0.2064                 0.5171                 0.2673
 IR Inten    --     17.4423                 2.4355                17.9172

                     10                     11                     12
                      A                      A                      A
 Frequencies --    407.9832               451.3781               510.9198
 Red. masses --      3.2807                 5.3408                 8.5599
 Frc consts  --      0.3217                 0.6411                 1.3165
 IR Inten    --      7.7834                13.0728                28.9734

                     13                     14                     15
                      A                      A                      A
 Frequencies --    567.2893               605.9067               650.3577
 Red. masses --      7.0781                 4.4667                 2.8258
 Frc consts  --      1.3421                 0.9662                 0.7042
 IR Inten    --    107.9058                17.2498               108.4000

                     16                     17                     18
                      A                      A                      A
 Frequencies --    700.8075               731.6784               745.6523
 Red. masses --      3.8107                 1.3686                 3.0553
 Frc consts  --      1.1027                 0.4317                 1.0009
 IR Inten    --    114.0283               114.3722               465.4842

                     19                     20                     21
                      A                      A                      A
 Frequencies --    766.6741               851.1830               877.9740
 Red. masses --      1.6658                 1.3969                 2.2238
 Frc consts  --      0.5769                 0.5963                 1.0100
 IR Inten    --    157.7530                24.4938                20.4817

                     22                     23                     24
                      A                      A                      A
 Frequencies --    985.5186              1029.5021              1091.7023
 Red. masses --      6.2589                 2.7423                 2.0356
 Frc consts  --      3.5816                 1.7125                 1.4294
 IR Inten    --      7.6761                40.5989                64.3830

                     25                     26                     27
                      A                      A                      A
 Frequencies --   1130.4861              1137.1531              1173.4312
 Red. masses --      1.9824                 1.2915                10.9125
 Frc consts  --      1.4927                 0.9840                 8.8530
 IR Inten    --     12.2507                 6.4581               234.2741

                     28                     29                     30
                      A                      A                      A
 Frequencies --   1227.8340              1290.5107              1361.0057
 Red. masses --      1.8277                 2.3029                 3.6582
 Frc consts  --      1.6234                 2.2597                 3.9924
 IR Inten    --      5.6941                35.7376               106.4684

                     31                     32                     33
                      A                      A                      A
 Frequencies --   1403.4605              1443.7627              1474.7870
 Red. masses --     10.6854                 5.8552                 3.8424
 Frc consts  --     12.4006                 7.1908                 4.9239
 IR Inten    --    193.0935                39.4366                11.2686

                     34                     35                     36
                      A                      A                      A
 Frequencies --   1636.5930              1651.4172              1698.8627
 Red. masses --      1.0994                 3.7415                 1.2520
 Frc consts  --      1.7350                 6.0118                 2.1290
 IR Inten    --     42.0530                32.1424                67.5530

                     37                     38                     39
                      A                      A                      A
 Frequencies --   3252.4525              3303.0909              3497.1530
 Red. masses --      1.0959                 1.0976                 1.0468
 Frc consts  --      6.8304                 7.0555                 7.5428
 IR Inten    --      5.3053                 6.2228                36.1160

                     40                     41                     42
                      A                      A                      A
 Frequencies --   3532.8353              3604.9346              3625.6285
 Red. masses --      1.0488                 1.0982                 1.0964
 Frc consts  --      7.7122                 8.4086                 8.4919
 IR Inten    --      8.5248                43.7688                 9.0522

 - Thermochemistry -
 -------------------
 Temperature   298.150 Kelvin.  Pressure   1.00000 Atm.
 Atom     1 has atomic number  6 and mass  12.00000

 Molecular mass:   162.02115 amu.
 Principal axes and moments of inertia in atomic units:
                           1         2         3
     Eigenvalues --   635.159222396.998202647.30915
           X            0.99980   0.01540   0.01308
           Y           -0.01581   0.99939   0.03117
           Z           -0.01259  -0.03137   0.99943
 This molecule is an asymmetric top.
 Rotational symmetry number  1.
 Warning -- assumption of classical behavior for rotation
           may cause significant error
 Rotational temperatures (Kelvin)      0.13637     0.03613     0.03272
 Rotational constants (GHZ):           2.84140     0.75292     0.68173
 Zero-point vibrational energy     301607.2 (Joules/Mol)
                                   72.08586 (Kcal/Mol)
 Warning -- explicit consideration of  14 degrees of freedom as
           vibrations may cause significant error
 Vibrational temperatures:     63.52   125.74   218.41   265.88   358.23
          (Kelvin)            400.04   430.58   500.08   522.08   587.00
                              649.43   735.10   816.20   871.76   935.72
                             1008.31  1052.72  1072.83  1103.07  1224.66
                             1263.21  1417.94  1481.22  1570.72  1626.52
                             1636.11  1688.31  1766.58  1856.76  1958.18
                             2019.27  2077.25  2121.89  2354.69  2376.02
                             2444.28  4679.55  4752.41  5031.62  5082.96
                             5186.70  5216.47

 Zero-point correction=                           0.114876 (Hartree/Particle)
 Thermal correction to Energy=                    0.124601
 Thermal correction to Enthalpy=                  0.125545
 Thermal correction to Gibbs Free Energy=         0.079337
 Sum of electronic and zero-point Energies=           -885.372787
 Sum of electronic and thermal Energies=              -885.363062
 Sum of electronic and thermal Enthalpies=            -885.362118
 Sum of electronic and thermal Free Energies=         -885.408327

                     E (Thermal)             CV                S
                      KCal/Mol        Cal/Mol-Kelvin    Cal/Mol-Kelvin
 Total                   78.188             35.797             97.255
 Electronic               0.000              0.000              0.000
 Translational            0.889              2.981             41.156
 Rotational               0.889              2.981             29.779
 Vibrational             76.411             29.836             26.320
 Vibration     1          0.595              1.980              5.064
 Vibration     2          0.601              1.958              3.718
 Vibration     3          0.619              1.901              2.650
 Vibration     4          0.631              1.861              2.279
 Vibration     5          0.662              1.764              1.738
 Vibration     6          0.679              1.714              1.546
 Vibration     7          0.692              1.675              1.421
 Vibration     8          0.725              1.580              1.177
 Vibration     9          0.737              1.549              1.110
 Vibration    10          0.773              1.453              0.934
 Vibration    11          0.810              1.358              0.792
 Vibration    12          0.866              1.226              0.631
 Vibration    13          0.923              1.102              0.509
 Vibration    14          0.965              1.019              0.440

                           ! Non-Optimized Parameters !
 Normal termination of Gaussian 16 at Tue Dec  8 10:27:57 2020.

 ----------------------------------------------------------------------
 # B3LYP/6-311++G(d,p) empiricaldispersion=gd3bj scf=xqc pop=npa geom=c
 heck
 ----------------------------------------------------------------------

 --------------------------------------
 CID_130821866_JID_255_Energie_neutraal
 --------------------------------------
 Structure from the checkpoint file:  "JID_255.chk"
 Charge =  0 Multiplicity = 1

 SCF Done:  E(RB3LYP) =  -885.668937205     A.U. after   15 cycles
 Normal termination of Gaussian 16 at Tue Dec  8 10:28:50 2020.

 ----------------------------------------------------------------------
 # B3LYP/6-311++G(d,p) empiricaldispersion=gd3bj scf=xqc pop=npa geom=c
 heck
 ----------------------------------------------------------------------

 ------------------------------------
 CID_130821866_JID_255_Energie_kation
 ------------------------------------
 Structure from the checkpoint file:  "JID_255.chk"
 Charge =  1 Multiplicity = 2

 SCF Done:  E(UB3LYP) =  -885.358611761     A.U. after   21 cycles
 Normal termination of Gaussian 16 at Tue Dec  8 10:30:56 2020.
 Gaussian 16:  ES64L-G16RevA.03 25-Dec-2016

 ----------------------------------------------------------------------
 # B3LYP/6-311++G(d,p) empiricaldispersion=gd3bj scf=xqc pop=npa geom=c
 heck
 ----------------------------------------------------------------------

 -----------------------------------
 CID_130821866_JID_255_Energie_anion
 -----------------------------------
 Structure from the checkpoint file:  "JID_255.chk"
 Charge = -1 Multiplicity = 2

                         Standard orientation:
 ---------------------------------------------------------------------
 Center     Atomic      Atomic             Coordinates (Angstroms)
 Number     Number       Type             X           Y           Z
 ---------------------------------------------------------------------
      1          6           0       -1.144360   -0.856503    0.117271
      2          6           0       -2.316280   -0.133564    0.018516
      3          6           0       -1.897556    1.228379   -0.043725
      4          7           0       -0.576456    1.349987    0.006014
      5          7           0       -0.129932    0.078761    0.142375
      6         16           0        1.556281   -0.226905   -0.103672
      7          8           0        1.786291   -1.500733    0.555775
      8          8           0        1.874566    0.008487   -1.499189
      9          7           0        2.259685    0.985264    0.784370
     10          7           0       -3.636731   -0.595795    0.072282
     11          1           0       -0.937334   -1.910778    0.211722
     12          1           0       -2.519899    2.111959   -0.107897
     13          1           0        1.985900    1.896496    0.419033
     14          1           0        2.027311    0.898185    1.771608
     15          1           0       -4.276635   -0.020611   -0.464373
     16          1           0       -3.733492   -1.564188   -0.211687
 ---------------------------------------------------------------------

 SCF Done:  E(UB3LYP) =  -885.660877328     A.U. after   31 cycles

 The electronic state is 2-A.
 Alpha  occ. eigenvalues --  -89.00364 -19.04302 -19.04126 -14.30327 -14.25949
 Alpha  occ. eigenvalues --  -14.24690 -14.21266 -10.11443 -10.10921 -10.10071
 Alpha  occ. eigenvalues --   -8.06287  -6.02597  -6.02488  -6.02466  -1.05745
 Alpha  occ. eigenvalues --   -0.95740  -0.94048  -0.83692  -0.80884  -0.73726
 Alpha  occ. eigenvalues --   -0.67680  -0.57710  -0.51348  -0.50057  -0.46741
 Alpha  occ. eigenvalues --   -0.44927  -0.42505  -0.39871  -0.38327  -0.37339
 Alpha  occ. eigenvalues --   -0.36266  -0.34948  -0.30729  -0.27521  -0.26158
 Alpha  occ. eigenvalues --   -0.25234  -0.24181  -0.23339  -0.22540  -0.21357
 Alpha  occ. eigenvalues --   -0.17219  -0.11350   0.04223
 Alpha virt. eigenvalues --    0.05858   0.07769   0.08150   0.09702   0.10210
 Alpha virt. eigenvalues --    0.11496   0.12915   0.13646   0.14130   0.15016
 Alpha virt. eigenvalues --    0.15536   0.15885   0.16300   0.16777   0.17298

  Beta  occ. eigenvalues --  -89.00356 -19.04284 -19.04108 -14.30316 -14.25871
  Beta  occ. eigenvalues --  -14.24683 -14.21180 -10.11441 -10.10904 -10.10047
  Beta  occ. eigenvalues --   -8.06276  -6.02587  -6.02481  -6.02459  -1.05695
  Beta  occ. eigenvalues --   -0.95717  -0.93996  -0.83575  -0.80770  -0.73698
  Beta  occ. eigenvalues --   -0.67616  -0.57639  -0.51277  -0.49980  -0.46683
  Beta  occ. eigenvalues --   -0.44836  -0.42466  -0.39797  -0.38255  -0.37285
  Beta  occ. eigenvalues --   -0.36196  -0.34922  -0.30685  -0.27489  -0.26116
  Beta  occ. eigenvalues --   -0.25205  -0.24136  -0.23294  -0.22486  -0.21320
  Beta  occ. eigenvalues --   -0.17199  -0.11299
  Beta virt. eigenvalues --    0.07049   0.07717   0.07964   0.09189   0.10638
  Beta virt. eigenvalues --    0.10972   0.12041   0.13310   0.13835   0.14252
  Beta virt. eigenvalues --    0.15042   0.15703   0.15996   0.16421   0.17000

 Mulliken charges and spin densities:
               1          2
     1  C    0.244625  -0.569500
     2  C    0.240175  -0.042807
     3  C    0.767103  -1.124614
     4  N   -0.308425   0.283949
     5  N   -0.113895  -0.061441
     6  S    1.196359  -0.768590
     7  O   -0.227448  -0.011677
     8  O   -0.124875  -0.009674
     9  N   -0.339957  -0.139517
    10  N   -0.303864  -0.044207
    11  H   -0.168051   0.350184
    12  H   -0.568824   0.734388
    13  H   -0.051262   0.355266
    14  H   -0.328478   0.630923
    15  H   -0.454466   0.712792
    16  H   -0.458717   0.704524
 Sum of Mulliken charges =  -1.00000   1.00000

 Dipole moment (field-independent basis, Debye):
    X=              5.1513    Y=             -0.0598    Z=              0.1412  Tot=              5.1536
 Quadrupole moment (field-independent basis, Debye-Ang):
   XX=           -140.1828   YY=            -96.5688   ZZ=            -92.7642
   XY=             -4.0561   XZ=             -5.6356   YZ=             -2.4782

 Summary of Natural Population Analysis:

                                       Natural Population
                Natural  -----------------------------------------------
    Atom  No    Charge         Core      Valence    Rydberg      Total
 -----------------------------------------------------------------------
      C    1   -0.03555      0.99949     2.02309    0.01297     3.03555
      C    2    0.03899      0.99949     1.94873    0.01278     2.96101
      C    3   -0.00933      0.99958     1.99546    0.01429     3.00933
      N    4   -0.15295      0.99972     2.63829    0.01494     3.65295
      N    5   -0.22513      0.99965     2.70577    0.01971     3.72513
      S    6    1.17020      4.99936     1.72430    0.10615     6.82980
      O    7   -0.44949      0.99990     3.44376    0.00583     4.44949
      O    8   -0.44010      0.99990     3.43474    0.00547     4.44010
      N    9   -0.50535      0.99977     2.99519    0.01039     4.00535
      N   10   -0.39798      0.99972     2.88732    0.01094     3.89798
      H   11    0.11464      0.00000     0.38427    0.00109     0.38536
      H   12    0.10218      0.00000     0.39625    0.00158     0.39782
      H   13    0.20657      0.00000     0.29021    0.00322     0.29343
      H   14    0.20318      0.00000     0.29061    0.00621     0.29682
      H   15    0.19112      0.00000     0.29718    0.01170     0.30888
      H   16    0.18901      0.00000     0.30324    0.00775     0.31099
 =======================================================================
   * Total *   -0.00000     13.99657    27.75840    0.24503    42.00000

 Normal termination of Gaussian 16 at Tue Dec  8 10:35:37 2020.
