 Gaussian 16, Revision A.03,

 -----------------------------------------------------------
 # opt freq B3LYP/6-31G(d) empiricaldispersion=gd3bj scf=xqc
 -----------------------------------------------------------

 -------------------------------
 CID_149519687_JID_7364_neutraal
 -------------------------------
 Symbolic Z-matrix:
 Charge =  0 Multiplicity = 1

 SCF Done:  E(RB3LYP) =  -745.132919839     A.U. after   14 cycles
 SCF Done:  E(RB3LYP) =  -745.141151792     A.U. after   12 cycles
 SCF Done:  E(RB3LYP) =  -745.143433615     A.U. after   12 cycles
 SCF Done:  E(RB3LYP) =  -745.143900033     A.U. after   11 cycles
 SCF Done:  E(RB3LYP) =  -745.144017779     A.U. after   11 cycles
 SCF Done:  E(RB3LYP) =  -745.144095983     A.U. after   11 cycles
 SCF Done:  E(RB3LYP) =  -745.144170663     A.U. after   10 cycles
 SCF Done:  E(RB3LYP) =  -745.144240352     A.U. after   11 cycles
 SCF Done:  E(RB3LYP) =  -745.144300116     A.U. after   11 cycles
 SCF Done:  E(RB3LYP) =  -745.144460564     A.U. after   11 cycles
 SCF Done:  E(RB3LYP) =  -745.147649502     A.U. after   10 cycles
 SCF Done:  E(RB3LYP) =  -745.147650308     A.U. after    9 cycles
 SCF Done:  E(RB3LYP) =  -745.147650410     A.U. after    8 cycles
 SCF Done:  E(RB3LYP) =  -745.147650431     A.U. after    7 cycles
 SCF Done:  E(RB3LYP) =  -745.147650450     A.U. after    7 cycles
 Optimization completed.
    -- Stationary point found.
 Normal termination of Gaussian 16 at Mon Dec 14 17:11:04 2020.

 --------------------------------------------------------------------
 #N Geom=AllCheck Guess=TCheck SCRF=Check GenChk RB3LYP/6-31G(d) Freq
 --------------------------------------------------------------------

 Structure from the checkpoint file:  "JID_7364.chk"
 -------------------------------
 CID_149519687_JID_7364_neutraal
 -------------------------------
 Charge =  0 Multiplicity = 1

 SCF Done:  E(RB3LYP) =  -745.147650450     A.U. after    1 cycles

  Exact polarizability: 180.073 -16.723 149.069  26.829  13.665 126.661
 Approx polarizability: 254.765 -33.322 236.032  57.578  26.313 211.718

                      1                      2                      3
                      A                      A                      A
 Frequencies --     13.9650                25.1310                36.3941
 Red. masses --      4.2346                 4.1703                 4.2830
 Frc consts  --      0.0005                 0.0016                 0.0033
 IR Inten    --      0.0447                 0.5946                 0.8865

                      4                      5                      6
                      A                      A                      A
 Frequencies --     74.8658                91.7183                96.4454
 Red. masses --      1.0503                 3.6813                 3.3335
 Frc consts  --      0.0035                 0.0182                 0.0183
 IR Inten    --      0.0016                 5.5698                 0.2463

                      7                      8                      9
                      A                      A                      A
 Frequencies --    123.0060               166.6463               183.2775
 Red. masses --      1.2025                 3.1806                 1.4801
 Frc consts  --      0.0107                 0.0520                 0.0293
 IR Inten    --      0.7652                 4.5682                28.5917

                     10                     11                     12
                      A                      A                      A
 Frequencies --    194.1811               228.0330               258.6589
 Red. masses --      1.8566                 3.7974                 2.8398
 Frc consts  --      0.0412                 0.1163                 0.1119
 IR Inten    --     29.4094                 5.3109                 3.5053

                     13                     14                     15
                      A                      A                      A
 Frequencies --    278.4361               284.8767               286.2286
 Red. masses --      3.1654                 1.5384                 1.5363
 Frc consts  --      0.1446                 0.0736                 0.0742
 IR Inten    --      2.3010                 9.6689                10.5321

                     16                     17                     18
                      A                      A                      A
 Frequencies --    298.0336               326.3264               343.2249
 Red. masses --      3.4607                 3.8821                 3.4219
 Frc consts  --      0.1811                 0.2436                 0.2375
 IR Inten    --      1.4408                 2.9665                 3.0536

                     19                     20                     21
                      A                      A                      A
 Frequencies --    427.0741               468.1833               475.8399
 Red. masses --      4.0058                 1.4674                 2.7878
 Frc consts  --      0.4305                 0.1895                 0.3719
 IR Inten    --      3.0768                57.3839                26.8257

                     22                     23                     24
                      A                      A                      A
 Frequencies --    487.4027               522.4166               530.4914
 Red. masses --      3.8717                 5.5546                 2.4912
 Frc consts  --      0.5419                 0.8932                 0.4131
 IR Inten    --     16.6044                 1.6699                17.8459

                     25                     26                     27
                      A                      A                      A
 Frequencies --    543.6062               594.9761               616.7324
 Red. masses --      6.2609                 3.6562                 4.0269
 Frc consts  --      1.0901                 0.7626                 0.9024
 IR Inten    --     10.8152                26.3929                44.1243

                     28                     29                     30
                      A                      A                      A
 Frequencies --    627.7297               651.6228               681.9332
 Red. masses --      2.0307                 3.1927                 2.5070
 Frc consts  --      0.4714                 0.7987                 0.6869
 IR Inten    --    142.2794                16.3440               136.8067

                     31                     32                     33
                      A                      A                      A
 Frequencies --    698.8038               710.8174               749.4940
 Red. masses --      4.2517                 2.0300                 4.7008
 Frc consts  --      1.2233                 0.6043                 1.5558
 IR Inten    --      0.9064                16.1248                 3.9864

                     34                     35                     36
                      A                      A                      A
 Frequencies --    772.2788               798.4413               831.3732
 Red. masses --      2.4561                 1.9599                 1.9258
 Frc consts  --      0.8631                 0.7362                 0.7842
 IR Inten    --     28.8572                23.8404               127.5654

                     37                     38                     39
                      A                      A                      A
 Frequencies --    856.1617               859.5676               874.0858
 Red. masses --      1.7245                 1.6121                 1.7234
 Frc consts  --      0.7448                 0.7018                 0.7758
 IR Inten    --     59.8664                 6.1587                 5.2963

                     40                     41                     42
                      A                      A                      A
 Frequencies --    933.7728               956.7495               976.5734
 Red. masses --      4.6648                 1.2601                 1.9263
 Frc consts  --      2.3964                 0.6796                 1.0824
 IR Inten    --     61.0608                 0.7854                11.0807

                     43                     44                     45
                      A                      A                      A
 Frequencies --   1000.1341              1003.3533              1019.6823
 Red. masses --      3.1129                 1.4853                 5.9782
 Frc consts  --      1.8345                 0.8810                 3.6623
 IR Inten    --    143.7990                 1.3039                 3.9574

                     46                     47                     48
                      A                      A                      A
 Frequencies --   1071.2148              1082.0710              1098.1592
 Red. masses --      1.3812                 1.4776                 1.5948
 Frc consts  --      0.9338                 1.0193                 1.1332
 IR Inten    --      1.7450                 0.5400                 2.9825

                     49                     50                     51
                      A                      A                      A
 Frequencies --   1107.4891              1145.0547              1168.8125
 Red. masses --      2.0178                 1.2461                 2.5387
 Frc consts  --      1.4582                 0.9626                 2.0434
 IR Inten    --      0.2861                 1.3999                19.9959

                     52                     53                     54
                      A                      A                      A
 Frequencies --   1184.9375              1194.5543              1203.9360
 Red. masses --      1.4798                 1.7084                 1.4860
 Frc consts  --      1.2242                 1.4363                 1.2690
 IR Inten    --    103.6710                 1.4594                53.5124

                     55                     56                     57
                      A                      A                      A
 Frequencies --   1248.7939              1259.1937              1303.1748
 Red. masses --      1.7682                 2.7853                 1.2416
 Frc consts  --      1.6247                 2.6020                 1.2423
 IR Inten    --      4.8432                11.7293                16.3935

                     58                     59                     60
                      A                      A                      A
 Frequencies --   1320.2123              1346.1617              1368.3287
 Red. masses --      1.8919                 2.0752                 5.0735
 Frc consts  --      1.9428                 2.2157                 5.5968
 IR Inten    --     31.0255                 6.6313                10.3292

                     61                     62                     63
                      A                      A                      A
 Frequencies --   1374.4183              1410.9109              1439.0279
 Red. masses --      3.2871                 1.4259                 1.3010
 Frc consts  --      3.6585                 1.6724                 1.5874
 IR Inten    --     15.5744                19.3003                 0.4019

                     64                     65                     66
                      A                      A                      A
 Frequencies --   1455.8304              1482.3666              1500.3339
 Red. masses --      1.2580                 3.9158                 2.0693
 Frc consts  --      1.5709                 5.0697                 2.7445
 IR Inten    --      0.8213                 8.0797                40.6218

                     67                     68                     69
                      A                      A                      A
 Frequencies --   1509.6992              1511.3137              1516.0090
 Red. masses --      2.0148                 1.1607                 1.0874
 Frc consts  --      2.7055                 1.5620                 1.4724
 IR Inten    --     29.0986                 7.5693                 2.5685

                     70                     71                     72
                      A                      A                      A
 Frequencies --   1525.1064              1526.4035              1533.5158
 Red. masses --      1.2525                 1.2805                 1.3440
 Frc consts  --      1.7164                 1.7579                 1.8622
 IR Inten    --      1.8981                14.4855                19.8541

                     73                     74                     75
                      A                      A                      A
 Frequencies --   1544.8357              1594.1787              1648.1383
 Red. masses --      2.5465                 4.7053                 6.0114
 Frc consts  --      3.5806                 7.0454                 9.6209
 IR Inten    --     77.7896                36.9900                40.1946

                     76                     77                     78
                      A                      A                      A
 Frequencies --   1659.5192              1666.6876              1694.6862
 Red. masses --      3.1915                 4.0399                 1.2679
 Frc consts  --      5.1786                 6.6119                 2.1455
 IR Inten    --     23.9234               103.0925               102.4974

                     79                     80                     81
                      A                      A                      A
 Frequencies --   1695.6120              3023.1006              3037.3948
 Red. masses --      1.3192                 1.0416                 1.0409
 Frc consts  --      2.2347                 5.6085                 5.6581
 IR Inten    --     52.2782                74.7945                25.5897

                     82                     83                     84
                      A                      A                      A
 Frequencies --   3048.1574              3062.6203              3088.8783
 Red. masses --      1.0599                 1.1015                 1.0978
 Frc consts  --      5.8023                 6.0870                 6.1715
 IR Inten    --     53.1635                31.1179                18.6559

                     85                     86                     87
                      A                      A                      A
 Frequencies --   3101.3882              3119.2274              3139.3294
 Red. masses --      1.1043                 1.0998                 1.0938
 Frc consts  --      6.2584                 6.3049                 6.3516
 IR Inten    --     38.7821                23.9075                14.8731

                     88                     89                     90
                      A                      A                      A
 Frequencies --   3175.7201              3188.8526              3195.4563
 Red. masses --      1.0870                 1.0904                 1.0930
 Frc consts  --      6.4588                 6.5330                 6.5757
 IR Inten    --     12.5283                13.9780                21.8031

                     91                     92                     93
                      A                      A                      A
 Frequencies --   3233.5475              3465.3189              3545.2389
 Red. masses --      1.0935                 1.0531                 1.0480
 Frc consts  --      6.7361                 7.4510                 7.7608
 IR Inten    --      5.8057                 2.8432                 9.7423

                     94                     95                     96
                      A                      A                      A
 Frequencies --   3567.1009              3643.2933              3657.0142
 Red. masses --      1.0893                 1.0976                 1.0798
 Frc consts  --      8.1660                 8.5840                 8.5086
 IR Inten    --     12.5659                 6.7058                54.4647

 - Thermochemistry -
 -------------------
 Temperature   298.150 Kelvin.  Pressure   1.00000 Atm.
 Atom     1 has atomic number  6 and mass  12.00000

 Molecular mass:   231.13716 amu.
 Principal axes and moments of inertia in atomic units:
                           1         2         3
     Eigenvalues --  2303.672315711.118116552.83165
           X            0.99997   0.00362   0.00640
           Y           -0.00369   0.99993   0.01138
           Z           -0.00636  -0.01141   0.99991
 This molecule is an asymmetric top.
 Rotational symmetry number  1.
 Warning -- assumption of classical behavior for rotation
           may cause significant error
 Rotational temperatures (Kelvin)      0.03760     0.01517     0.01322
 Rotational constants (GHZ):           0.78342     0.31600     0.27541
 Zero-point vibrational energy     751620.1 (Joules/Mol)
                                  179.64152 (Kcal/Mol)
 Warning -- explicit consideration of  27 degrees of freedom as
           vibrations may cause significant error
 Vibrational temperatures:     20.09    36.16    52.36   107.72   131.96
          (Kelvin)            138.76   176.98   239.77   263.70   279.38
                              328.09   372.15   400.61   409.87   411.82
                              428.80   469.51   493.82   614.46   673.61
                              684.63   701.26   751.64   763.26   782.13
                              856.04   887.34   903.16   937.54   981.15
                             1005.42  1022.71  1078.35  1111.14  1148.78
                             1196.16  1231.83  1236.73  1257.61  1343.49
                             1376.55  1405.07  1438.97  1443.60  1467.10
                             1541.24  1556.86  1580.01  1593.43  1647.48
                             1681.66  1704.86  1718.70  1732.20  1796.74
                             1811.70  1874.98  1899.49  1936.83  1968.72
                             1977.48  2029.99  2070.44  2094.62  2132.79
                             2158.65  2172.12  2174.44  2181.20  2194.29
                             2196.15  2206.39  2222.67  2293.67  2371.30
                             2387.68  2397.99  2438.28  2439.61  4349.57
                             4370.13  4385.62  4406.43  4444.21  4462.21
                             4487.87  4516.79  4569.15  4588.05  4597.55
                             4652.35  4985.82  5100.81  5132.26  5241.89
                             5261.63

 Zero-point correction=                           0.286277 (Hartree/Particle)
 Thermal correction to Energy=                    0.303658
 Thermal correction to Enthalpy=                  0.304603
 Thermal correction to Gibbs Free Energy=         0.239333
 Sum of electronic and zero-point Energies=           -744.861373
 Sum of electronic and thermal Energies=              -744.843992
 Sum of electronic and thermal Enthalpies=            -744.843048
 Sum of electronic and thermal Free Energies=         -744.908318

                     E (Thermal)             CV                S
                      KCal/Mol        Cal/Mol-Kelvin    Cal/Mol-Kelvin
 Total                  190.549             65.310            137.372
 Electronic               0.000              0.000              0.000
 Translational            0.889              2.981             42.215
 Rotational               0.889              2.981             32.822
 Vibrational            188.771             59.348             62.335
 Vibration     1          0.593              1.986              7.348
 Vibration     2          0.593              1.985              6.181
 Vibration     3          0.594              1.982              5.446
 Vibration     4          0.599              1.966              4.021
 Vibration     5          0.602              1.955              3.623
 Vibration     6          0.603              1.952              3.525
 Vibration     7          0.610              1.930              3.053
 Vibration     8          0.624              1.883              2.473
 Vibration     9          0.631              1.863              2.295
 Vibration    10          0.635              1.848              2.188
 Vibration    11          0.651              1.798              1.894
 Vibration    12          0.667              1.748              1.671
 Vibration    13          0.679              1.713              1.543
 Vibration    14          0.683              1.702              1.504
 Vibration    15          0.684              1.699              1.496
 Vibration    16          0.691              1.677              1.428
 Vibration    17          0.710              1.623              1.278
 Vibration    18          0.722              1.589              1.197
 Vibration    19          0.789              1.411              0.868
 Vibration    20          0.825              1.321              0.743
 Vibration    21          0.832              1.304              0.721
 Vibration    22          0.843              1.278              0.690
 Vibration    23          0.877              1.200              0.604
 Vibration    24          0.885              1.183              0.586
 Vibration    25          0.899              1.154              0.558
 Vibration    26          0.953              1.042              0.458
 Vibration    27          0.976              0.997              0.422

                           ! Non-Optimized Parameters !
 Normal termination of Gaussian 16 at Mon Dec 14 17:24:19 2020.

 ----------------------------------------------------------------------
 # B3LYP/6-311++G(d,p) empiricaldispersion=gd3bj scf=xqc pop=npa geom=c
 heck
 ----------------------------------------------------------------------

 ---------------------------------------
 CID_149519687_JID_7364_Energie_neutraal
 ---------------------------------------
 Structure from the checkpoint file:  "JID_7364.chk"
 Charge =  0 Multiplicity = 1

 SCF Done:  E(RB3LYP) =  -745.364965675     A.U. after   15 cycles
 Normal termination of Gaussian 16 at Mon Dec 14 17:30:50 2020.

 ----------------------------------------------------------------------
 # B3LYP/6-311++G(d,p) empiricaldispersion=gd3bj scf=xqc pop=npa geom=c
 heck
 ----------------------------------------------------------------------

 -------------------------------------
 CID_149519687_JID_7364_Energie_kation
 -------------------------------------
 Structure from the checkpoint file:  "JID_7364.chk"
 Charge =  1 Multiplicity = 2

 SCF Done:  E(UB3LYP) =  -745.113011778     A.U. after   23 cycles
 Normal termination of Gaussian 16 at Mon Dec 14 17:45:52 2020.
 Gaussian 16:  ES64L-G16RevA.03 25-Dec-2016

 ----------------------------------------------------------------------
 # B3LYP/6-311++G(d,p) empiricaldispersion=gd3bj scf=xqc pop=npa geom=c
 heck
 ----------------------------------------------------------------------

 ------------------------------------
 CID_149519687_JID_7364_Energie_anion
 ------------------------------------
 Structure from the checkpoint file:  "JID_7364.chk"
 Charge = -1 Multiplicity = 2

                         Standard orientation:
 ---------------------------------------------------------------------
 Center     Atomic      Atomic             Coordinates (Angstroms)
 Number     Number       Type             X           Y           Z
 ---------------------------------------------------------------------
      1          6           0       -0.433832   -1.640276    1.544839
      2          6           0       -1.436565   -0.828163    0.780863
      3          6           0       -2.509948   -1.299984    0.048935
      4          7           0       -3.131492   -0.201469   -0.525431
      5          6           0       -2.480254    0.953292   -0.172125
      6          6           0       -1.430765    0.604303    0.657920
      7          6           0       -0.448052    1.571885    1.216158
      8          8           0        0.515228    2.045741    0.231393
      9          6           0        1.347612    1.048890   -0.236166
     10          6           0        1.039191    0.379361   -1.421408
     11          6           0        1.902359   -0.621998   -1.865472
     12          6           0        3.050052   -0.954592   -1.149581
     13          6           0        3.362197   -0.274314    0.039226
     14          6           0        2.495193    0.731711    0.489930
     15          7           0        4.487689   -0.632152    0.792334
     16          7           0       -2.882793    2.191986   -0.718151
     17          6           0       -3.025128   -2.682665   -0.181061
     18          1           0       -0.694370   -2.703342    1.546637
     19          1           0       -0.363268   -1.322198    2.593206
     20          1           0        0.568830   -1.544695    1.110948
     21          1           0       -3.891269   -0.229716   -1.188517
     22          1           0       -0.935829    2.491075    1.555331
     23          1           0        0.095914    1.137739    2.064185
     24          1           0        0.134913    0.637201   -1.959418
     25          1           0        1.676501   -1.156934   -2.784038
     26          1           0        3.710476   -1.741348   -1.505980
     27          1           0        2.707678    1.277204    1.405573
     28          1           0        4.843833    0.107462    1.385554
     29          1           0        5.233734   -1.051771    0.250891
     30          1           0       -3.564579    2.676137   -0.135461
     31          1           0       -2.074775    2.799490   -0.825285
     32          1           0       -2.402116   -3.411025    0.344095
     33          1           0       -4.054340   -2.808105    0.182932
     34          1           0       -3.019335   -2.956361   -1.245410
 ---------------------------------------------------------------------

 SCF Done:  E(UB3LYP) =  -745.353493437     A.U. after   33 cycles
 SCF Done:  E(UB3LYP) =  -745.353493437     a.u. after    1 cycles

 The electronic state is 2-A.
 Alpha  occ. eigenvalues --  -19.03536 -14.24955 -14.22136 -14.21792 -10.12776
 Alpha  occ. eigenvalues --  -10.12665 -10.12252 -10.12068 -10.09401 -10.08097
 Alpha  occ. eigenvalues --  -10.07908 -10.07165 -10.07040 -10.06550 -10.06519
 Alpha  occ. eigenvalues --  -10.06214 -10.05341  -0.94927  -0.88436  -0.82444
 Alpha  occ. eigenvalues --   -0.79445  -0.74111  -0.70081  -0.66671  -0.64909
 Alpha  occ. eigenvalues --   -0.63550  -0.61500  -0.58955  -0.55186  -0.51766
 Alpha  occ. eigenvalues --   -0.50403  -0.46708  -0.45246  -0.42907  -0.42432
 Alpha  occ. eigenvalues --   -0.41495  -0.39754  -0.39024  -0.37661  -0.36746
 Alpha  occ. eigenvalues --   -0.35675  -0.34955  -0.33827  -0.33263  -0.31709
 Alpha  occ. eigenvalues --   -0.31196  -0.30994  -0.30049  -0.29144  -0.28552
 Alpha  occ. eigenvalues --   -0.28014  -0.27598  -0.27022  -0.26097  -0.24260
 Alpha  occ. eigenvalues --   -0.21141  -0.18518  -0.17970  -0.15190  -0.13774
 Alpha  occ. eigenvalues --   -0.11477  -0.09738   0.03890
 Alpha virt. eigenvalues --    0.05082   0.06213   0.07397   0.07659   0.08108
 Alpha virt. eigenvalues --    0.08442   0.09270   0.09639   0.09763   0.09960
 Alpha virt. eigenvalues --    0.10395   0.10707   0.11875   0.12409   0.12960

  Beta  occ. eigenvalues --  -19.03534 -14.24931 -14.22079 -14.21750 -10.12775
  Beta  occ. eigenvalues --  -10.12654 -10.12250 -10.12065 -10.09400 -10.08093
  Beta  occ. eigenvalues --  -10.07878 -10.07152 -10.07027 -10.06542 -10.06516
  Beta  occ. eigenvalues --  -10.06213 -10.05339  -0.94922  -0.88410  -0.82378
  Beta  occ. eigenvalues --   -0.79384  -0.74084  -0.70060  -0.66643  -0.64888
  Beta  occ. eigenvalues --   -0.63511  -0.61475  -0.58923  -0.55144  -0.51738
  Beta  occ. eigenvalues --   -0.50364  -0.46669  -0.45226  -0.42863  -0.42381
  Beta  occ. eigenvalues --   -0.41451  -0.39714  -0.38981  -0.37628  -0.36717
  Beta  occ. eigenvalues --   -0.35647  -0.34925  -0.33800  -0.33239  -0.31688
  Beta  occ. eigenvalues --   -0.31173  -0.30978  -0.30028  -0.29124  -0.28529
  Beta  occ. eigenvalues --   -0.27993  -0.27578  -0.27002  -0.26079  -0.24245
  Beta  occ. eigenvalues --   -0.21116  -0.18489  -0.17953  -0.15177  -0.13766
  Beta  occ. eigenvalues --   -0.11447  -0.09720
  Beta virt. eigenvalues --    0.05982   0.06577   0.06937   0.07764   0.08115
  Beta virt. eigenvalues --    0.08201   0.08822   0.09528   0.09767   0.09951
  Beta virt. eigenvalues --    0.10288   0.10641   0.10984   0.12076   0.12532

 Mulliken charges and spin densities:
               1          2
     1  C   -0.366693  -0.543231
     2  C    0.617090   0.013720
     3  C   -1.143567   0.785247
     4  N   -0.156605   0.054330
     5  C   -0.088888  -0.570058
     6  C    1.601846  -0.372918
     7  C   -0.914445  -0.018024
     8  O   -0.103387   0.008157
     9  C   -0.234617  -0.111360
    10  C    0.025650  -0.095703
    11  C   -0.311879  -0.065029
    12  C   -0.108818  -0.058604
    13  C    0.091566  -0.342681
    14  C    0.795878  -0.476113
    15  N   -0.246137  -0.013681
    16  N   -0.610791   0.234255
    17  C    0.957950  -1.448305
    18  H    0.090347   0.018295
    19  H    0.119732   0.028536
    20  H    0.088034   0.108561
    21  H   -0.136581   0.439272
    22  H   -0.085801   0.298545
    23  H    0.131897  -0.012184
    24  H    0.137674   0.052183
    25  H    0.060995   0.100876
    26  H   -0.146844   0.294235
    27  H   -0.030565   0.187621
    28  H   -0.175579   0.417173
    29  H   -0.290161   0.535470
    30  H   -0.247184   0.523947
    31  H    0.096413   0.167319
    32  H   -0.087986   0.222302
    33  H   -0.203562   0.356833
    34  H   -0.124982   0.281014
 Sum of Mulliken charges =  -1.00000   1.00000

 Dipole moment (field-independent basis, Debye):
    X=             -1.0254    Y=             -0.1116    Z=              0.1203  Tot=              1.0384
 Quadrupole moment (field-independent basis, Debye-Ang):
   XX=           -204.4035   YY=           -144.7222   ZZ=           -128.8162
   XY=              7.2028   XZ=             -8.0721   YZ=              1.7693

 Summary of Natural Population Analysis:

                                       Natural Population
                Natural  -----------------------------------------------
    Atom  No    Charge         Core      Valence    Rydberg      Total
 -----------------------------------------------------------------------
      C    1   -0.29265      0.99963     2.28851    0.00451     3.29265
      C    2   -0.04173      0.99943     2.03251    0.00978     3.04173
      C    3    0.06220      0.99948     1.92620    0.01212     2.93780
      N    4   -0.26846      0.99963     2.75894    0.00989     3.76846
      C    5    0.17080      0.99944     1.81505    0.01472     2.82920
      C    6   -0.09648      0.99941     2.08584    0.01123     3.09648
      C    7   -0.01822      0.99950     2.00606    0.01266     3.01822
      O    8   -0.29952      0.99987     3.29027    0.00938     4.29952
      C    9    0.16242      0.99937     1.82420    0.01402     2.83758
      C   10   -0.13786      0.99950     2.12949    0.00887     3.13786
      C   11   -0.08868      0.99957     2.08028    0.00883     3.08868
      C   12   -0.13471      0.99952     2.12515    0.01004     3.13471
      C   13    0.08698      0.99950     1.90204    0.01148     2.91302
      C   14   -0.14653      0.99946     2.13735    0.00972     3.14653
      N   15   -0.39496      0.99972     2.88470    0.01055     3.89496
      N   16   -0.42169      0.99974     2.91177    0.01019     3.92169
      C   17   -0.29855      0.99964     2.29347    0.00544     3.29855
      H   18    0.10005      0.00000     0.39917    0.00079     0.39995
      H   19    0.09814      0.00000     0.40077    0.00109     0.40186
      H   20    0.10948      0.00000     0.38921    0.00131     0.39052
      H   21    0.20112      0.00000     0.29557    0.00331     0.29888
      H   22    0.09448      0.00000     0.40402    0.00150     0.40552
      H   23    0.08786      0.00000     0.41082    0.00132     0.41214
      H   24    0.10842      0.00000     0.39013    0.00145     0.39158
      H   25    0.09904      0.00000     0.40018    0.00078     0.40096
      H   26    0.10002      0.00000     0.39902    0.00096     0.39998
      H   27    0.10294      0.00000     0.39551    0.00155     0.39706
      H   28    0.18609      0.00000     0.31058    0.00333     0.31391
      H   29    0.18710      0.00000     0.30829    0.00461     0.31290
      H   30    0.18441      0.00000     0.31209    0.00351     0.31559
      H   31    0.18756      0.00000     0.31032    0.00212     0.31244
      H   32    0.10678      0.00000     0.39240    0.00082     0.39322
      H   33    0.10235      0.00000     0.39639    0.00126     0.39765
      H   34    0.10183      0.00000     0.39699    0.00118     0.39817
 =======================================================================
   * Total *    0.00000     16.99239    44.80330    0.20431    62.00000

 Normal termination of Gaussian 16 at Mon Dec 14 18:06:15 2020.
