 Gaussian 16, Revision A.03,

 -----------------------------------------------------------
 # opt freq B3LYP/6-31G(d) empiricaldispersion=gd3bj scf=xqc
 -----------------------------------------------------------

 ------------------------------
 CID_65503158_JID_5160_neutraal
 ------------------------------
 Symbolic Z-matrix:
 Charge =  0 Multiplicity = 1

 SCF Done:  E(RB3LYP) =  -980.688862870     A.U. after   13 cycles
 SCF Done:  E(RB3LYP) =  -980.693182974     A.U. after   11 cycles
 SCF Done:  E(RB3LYP) =  -980.693764995     A.U. after   11 cycles
 SCF Done:  E(RB3LYP) =  -980.693816789     A.U. after   10 cycles
 SCF Done:  E(RB3LYP) =  -980.693889388     A.U. after   10 cycles
 SCF Done:  E(RB3LYP) =  -980.693925992     A.U. after   10 cycles
 SCF Done:  E(RB3LYP) =  -980.693950895     A.U. after    9 cycles
 SCF Done:  E(RB3LYP) =  -980.693955163     A.U. after    9 cycles
 SCF Done:  E(RB3LYP) =  -980.693957921     A.U. after    7 cycles
 SCF Done:  E(RB3LYP) =  -980.693959224     A.U. after    8 cycles
 SCF Done:  E(RB3LYP) =  -980.693959601     A.U. after    7 cycles
 SCF Done:  E(RB3LYP) =  -980.693959593     A.U. after    6 cycles
 Optimization completed.
    -- Stationary point found.
 Normal termination of Gaussian 16 at Thu Dec 10 14:50:49 2020.

 --------------------------------------------------------------------
 #N Geom=AllCheck Guess=TCheck SCRF=Check GenChk RB3LYP/6-31G(d) Freq
 --------------------------------------------------------------------

 Structure from the checkpoint file:  "JID_5160.chk"
 ------------------------------
 CID_65503158_JID_5160_neutraal
 ------------------------------
 Charge =  0 Multiplicity = 1

 SCF Done:  E(RB3LYP) =  -980.693959593     A.U. after    1 cycles

  Exact polarizability: 177.450   4.410 150.233  -1.184   3.341 136.780
 Approx polarizability: 221.506   2.495 219.507   1.690   7.191 207.817

                      1                      2                      3
                      A                      A                      A
 Frequencies --     23.1964                44.0458                50.0659
 Red. masses --      3.8642                 3.1290                 4.7070
 Frc consts  --      0.0012                 0.0036                 0.0070
 IR Inten    --      0.2687                 0.2142                 0.7126

                      4                      5                      6
                      A                      A                      A
 Frequencies --     58.9862                93.8317               100.3277
 Red. masses --      2.7906                 2.7671                 3.1950
 Frc consts  --      0.0057                 0.0144                 0.0189
 IR Inten    --      0.3232                 6.2823                 0.3746

                      7                      8                      9
                      A                      A                      A
 Frequencies --    129.3315               145.4893               185.8959
 Red. masses --      3.5922                 3.2934                 2.3570
 Frc consts  --      0.0354                 0.0411                 0.0480
 IR Inten    --      1.5669                 1.8991                 3.7406

                     10                     11                     12
                      A                      A                      A
 Frequencies --    227.0592               238.3731               243.2241
 Red. masses --      1.2126                 1.2518                 1.8679
 Frc consts  --      0.0368                 0.0419                 0.0651
 IR Inten    --     21.1360                 9.4846                 1.7348

                     13                     14                     15
                      A                      A                      A
 Frequencies --    250.8776               260.0020               282.1687
 Red. masses --      1.2720                 1.5693                 2.3982
 Frc consts  --      0.0472                 0.0625                 0.1125
 IR Inten    --     28.1590                 1.5498                 0.2080

                     16                     17                     18
                      A                      A                      A
 Frequencies --    319.6165               330.8945               351.9531
 Red. masses --      3.7157                 2.1371                 2.4354
 Frc consts  --      0.2236                 0.1379                 0.1777
 IR Inten    --      0.3596                 1.0171                 0.4479

                     19                     20                     21
                      A                      A                      A
 Frequencies --    368.3021               406.4692               412.7536
 Red. masses --      2.5304                 2.4747                 2.0588
 Frc consts  --      0.2022                 0.2409                 0.2067
 IR Inten    --      0.7935                 0.8210                 1.5555

                     22                     23                     24
                      A                      A                      A
 Frequencies --    436.7492               445.0051               458.0091
 Red. masses --      2.8847                 2.8672                 2.0294
 Frc consts  --      0.3242                 0.3345                 0.2508
 IR Inten    --      5.9278                 0.6661                 0.3089

                     25                     26                     27
                      A                      A                      A
 Frequencies --    479.7150               551.8826               617.4828
 Red. masses --      2.5354                 2.1082                 2.2744
 Frc consts  --      0.3438                 0.3783                 0.5109
 IR Inten    --      8.2390                 0.8011                 3.7996

                     28                     29                     30
                      A                      A                      A
 Frequencies --    667.4082               699.7160               753.3344
 Red. masses --      4.7829                 4.5102                 2.2640
 Frc consts  --      1.2552                 1.3010                 0.7570
 IR Inten    --      4.2790                 0.7690                 5.8845

                     31                     32                     33
                      A                      A                      A
 Frequencies --    796.1500               823.4091               827.1320
 Red. masses --      2.3325                 2.1242                 1.6733
 Frc consts  --      0.8711                 0.8486                 0.6745
 IR Inten    --      5.7030                 0.8922                 3.4650

                     34                     35                     36
                      A                      A                      A
 Frequencies --    877.6532               880.8650               913.4704
 Red. masses --      1.5828                 1.6466                 1.5785
 Frc consts  --      0.7183                 0.7528                 0.7760
 IR Inten    --     65.5171                16.5040                37.8247

                     37                     38                     39
                      A                      A                      A
 Frequencies --    930.7849               941.5290               963.0384
 Red. masses --      1.9540                 1.1801                 1.9360
 Frc consts  --      0.9974                 0.6164                 1.0579
 IR Inten    --      3.3917                 1.0503                 3.2503

                     40                     41                     42
                      A                      A                      A
 Frequencies --    978.3587               982.7376               992.9487
 Red. masses --      1.5311                 1.8883                 1.9365
 Frc consts  --      0.8634                 1.0745                 1.1249
 IR Inten    --      5.7742                20.0396                27.7803

                     43                     44                     45
                      A                      A                      A
 Frequencies --   1007.2493              1023.8386              1026.6857
 Red. masses --      1.6487                 1.7195                 2.0048
 Frc consts  --      0.9855                 1.0620                 1.2451
 IR Inten    --      1.4128                 2.0266                 2.2557

                     46                     47                     48
                      A                      A                      A
 Frequencies --   1055.4528              1071.1628              1079.0434
 Red. masses --      2.4219                 1.9206                 1.9886
 Frc consts  --      1.5896                 1.2983                 1.3642
 IR Inten    --     24.8425                 6.6563                 1.7095

                     49                     50                     51
                      A                      A                      A
 Frequencies --   1096.3617              1116.4890              1140.5998
 Red. masses --      1.8649                 2.3590                 1.7385
 Frc consts  --      1.3207                 1.7326                 1.3326
 IR Inten    --      5.3898                 1.6552                33.1825

                     52                     53                     54
                      A                      A                      A
 Frequencies --   1149.6765              1169.5649              1186.0918
 Red. masses --      1.8352                 2.5868                 1.5920
 Frc consts  --      1.4292                 2.0848                 1.3196
 IR Inten    --      4.4458                20.1932                 2.2611

                     55                     56                     57
                      A                      A                      A
 Frequencies --   1207.9245              1211.0686              1225.1804
 Red. masses --      1.7434                 1.3650                 1.5415
 Frc consts  --      1.4987                 1.1795                 1.3633
 IR Inten    --      4.3763                 4.4802                 1.0494

                     58                     59                     60
                      A                      A                      A
 Frequencies --   1243.0263              1252.0236              1277.9965
 Red. masses --      1.2408                 1.2526                 1.3120
 Frc consts  --      1.1296                 1.1569                 1.2626
 IR Inten    --      3.7524                 3.2755                 3.3802

                     61                     62                     63
                      A                      A                      A
 Frequencies --   1290.5412              1314.4985              1319.6616
 Red. masses --      1.5577                 1.3824                 1.3220
 Frc consts  --      1.5285                 1.4073                 1.3565
 IR Inten    --      4.0589                 0.5026                 7.4711

                     64                     65                     66
                      A                      A                      A
 Frequencies --   1329.5584              1340.2437              1348.9762
 Red. masses --      1.2463                 1.3357                 1.2547
 Frc consts  --      1.2980                 1.4136                 1.3453
 IR Inten    --     11.3264                27.1681                 6.1924

                     67                     68                     69
                      A                      A                      A
 Frequencies --   1373.3930              1377.3515              1383.0683
 Red. masses --      1.3342                 1.2068                 1.2664
 Frc consts  --      1.4827                 1.3488                 1.4272
 IR Inten    --     10.6039                 9.5072                 2.6450

                     70                     71                     72
                      A                      A                      A
 Frequencies --   1393.2019              1401.4148              1405.8422
 Red. masses --      1.3402                 1.3262                 1.3835
 Frc consts  --      1.5327                 1.5346                 1.6110
 IR Inten    --      3.9576                 5.9928                21.0018

                     73                     74                     75
                      A                      A                      A
 Frequencies --   1423.1959              1429.3188              1437.6433
 Red. masses --      1.4578                 1.2819                 1.4435
 Frc consts  --      1.7397                 1.5430                 1.7578
 IR Inten    --     13.2049                10.6052                10.4966

                     76                     77                     78
                      A                      A                      A
 Frequencies --   1444.9669              1449.2381              1457.4744
 Red. masses --      1.3984                 1.2439                 1.3837
 Frc consts  --      1.7202                 1.5393                 1.7318
 IR Inten    --      3.5567                 3.0234                 2.7813

                     79                     80                     81
                      A                      A                      A
 Frequencies --   1484.3577              1493.2647              1509.2750
 Red. masses --      1.0955                 1.0969                 1.0833
 Frc consts  --      1.4221                 1.4411                 1.4539
 IR Inten    --      0.8332                14.8345                 2.8864

                     82                     83                     84
                      A                      A                      A
 Frequencies --   1513.2344              1519.3407              1520.3869
 Red. masses --      1.0723                 1.0569                 1.0853
 Frc consts  --      1.4466                 1.4374                 1.4781
 IR Inten    --      1.2731                 2.4918                 1.7566

                     85                     86                     87
                      A                      A                      A
 Frequencies --   1523.3048              1529.6170              1535.4286
 Red. masses --      1.0632                 1.0785                 1.0579
 Frc consts  --      1.4536                 1.4867                 1.4694
 IR Inten    --      2.5506                 8.6171                 4.4225

                     88                     89                     90
                      A                      A                      A
 Frequencies --   1540.0719              1541.8947              1547.2786
 Red. masses --      1.0772                 1.0698                 1.0838
 Frc consts  --      1.5053                 1.4986                 1.5287
 IR Inten    --     12.8026                 2.2757                 2.6259

                     91                     92                     93
                      A                      A                      A
 Frequencies --   1700.8155              2923.6095              2941.7503
 Red. masses --      1.0860                 1.0744                 1.0728
 Frc consts  --      1.8509                 5.4106                 5.4699
 IR Inten    --     32.1649                45.6961                25.6704

                     94                     95                     96
                      A                      A                      A
 Frequencies --   2949.2966              3016.7188              3020.6214
 Red. masses --      1.0714                 1.0610                 1.0674
 Frc consts  --      5.4910                 5.6893                 5.7379
 IR Inten    --    141.0302                30.1924                22.1159

                     97                     98                     99
                      A                      A                      A
 Frequencies --   3024.5500              3035.1866              3037.4572
 Red. masses --      1.0735                 1.0439                 1.0625
 Frc consts  --      5.7860                 5.6663                 5.7755
 IR Inten    --     18.1500                32.8391                 9.1094

                    100                    101                    102
                      A                      A                      A
 Frequencies --   3043.4531              3045.9638              3058.2418
 Red. masses --      1.0401                 1.0732                 1.0819
 Frc consts  --      5.6760                 5.8667                 5.9620
 IR Inten    --     24.7535                21.1584                11.7684

                    103                    104                    105
                      A                      A                      A
 Frequencies --   3060.6907              3066.6302              3068.1062
 Red. masses --      1.1008                 1.0968                 1.0959
 Frc consts  --      6.0757                 6.0774                 6.0782
 IR Inten    --     38.6006                36.5655                76.8238

                    106                    107                    108
                      A                      A                      A
 Frequencies --   3070.4134              3073.4408              3092.7703
 Red. masses --      1.0665                 1.0674                 1.0869
 Frc consts  --      5.9241                 5.9406                 6.1252
 IR Inten    --     12.2514                32.5923                50.1004

                    109                    110                    111
                      A                      A                      A
 Frequencies --   3099.2691              3099.9607              3105.0100
 Red. masses --      1.1003                 1.0883                 1.1020
 Frc consts  --      6.2269                 6.1618                 6.2595
 IR Inten    --      9.2173                53.1888                41.2308

                    112                    113                    114
                      A                      A                      A
 Frequencies --   3109.2029              3119.0490              3127.7553
 Red. masses --      1.1015                 1.1005                 1.1058
 Frc consts  --      6.2739                 6.3078                 6.3738
 IR Inten    --     73.0756                41.7026                20.5877

                    115                    116                    117
                      A                      A                      A
 Frequencies --   3129.1799              3468.7211              3548.7540
 Red. masses --      1.1051                 1.0502                 1.0916
 Frc consts  --      6.3755                 7.4452                 8.0996
 IR Inten    --      9.9105                 2.6417                 1.0635

 - Thermochemistry -
 -------------------
 Temperature   298.150 Kelvin.  Pressure   1.00000 Atm.
 Atom     1 has atomic number  6 and mass  12.00000

 Molecular mass:   230.18167 amu.
 Principal axes and moments of inertia in atomic units:
                           1         2         3
     Eigenvalues --  2143.664256931.702737632.42769
           X            0.99992   0.01133   0.00583
           Y           -0.01141   0.99985   0.01334
           Z           -0.00567  -0.01340   0.99989
 This molecule is an asymmetric top.
 Rotational symmetry number  1.
 Warning -- assumption of classical behavior for rotation
           may cause significant error
 Rotational temperatures (Kelvin)      0.04040     0.01250     0.01135
 Rotational constants (GHZ):           0.84190     0.26036     0.23646
 Zero-point vibrational energy     994655.1 (Joules/Mol)
                                  237.72827 (Kcal/Mol)
 Warning -- explicit consideration of  27 degrees of freedom as
           vibrations may cause significant error
 Vibrational temperatures:     33.37    63.37    72.03    84.87   135.00
          (Kelvin)            144.35   186.08   209.33   267.46   326.69
                              342.97   349.95   360.96   374.08   405.98
                              459.86   476.08   506.38   529.90   584.82
                              593.86   628.38   640.26   658.97   690.20
                              794.04   888.42   960.25  1006.74  1083.88
                             1145.48  1184.70  1190.06  1262.75  1267.37
                             1314.28  1339.19  1354.65  1385.60  1407.64
                             1413.94  1428.63  1449.21  1473.08  1477.17
                             1518.56  1541.16  1552.50  1577.42  1606.38
                             1641.07  1654.13  1682.74  1706.52  1737.93
                             1742.46  1762.76  1788.44  1801.38  1838.75
                             1856.80  1891.27  1898.70  1912.94  1928.31
                             1940.88  1976.01  1981.70  1989.93  2004.51
                             2016.32  2022.69  2047.66  2056.47  2068.45
                             2078.99  2085.13  2096.98  2135.66  2148.47
                             2171.51  2177.21  2185.99  2187.50  2191.70
                             2200.78  2209.14  2215.82  2218.44  2226.19
                             2447.09  4206.42  4232.52  4243.38  4340.39
                             4346.00  4351.65  4366.96  4370.22  4378.85
                             4382.46  4400.13  4403.65  4412.20  4414.32
                             4417.64  4422.00  4449.81  4459.16  4460.15
                             4467.42  4473.45  4487.62  4500.14  4502.19
                             4990.72  5105.87

 Zero-point correction=                           0.378844 (Hartree/Particle)
 Thermal correction to Energy=                    0.396421
 Thermal correction to Enthalpy=                  0.397365
 Thermal correction to Gibbs Free Energy=         0.332643
 Sum of electronic and zero-point Energies=           -980.315115
 Sum of electronic and thermal Energies=              -980.297539
 Sum of electronic and thermal Enthalpies=            -980.296595
 Sum of electronic and thermal Free Energies=         -980.361316

                     E (Thermal)             CV                S
                      KCal/Mol        Cal/Mol-Kelvin    Cal/Mol-Kelvin
 Total                  248.758             66.685            136.218
 Electronic               0.000              0.000              0.000
 Translational            0.889              2.981             42.203
 Rotational               0.889              2.981             33.094
 Vibrational            246.980             60.723             60.921
 Vibration     1          0.593              1.985              6.340
 Vibration     2          0.595              1.980              5.068
 Vibration     3          0.595              1.978              4.815
 Vibration     4          0.596              1.974              4.491
 Vibration     5          0.603              1.954              3.579
 Vibration     6          0.604              1.949              3.448
 Vibration     7          0.612              1.924              2.956
 Vibration     8          0.617              1.908              2.730
 Vibration     9          0.632              1.859              2.268
 Vibration    10          0.651              1.800              1.902
 Vibration    11          0.656              1.782              1.815
 Vibration    12          0.659              1.774              1.779
 Vibration    13          0.663              1.761              1.724
 Vibration    14          0.668              1.746              1.662
 Vibration    15          0.681              1.707              1.520
 Vibration    16          0.706              1.636              1.312
 Vibration    17          0.713              1.614              1.256
 Vibration    18          0.729              1.571              1.157
 Vibration    19          0.741              1.537              1.087
 Vibration    20          0.771              1.456              0.939
 Vibration    21          0.777              1.443              0.917
 Vibration    22          0.797              1.390              0.837
 Vibration    23          0.804              1.372              0.811
 Vibration    24          0.816              1.343              0.772
 Vibration    25          0.836              1.295              0.711
 Vibration    26          0.907              1.136              0.540
 Vibration    27          0.977              0.995              0.421

 Optimization completed.
    -- Stationary point found.
 Normal termination of Gaussian 16 at Thu Dec 10 15:05:36 2020.

 ----------------------------------------------------------------------
 # B3LYP/6-311++G(d,p) empiricaldispersion=gd3bj scf=xqc pop=npa geom=c
 heck
 ----------------------------------------------------------------------

 --------------------------------------
 CID_65503158_JID_5160_Energie_neutraal
 --------------------------------------
 Structure from the checkpoint file:  "JID_5160.chk"
 Charge =  0 Multiplicity = 1

 SCF Done:  E(RB3LYP) =  -980.890178791     A.U. after   13 cycles
 Normal termination of Gaussian 16 at Thu Dec 10 15:14:49 2020.

 ----------------------------------------------------------------------
 # B3LYP/6-311++G(d,p) empiricaldispersion=gd3bj scf=xqc pop=npa geom=c
 heck
 ----------------------------------------------------------------------

 ------------------------------------
 CID_65503158_JID_5160_Energie_kation
 ------------------------------------
 Structure from the checkpoint file:  "JID_5160.chk"
 Charge =  1 Multiplicity = 2

 SCF Done:  E(UB3LYP) =  -980.607540149     A.U. after   23 cycles
 Normal termination of Gaussian 16 at Thu Dec 10 15:41:54 2020.
 Gaussian 16:  ES64L-G16RevA.03 25-Dec-2016

 ----------------------------------------------------------------------
 # B3LYP/6-311++G(d,p) empiricaldispersion=gd3bj scf=xqc pop=npa geom=c
 heck
 ----------------------------------------------------------------------

 -----------------------------------
 CID_65503158_JID_5160_Energie_anion
 -----------------------------------
 Structure from the checkpoint file:  "JID_5160.chk"
 Charge = -1 Multiplicity = 2

                         Standard orientation:
 ---------------------------------------------------------------------
 Center     Atomic      Atomic             Coordinates (Angstroms)
 Number     Number       Type             X           Y           Z
 ---------------------------------------------------------------------
      1          6           0       -4.488717   -0.293368    0.523283
      2          6           0       -3.245221   -0.991474   -0.041366
      3          6           0       -3.638714   -2.002747   -1.125435
      4          6           0       -2.223120    0.012663   -0.605174
      5          6           0       -1.661027    1.046924    0.384945
      6          6           0       -0.993181    0.404682    1.620719
      7          6           0       -0.007133   -0.743839    1.368047
      8          7           0        1.133045   -0.408878    0.512022
      9          6           0        1.770966   -1.612675   -0.019401
     10          6           0        2.773538   -1.290458   -1.123347
     11         16           0        4.169188   -0.269732   -0.519547
     12          6           0        3.137978    1.032753    0.250966
     13          6           0        2.088623    0.459766    1.198742
     14          6           0       -0.732630    2.043134   -0.331361
     15          7           0       -1.481368    2.860116   -1.301304
     16          1           0       -4.975680    0.314800   -0.249756
     17          1           0       -4.243246    0.369205    1.359655
     18          1           0       -5.220064   -1.026656    0.882598
     19          1           0       -2.774563   -1.552539    0.778454
     20          1           0       -4.124305   -1.497492   -1.970307
     21          1           0       -2.760238   -2.531431   -1.514632
     22          1           0       -4.339551   -2.751333   -0.737951
     23          1           0       -1.384890   -0.539549   -1.053538
     24          1           0       -2.713949    0.550388   -1.428090
     25          1           0       -2.498877    1.651795    0.755200
     26          1           0       -0.514148    1.194926    2.213079
     27          1           0       -1.775185   -0.006402    2.272353
     28          1           0        0.331458   -1.140742    2.345899
     29          1           0       -0.542959   -1.562943    0.878187
     30          1           0        0.981984   -2.244323   -0.446209
     31          1           0        2.273747   -2.198891    0.773563
     32          1           0        3.212437   -2.210829   -1.519255
     33          1           0        2.267490   -0.765776   -1.940759
     34          1           0        2.650571    1.621709   -0.533121
     35          1           0        3.824296    1.685885    0.797734
     36          1           0        1.534879    1.296854    1.635016
     37          1           0        2.591680   -0.072983    2.028546
     38          1           0       -0.321494    2.731071    0.418611
     39          1           0        0.115896    1.495347   -0.766538
     40          1           0       -0.899386    3.640651   -1.600894
     41          1           0       -1.652805    2.314131   -2.143830
 ---------------------------------------------------------------------

 SCF Done:  E(UB3LYP) =  -980.876871139     A.U. after   29 cycles

 The electronic state is 2-A.
 Alpha  occ. eigenvalues --  -88.74658 -14.21610 -14.19137 -10.10716 -10.10711
 Alpha  occ. eigenvalues --  -10.10690 -10.10673 -10.10001 -10.08257 -10.07630
 Alpha  occ. eigenvalues --  -10.07152 -10.06846 -10.06221 -10.06080 -10.05964
 Alpha  occ. eigenvalues --   -7.83293  -5.79668  -5.79346  -5.78660  -0.84290
 Alpha  occ. eigenvalues --   -0.78157  -0.72551  -0.71375  -0.68049  -0.67634
 Alpha  occ. eigenvalues --   -0.62288  -0.58872  -0.57351  -0.55815  -0.54837
 Alpha  occ. eigenvalues --   -0.51478  -0.47789  -0.46632  -0.44308  -0.40482
 Alpha  occ. eigenvalues --   -0.39550  -0.39045  -0.37788  -0.36576  -0.35506
 Alpha  occ. eigenvalues --   -0.34789  -0.33923  -0.33696  -0.33329  -0.31852
 Alpha  occ. eigenvalues --   -0.31272  -0.30705  -0.29211  -0.28893  -0.28382
 Alpha  occ. eigenvalues --   -0.27729  -0.27528  -0.26308  -0.25419  -0.24735
 Alpha  occ. eigenvalues --   -0.23990  -0.23723  -0.22030  -0.21814  -0.21241
 Alpha  occ. eigenvalues --   -0.20699  -0.14821  -0.13703  -0.12790   0.04214
 Alpha virt. eigenvalues --    0.05968   0.06527   0.06806   0.07817   0.08344
 Alpha virt. eigenvalues --    0.08725   0.08811   0.09328   0.09718   0.10445
 Alpha virt. eigenvalues --    0.10954   0.11110   0.11752   0.11974   0.12258

  Beta  occ. eigenvalues --  -88.74657 -14.21601 -14.19108 -10.10700 -10.10694
  Beta  occ. eigenvalues --  -10.10676 -10.10656 -10.09991 -10.08242 -10.07622
  Beta  occ. eigenvalues --  -10.07141 -10.06842 -10.06204 -10.06064 -10.05934
  Beta  occ. eigenvalues --   -7.83292  -5.79667  -5.79343  -5.78658  -0.84269
  Beta  occ. eigenvalues --   -0.78110  -0.72526  -0.71351  -0.68020  -0.67605
  Beta  occ. eigenvalues --   -0.62256  -0.58827  -0.57311  -0.55776  -0.54788
  Beta  occ. eigenvalues --   -0.51439  -0.47741  -0.46586  -0.44271  -0.40443
  Beta  occ. eigenvalues --   -0.39519  -0.39012  -0.37758  -0.36545  -0.35463
  Beta  occ. eigenvalues --   -0.34766  -0.33891  -0.33664  -0.33302  -0.31818
  Beta  occ. eigenvalues --   -0.31232  -0.30674  -0.29182  -0.28864  -0.28357
  Beta  occ. eigenvalues --   -0.27699  -0.27497  -0.26278  -0.25392  -0.24706
  Beta  occ. eigenvalues --   -0.23964  -0.23696  -0.22008  -0.21787  -0.21213
  Beta  occ. eigenvalues --   -0.20675  -0.14788  -0.13682  -0.12746
  Beta virt. eigenvalues --    0.06245   0.06836   0.07073   0.07250   0.08128
  Beta virt. eigenvalues --    0.08564   0.09026   0.09153   0.09704   0.10078
  Beta virt. eigenvalues --    0.10534   0.11177   0.11330   0.11941   0.12097

 Mulliken charges and spin densities:
               1          2
     1  C    0.239191  -0.917191
     2  C   -1.362630   1.910351
     3  C    0.637303  -1.311503
     4  C    0.162886  -1.238125
     5  C    0.092964   1.224630
     6  C   -0.500438  -0.033141
     7  C   -0.380071  -0.353747
     8  N    0.346510   0.013520
     9  C    0.230974  -0.495601
    10  C   -0.009761  -0.343088
    11  S   -0.047503   0.042626
    12  C   -0.014598  -0.420229
    13  C   -0.125895  -0.107658
    14  C    0.372199  -1.351521
    15  N   -0.323985  -0.028590
    16  H    0.033817   0.111658
    17  H    0.030724   0.089740
    18  H   -0.192538   0.339292
    19  H   -0.002032   0.125349
    20  H   -0.117385   0.246863
    21  H   -0.209473   0.342983
    22  H   -0.239890   0.386305
    23  H    0.126125   0.029247
    24  H    0.288954  -0.186366
    25  H    0.293461  -0.075447
    26  H   -0.164960   0.319660
    27  H   -0.036194   0.196730
    28  H   -0.097363   0.214839
    29  H   -0.020190   0.170282
    30  H   -0.140958   0.298588
    31  H    0.043072   0.045201
    32  H   -0.044006   0.249799
    33  H   -0.068081   0.263673
    34  H   -0.025626   0.229407
    35  H   -0.130169   0.316017
    36  H    0.098332   0.023804
    37  H    0.002005   0.111550
    38  H   -0.438931   0.613728
    39  H    0.765869  -0.588977
    40  H    0.006706   0.235212
    41  H   -0.078417   0.300129
 Sum of Mulliken charges =  -1.00000   1.00000

 Dipole moment (field-independent basis, Debye):
    X=              2.5492    Y=             -0.4920    Z=              1.8100  Tot=              3.1649
 Quadrupole moment (field-independent basis, Debye-Ang):
   XX=           -185.4833   YY=           -162.1489   ZZ=           -142.5007
   XY=             -6.1401   XZ=             -1.0475   YZ=             -1.5244

 Summary of Natural Population Analysis:

                                       Natural Population
                Natural  -----------------------------------------------
    Atom  No    Charge         Core      Valence    Rydberg      Total
 -----------------------------------------------------------------------
      C    1   -0.28357      0.99965     2.27908    0.00485     3.28357
      C    2   -0.11641      0.99962     2.10747    0.00933     3.11641
      C    3   -0.28184      0.99965     2.27601    0.00618     3.28184
      C    4   -0.19184      0.99960     2.18287    0.00937     3.19184
      C    5   -0.11329      0.99958     2.10234    0.01136     3.11329
      C    6   -0.19285      0.99960     2.18432    0.00894     3.19285
      C    7   -0.08287      0.99961     2.07276    0.01050     3.08287
      N    8   -0.29076      0.99970     2.77809    0.01297     3.79076
      C    9   -0.08759      0.99960     2.07586    0.01214     3.08759
      C   10   -0.25223      0.99958     2.24162    0.01102     3.25223
      S   11    0.08178      4.99964     2.90145    0.01714     7.91822
      C   12   -0.25226      0.99958     2.24185    0.01082     3.25226
      C   13   -0.09062      0.99959     2.07956    0.01146     3.09062
      C   14   -0.09018      0.99959     2.07877    0.01181     3.09018
      N   15   -0.42341      0.99977     2.91381    0.00983     3.92341
      H   16    0.09655      0.00000     0.40251    0.00095     0.40345
      H   17    0.09865      0.00000     0.40043    0.00091     0.40135
      H   18    0.09800      0.00000     0.40114    0.00086     0.40200
      H   19    0.09051      0.00000     0.40737    0.00212     0.40949
      H   20    0.09509      0.00000     0.40391    0.00099     0.40491
      H   21    0.10078      0.00000     0.39800    0.00122     0.39922
      H   22    0.09801      0.00000     0.40101    0.00098     0.40199
      H   23    0.09942      0.00000     0.39857    0.00201     0.40058
      H   24    0.09794      0.00000     0.40064    0.00142     0.40206
      H   25    0.09942      0.00000     0.39851    0.00207     0.40058
      H   26    0.09756      0.00000     0.40113    0.00131     0.40244
      H   27    0.10141      0.00000     0.39766    0.00093     0.39859
      H   28    0.08297      0.00000     0.41574    0.00129     0.41703
      H   29    0.09707      0.00000     0.40077    0.00216     0.40293
      H   30    0.10214      0.00000     0.39621    0.00165     0.39786
      H   31    0.08212      0.00000     0.41612    0.00176     0.41788
      H   32    0.10716      0.00000     0.39188    0.00096     0.39284
      H   33    0.10387      0.00000     0.39419    0.00194     0.39613
      H   34    0.10410      0.00000     0.39378    0.00211     0.39590
      H   35    0.10699      0.00000     0.39205    0.00096     0.39301
      H   36    0.10267      0.00000     0.39561    0.00172     0.39733
      H   37    0.08314      0.00000     0.41501    0.00185     0.41686
      H   38    0.08780      0.00000     0.41076    0.00144     0.41220
      H   39    0.08749      0.00000     0.40887    0.00364     0.41251
      H   40    0.17533      0.00000     0.32292    0.00176     0.32467
      H   41    0.17176      0.00000     0.32650    0.00175     0.32824
 =======================================================================
   * Total *   -0.00000     18.99436    44.80715    0.19849    64.00000

 Normal termination of Gaussian 16 at Thu Dec 10 16:09:21 2020.
