 Gaussian 16, Revision A.03,

 -----------------------------------------------------------
 # opt freq B3LYP/6-31G(d) empiricaldispersion=gd3bj scf=xqc
 -----------------------------------------------------------

 -------------------------------
 CID_81083458_JID_10638_neutraal
 -------------------------------
 Symbolic Z-matrix:
 Charge =  0 Multiplicity = 1

 SCF Done:  E(RB3LYP) =  -936.113947678     A.U. after   15 cycles
 SCF Done:  E(RB3LYP) =  -936.103714165     A.U. after   13 cycles
 SCF Done:  E(RB3LYP) =  -936.122042832     A.U. after   12 cycles
 SCF Done:  E(RB3LYP) =  -936.120357287     A.U. after   12 cycles
 SCF Done:  E(RB3LYP) =  -936.121009997     A.U. after   12 cycles
 SCF Done:  E(RB3LYP) =  -936.122898853     A.U. after    9 cycles
 SCF Done:  E(RB3LYP) =  -936.123839725     A.U. after   11 cycles
 SCF Done:  E(RB3LYP) =  -936.121574792     A.U. after   12 cycles
 SCF Done:  E(RB3LYP) =  -936.124253490     A.U. after   12 cycles
 SCF Done:  E(RB3LYP) =  -936.124588002     A.U. after   12 cycles
 SCF Done:  E(RB3LYP) =  -936.141415548     A.U. after   10 cycles
 SCF Done:  E(RB3LYP) =  -936.141422211     A.U. after   10 cycles
 SCF Done:  E(RB3LYP) =  -936.141425367     A.U. after    9 cycles
 SCF Done:  E(RB3LYP) =  -936.141426528     A.U. after    8 cycles
 SCF Done:  E(RB3LYP) =  -936.141426739     A.U. after    7 cycles
 Optimization completed.
    -- Stationary point found.
 Normal termination of Gaussian 16 at Sat Dec 12 17:38:19 2020.

 --------------------------------------------------------------------
 #N Geom=AllCheck Guess=TCheck SCRF=Check GenChk RB3LYP/6-31G(d) Freq
 --------------------------------------------------------------------

 Structure from the checkpoint file:  "JID_10638.chk"
 -------------------------------
 CID_81083458_JID_10638_neutraal
 -------------------------------
 Charge =  0 Multiplicity = 1

 SCF Done:  E(RB3LYP) =  -936.141426739     A.U. after    1 cycles

  Exact polarizability: 201.789   1.930 182.494  -2.817 -11.418 130.232
 Approx polarizability: 291.214   4.857 277.567  -2.141 -33.168 200.066

                      1                      2                      3
                      A                      A                      A
 Frequencies --     38.4927                51.3203                60.4783
 Red. masses --      4.1625                 6.5624                 4.8367
 Frc consts  --      0.0036                 0.0102                 0.0104
 IR Inten    --      0.9960                 1.2526                 0.2970

                      4                      5                      6
                      A                      A                      A
 Frequencies --     68.2165                74.7848                83.9084
 Red. masses --      4.5396                 3.7781                 5.0012
 Frc consts  --      0.0124                 0.0124                 0.0207
 IR Inten    --      3.8084                 0.3135                 4.3434

                      7                      8                      9
                      A                      A                      A
 Frequencies --     88.5302                90.8266               105.7663
 Red. masses --      3.4396                 4.4480                 3.3649
 Frc consts  --      0.0159                 0.0216                 0.0222
 IR Inten    --      0.7445                 2.6735                 0.5124

                     10                     11                     12
                      A                      A                      A
 Frequencies --    127.4904               180.5527               208.9263
 Red. masses --      3.1876                 3.3066                 2.0094
 Frc consts  --      0.0305                 0.0635                 0.0517
 IR Inten    --      3.0444                 0.1764                 1.6980

                     13                     14                     15
                      A                      A                      A
 Frequencies --    221.7196               231.2883               244.7597
 Red. masses --      1.9003                 3.3581                 2.0213
 Frc consts  --      0.0550                 0.1058                 0.0713
 IR Inten    --      3.2630                 5.7072                 2.4612

                     16                     17                     18
                      A                      A                      A
 Frequencies --    250.8201               266.2310               278.4247
 Red. masses --      1.4138                 1.1817                 2.2649
 Frc consts  --      0.0524                 0.0493                 0.1034
 IR Inten    --      1.1490                19.9714                 4.3184

                     19                     20                     21
                      A                      A                      A
 Frequencies --    298.4336               309.6372               322.7134
 Red. masses --      2.8832                 1.2331                 4.1763
 Frc consts  --      0.1513                 0.0697                 0.2563
 IR Inten    --      4.4358                26.5908                 9.1680

                     22                     23                     24
                      A                      A                      A
 Frequencies --    348.9367               359.5224               363.4939
 Red. masses --      4.1499                 2.5606                 3.1149
 Frc consts  --      0.2977                 0.1950                 0.2425
 IR Inten    --      1.7408                 7.9742                 6.0004

                     25                     26                     27
                      A                      A                      A
 Frequencies --    410.3548               427.0248               476.8967
 Red. masses --      4.5414                 5.4787                 2.7605
 Frc consts  --      0.4506                 0.5886                 0.3699
 IR Inten    --      2.2474                 9.0439                13.6657

                     28                     29                     30
                      A                      A                      A
 Frequencies --    483.1445               492.0050               541.7865
 Red. masses --      2.8855                 3.1469                 3.7521
 Frc consts  --      0.3969                 0.4488                 0.6489
 IR Inten    --     25.1237                21.3315                 3.0553

                     31                     32                     33
                      A                      A                      A
 Frequencies --    551.9723               570.6272               607.8676
 Red. masses --      3.8612                 3.4382                 2.1591
 Frc consts  --      0.6931                 0.6596                 0.4700
 IR Inten    --     16.1495                 9.2725                50.8211

                     34                     35                     36
                      A                      A                      A
 Frequencies --    624.9559               673.6942               697.4616
 Red. masses --      2.9281                 3.9672                 3.2921
 Frc consts  --      0.6738                 1.0609                 0.9435
 IR Inten    --     37.3623                11.2825                10.5011

                     37                     38                     39
                      A                      A                      A
 Frequencies --    720.9231               744.1502               763.7167
 Red. masses --      2.2542                 3.9797                 3.2288
 Frc consts  --      0.6903                 1.2984                 1.1096
 IR Inten    --     36.1267                 9.4665                34.4250

                     40                     41                     42
                      A                      A                      A
 Frequencies --    789.9370               796.2490               813.8818
 Red. masses --      2.7888                 3.2872                 1.6336
 Frc consts  --      1.0253                 1.2279                 0.6376
 IR Inten    --     74.0105                22.7646                 7.4092

                     43                     44                     45
                      A                      A                      A
 Frequencies --    871.7683               886.8249               924.6123
 Red. masses --      2.5542                 1.9369                 1.5829
 Frc consts  --      1.1437                 0.8975                 0.7973
 IR Inten    --      5.6332                87.8824                 1.9900

                     46                     47                     48
                      A                      A                      A
 Frequencies --    929.7868               936.4485               944.0286
 Red. masses --      1.6737                 2.3296                 1.7186
 Frc consts  --      0.8525                 1.2037                 0.9024
 IR Inten    --     12.1158                11.1259                13.0622

                     49                     50                     51
                      A                      A                      A
 Frequencies --    966.6742               983.7352               986.7787
 Red. masses --      1.2245                 1.3146                 1.4717
 Frc consts  --      0.6742                 0.7496                 0.8443
 IR Inten    --      4.4668                 0.5646                 0.0586

                     52                     53                     54
                      A                      A                      A
 Frequencies --   1003.0623              1027.9635              1029.3351
 Red. masses --      2.1987                 2.7137                 5.2120
 Frc consts  --      1.3034                 1.6896                 3.2536
 IR Inten    --     17.3925                 1.0507                 3.4532

                     55                     56                     57
                      A                      A                      A
 Frequencies --   1064.2560              1109.3684              1115.4414
 Red. masses --      2.8081                 1.5664                 1.5943
 Frc consts  --      1.8740                 1.1358                 1.1687
 IR Inten    --     79.5468                23.6673                52.8004

                     58                     59                     60
                      A                      A                      A
 Frequencies --   1137.6068              1157.9134              1161.8219
 Red. masses --      2.4662                 1.5891                 4.3332
 Frc consts  --      1.8805                 1.2553                 3.4462
 IR Inten    --      0.9211                25.3585                91.6525

                     61                     62                     63
                      A                      A                      A
 Frequencies --   1193.3243              1195.4761              1210.8240
 Red. masses --      1.2756                 1.1237                 1.8686
 Frc consts  --      1.0702                 0.9462                 1.6141
 IR Inten    --      5.6167                 1.0892                 3.6270

                     64                     65                     66
                      A                      A                      A
 Frequencies --   1219.8969              1227.4163              1245.1422
 Red. masses --      1.7823                 1.8288                 1.5117
 Frc consts  --      1.5627                 1.6233                 1.3809
 IR Inten    --      8.2841                33.8444                 2.0152

                     67                     68                     69
                      A                      A                      A
 Frequencies --   1287.3416              1293.3313              1324.7797
 Red. masses --      2.1098                 1.5333                 1.4663
 Frc consts  --      2.0600                 1.5111                 1.5163
 IR Inten    --     39.8886                 8.6052                 1.1552

                     70                     71                     72
                      A                      A                      A
 Frequencies --   1335.4323              1352.8876              1360.2619
 Red. masses --      2.0972                 3.3391                 2.5923
 Frc consts  --      2.2036                 3.6008                 2.8260
 IR Inten    --      4.7521               135.0971                21.6347

                     73                     74                     75
                      A                      A                      A
 Frequencies --   1369.2809              1374.6793              1379.8784
 Red. masses --      1.6872                 1.5881                 1.6837
 Frc consts  --      1.8638                 1.7683                 1.8889
 IR Inten    --     91.1752                66.2187               104.2352

                     76                     77                     78
                      A                      A                      A
 Frequencies --   1418.5999              1429.0325              1434.3923
 Red. masses --      1.3043                 1.2450                 1.6832
 Frc consts  --      1.5465                 1.4979                 2.0405
 IR Inten    --      9.6317                 9.9398                37.4992

                     79                     80                     81
                      A                      A                      A
 Frequencies --   1436.2987              1454.8025              1460.2537
 Red. masses --      1.5773                 1.2528                 1.6798
 Frc consts  --      1.9171                 1.5623                 2.1104
 IR Inten    --     11.7903                11.0380                35.1184

                     82                     83                     84
                      A                      A                      A
 Frequencies --   1497.6954              1507.2557              1522.0164
 Red. masses --      2.5967                 1.1411                 1.0433
 Frc consts  --      3.4318                 1.5273                 1.4240
 IR Inten    --     10.7179                 1.1334                 1.4594

                     85                     86                     87
                      A                      A                      A
 Frequencies --   1523.3782              1527.1663              1532.0772
 Red. masses --      1.0502                 1.0554                 1.0560
 Frc consts  --      1.4359                 1.4503                 1.4603
 IR Inten    --      5.2554                 0.9060                11.3868

                     88                     89                     90
                      A                      A                      A
 Frequencies --   1536.1839              1548.4608              1551.2173
 Red. masses --      1.0487                 2.5413                 1.0813
 Frc consts  --      1.4581                 3.5902                 1.5330
 IR Inten    --      5.4779                60.1857                 8.9763

                     91                     92                     93
                      A                      A                      A
 Frequencies --   1555.2494              1648.4262              1659.6804
 Red. masses --      1.0670                 6.2782                 5.6202
 Frc consts  --      1.5206                10.0513                 9.1212
 IR Inten    --     13.2690                59.5599                72.2217

                     94                     95                     96
                      A                      A                      A
 Frequencies --   1703.0193              1767.9416              1775.9860
 Red. masses --      1.0897                 7.5019                 8.5067
 Frc consts  --      1.8621                13.8152                15.8085
 IR Inten    --     33.3831               279.0988               375.4280

                     97                     98                     99
                      A                      A                      A
 Frequencies --   2987.6867              3006.2021              3052.8203
 Red. masses --      1.0618                 1.0380                 1.0980
 Frc consts  --      5.5845                 5.5269                 6.0293
 IR Inten    --     44.5800                87.4288                54.1375

                    100                    101                    102
                      A                      A                      A
 Frequencies --   3056.2020              3057.9240              3059.8597
 Red. masses --      1.0374                 1.1045                 1.0383
 Frc consts  --      5.7092                 6.0852                 5.7277
 IR Inten    --     21.0628                29.4559                24.3299

                    103                    104                    105
                      A                      A                      A
 Frequencies --   3075.2625              3081.6644              3121.3347
 Red. masses --      1.0843                 1.0849                 1.1012
 Frc consts  --      6.0419                 6.0704                 6.3210
 IR Inten    --     17.5971                 5.7878                13.3139

                    106                    107                    108
                      A                      A                      A
 Frequencies --   3123.3809              3145.9843              3150.5147
 Red. masses --      1.0997                 1.1028                 1.0997
 Frc consts  --      6.3207                 6.4309                 6.4314
 IR Inten    --     32.9383                 3.2023                 4.1351

                    109                    110                    111
                      A                      A                      A
 Frequencies --   3151.3041              3198.3940              3218.4208
 Red. masses --      1.0996                 1.0876                 1.0927
 Frc consts  --      6.4336                 6.5552                 6.6687
 IR Inten    --     40.6417                 7.5822                10.4966

                    112                    113                    114
                      A                      A                      A
 Frequencies --   3227.5534              3245.8740              3493.4228
 Red. masses --      1.0946                 1.0917                 1.0535
 Frc consts  --      6.7183                 6.7765                 7.5754
 IR Inten    --      8.3636                 6.4689                 2.6561

                    115                    116                    117
                      A                      A                      A
 Frequencies --   3537.4479              3551.2079              3599.4629
 Red. masses --      1.0739                 1.0744                 1.0878
 Frc consts  --      7.9179                 7.9832                 8.3037
 IR Inten    --     17.3573                26.5026                12.0482

 - Thermochemistry -
 -------------------
 Temperature   298.150 Kelvin.  Pressure   1.00000 Atm.
 Atom     1 has atomic number  6 and mass  12.00000

 Molecular mass:   279.15829 amu.
 Principal axes and moments of inertia in atomic units:
                           1         2         3
     Eigenvalues --  3856.009866421.277008380.52238
           X            0.99966   0.02386  -0.01076
           Y           -0.02384   0.99971   0.00182
           Z            0.01080  -0.00157   0.99994
 This molecule is an asymmetric top.
 Rotational symmetry number  1.
 Warning -- assumption of classical behavior for rotation
           may cause significant error
 Rotational temperatures (Kelvin)      0.02246     0.01349     0.01034
 Rotational constants (GHZ):           0.46803     0.28106     0.21535
 Zero-point vibrational energy     915743.5 (Joules/Mol)
                                  218.86795 (Kcal/Mol)
 Warning -- explicit consideration of  33 degrees of freedom as
           vibrations may cause significant error
 Vibrational temperatures:     55.38    73.84    87.01    98.15   107.60
          (Kelvin)            120.73   127.38   130.68   152.17   183.43
                              259.78   300.60   319.01   332.77   352.15
                              360.87   383.05   400.59   429.38   445.50
                              464.31   502.04   517.27   522.99   590.41
                              614.39   686.15   695.14   707.89   779.51
                              794.17   821.01   874.59   899.17   969.30
                             1003.49  1037.25  1070.67  1098.82  1136.54
                             1145.62  1170.99  1254.28  1275.94  1330.31
                             1337.76  1347.34  1358.25  1390.83  1415.38
                             1419.75  1443.18  1479.01  1480.98  1531.23
                             1596.13  1604.87  1636.76  1665.98  1671.60
                             1716.93  1720.02  1742.11  1755.16  1765.98
                             1791.48  1852.20  1860.82  1906.06  1921.39
                             1946.50  1957.11  1970.09  1977.86  1985.34
                             2041.05  2056.06  2063.77  2066.51  2093.14
                             2100.98  2154.85  2168.60  2189.84  2191.80
                             2197.25  2204.32  2210.23  2227.89  2231.86
                             2237.66  2371.72  2387.91  2450.26  2543.67
                             2555.25  4298.61  4325.25  4392.33  4397.19
                             4399.67  4402.46  4424.62  4433.83  4490.90
                             4493.85  4526.37  4532.89  4534.02  4601.78
                             4630.59  4643.73  4670.09  5026.26  5089.60
                             5109.40  5178.82

 Zero-point correction=                           0.348788 (Hartree/Particle)
 Thermal correction to Energy=                    0.369598
 Thermal correction to Enthalpy=                  0.370542
 Thermal correction to Gibbs Free Energy=         0.299373
 Sum of electronic and zero-point Energies=           -935.792638
 Sum of electronic and thermal Energies=              -935.771828
 Sum of electronic and thermal Enthalpies=            -935.770884
 Sum of electronic and thermal Free Energies=         -935.842054

                     E (Thermal)             CV                S
                      KCal/Mol        Cal/Mol-Kelvin    Cal/Mol-Kelvin
 Total                  231.926             77.971            149.789
 Electronic               0.000              0.000              0.000
 Translational            0.889              2.981             42.778
 Rotational               0.889              2.981             33.695
 Vibrational            230.149             72.009             73.316
 Vibration     1          0.594              1.982              5.335
 Vibration     2          0.596              1.977              4.766
 Vibration     3          0.597              1.973              4.442
 Vibration     4          0.598              1.969              4.204
 Vibration     5          0.599              1.966              4.023
 Vibration     6          0.601              1.960              3.797
 Vibration     7          0.601              1.957              3.692
 Vibration     8          0.602              1.956              3.642
 Vibration     9          0.605              1.945              3.345
 Vibration    10          0.611              1.926              2.984
 Vibration    11          0.630              1.866              2.323
 Vibration    12          0.642              1.827              2.053
 Vibration    13          0.648              1.808              1.945
 Vibration    14          0.653              1.793              1.869
 Vibration    15          0.660              1.771              1.768
 Vibration    16          0.663              1.761              1.725
 Vibration    17          0.672              1.735              1.621
 Vibration    18          0.679              1.713              1.543
 Vibration    19          0.692              1.677              1.426
 Vibration    20          0.699              1.655              1.364
 Vibration    21          0.708              1.630              1.296
 Vibration    22          0.726              1.577              1.171
 Vibration    23          0.734              1.556              1.124
 Vibration    24          0.737              1.547              1.107
 Vibration    25          0.775              1.448              0.925
 Vibration    26          0.789              1.411              0.868
 Vibration    27          0.833              1.301              0.718
 Vibration    28          0.839              1.287              0.702
 Vibration    29          0.848              1.268              0.678
 Vibration    30          0.897              1.158              0.561
 Vibration    31          0.907              1.135              0.540
 Vibration    32          0.927              1.095              0.503
 Vibration    33          0.967              1.015              0.436

                           ! Non-Optimized Parameters !
 Normal termination of Gaussian 16 at Sat Dec 12 18:01:58 2020.

 ----------------------------------------------------------------------
 # B3LYP/6-311++G(d,p) empiricaldispersion=gd3bj scf=xqc pop=npa geom=c
 heck
 ----------------------------------------------------------------------

 ---------------------------------------
 CID_81083458_JID_10638_Energie_neutraal
 ---------------------------------------
 Structure from the checkpoint file:  "JID_10638.chk"
 Charge =  0 Multiplicity = 1

 SCF Done:  E(RB3LYP) =  -936.419191213     A.U. after   15 cycles
 Normal termination of Gaussian 16 at Sat Dec 12 18:11:09 2020.

 ----------------------------------------------------------------------
 # B3LYP/6-311++G(d,p) empiricaldispersion=gd3bj scf=xqc pop=npa geom=c
 heck
 ----------------------------------------------------------------------

 -------------------------------------
 CID_81083458_JID_10638_Energie_kation
 -------------------------------------
 Structure from the checkpoint file:  "JID_10638.chk"
 Charge =  1 Multiplicity = 2

 SCF Done:  E(UB3LYP) =  -936.114604032     A.U. after   30 cycles
 Normal termination of Gaussian 16 at Sat Dec 12 18:35:43 2020.
 Gaussian 16:  ES64L-G16RevA.03 25-Dec-2016

 ----------------------------------------------------------------------
 # B3LYP/6-311++G(d,p) empiricaldispersion=gd3bj scf=xqc pop=npa geom=c
 heck
 ----------------------------------------------------------------------

 ------------------------------------
 CID_81083458_JID_10638_Energie_anion
 ------------------------------------
 Structure from the checkpoint file:  "JID_10638.chk"
 Charge = -1 Multiplicity = 2

                         Standard orientation:
 ---------------------------------------------------------------------
 Center     Atomic      Atomic             Coordinates (Angstroms)
 Number     Number       Type             X           Y           Z
 ---------------------------------------------------------------------
      1          6           0       -4.069460   -0.217768    1.068322
      2          6           0       -2.982357    0.824583    0.760412
      3          6           0       -1.766857    0.672369    1.688347
      4          6           0       -2.650431    0.874597   -0.732735
      5          8           0       -2.947266    1.857847   -1.401977
      6          7           0       -2.093046   -0.227317   -1.370484
      7          6           0       -1.151054   -1.161524   -0.824116
      8          6           0        0.208827   -0.849823   -0.892551
      9          6           0        1.163345   -1.734082   -0.389662
     10          6           0        0.757296   -2.954646    0.158330
     11          6           0       -0.597466   -3.279464    0.189117
     12          6           0       -1.556644   -2.391842   -0.306718
     13          7           0        2.549223   -1.418055   -0.493692
     14          6           0        3.168593   -0.219669   -0.206561
     15          8           0        4.183581    0.115578   -0.803241
     16          6           0        2.675788    0.654894    0.963551
     17          6           0        2.270157    2.051006    0.461596
     18          8           0        0.991666    1.963714   -0.142976
     19          6           0        0.490782    3.207907   -0.601683
     20          7           0        1.716264    0.007339    1.849744
     21          1           0       -4.426818   -0.085867    2.095881
     22          1           0       -3.685628   -1.237007    0.978140
     23          1           0       -4.925946   -0.110135    0.394749
     24          1           0       -3.409658    1.817433    0.931689
     25          1           0       -1.377695   -0.349314    1.683708
     26          1           0       -0.961231    1.353888    1.399516
     27          1           0       -2.065267    0.908660    2.716166
     28          1           0       -1.917146    0.013185   -2.342011
     29          1           0        0.522342    0.101246   -1.303506
     30          1           0        1.504140   -3.630764    0.561357
     31          1           0       -0.911960   -4.233462    0.601640
     32          1           0       -2.609073   -2.652204   -0.308259
     33          1           0        3.067650   -1.932013   -1.199512
     34          1           0        3.600687    0.801174    1.533193
     35          1           0        2.230253    2.745742    1.317050
     36          1           0        3.019848    2.421660   -0.251775
     37          1           0        0.418081    3.933756    0.222455
     38          1           0        1.134738    3.631601   -1.386128
     39          1           0       -0.507136    3.021468   -1.005884
     40          1           0        1.728499    0.474047    2.754623
     41          1           0        0.777272    0.116799    1.479590
 ---------------------------------------------------------------------

 SCF Done:  E(UB3LYP) =  -936.413671727     A.U. after   33 cycles
 SCF Done:  E(UB3LYP) =  -936.413671727     a.u. after    2 cycles

 The electronic state is 2-A.
 Alpha  occ. eigenvalues --  -19.03648 -19.00142 -18.97972 -14.24273 -14.23139
 Alpha  occ. eigenvalues --  -14.18733 -10.18214 -10.16025 -10.12056 -10.11827
 Alpha  occ. eigenvalues --  -10.10845 -10.10640 -10.10370 -10.09362 -10.07844
 Alpha  occ. eigenvalues --  -10.07613 -10.06844 -10.06823 -10.06745 -10.06621
 Alpha  occ. eigenvalues --   -0.95116  -0.94898  -0.93240  -0.83513  -0.82285
 Alpha  occ. eigenvalues --   -0.78472  -0.73957  -0.70907  -0.65097  -0.64517
 Alpha  occ. eigenvalues --   -0.64037  -0.59892  -0.58738  -0.54720  -0.54000
 Alpha  occ. eigenvalues --   -0.52002  -0.51508  -0.47589  -0.45998  -0.44573
 Alpha  occ. eigenvalues --   -0.40766  -0.39578  -0.39343  -0.38563  -0.38392
 Alpha  occ. eigenvalues --   -0.37572  -0.36999  -0.36241  -0.36027  -0.35633
 Alpha  occ. eigenvalues --   -0.34207  -0.33539  -0.32823  -0.31619  -0.31389
 Alpha  occ. eigenvalues --   -0.30517  -0.30030  -0.29077  -0.28345  -0.28029
 Alpha  occ. eigenvalues --   -0.27323  -0.26650  -0.26247  -0.25197  -0.24752
 Alpha  occ. eigenvalues --   -0.24277  -0.23325  -0.19088  -0.17499  -0.17441
 Alpha  occ. eigenvalues --   -0.17073  -0.16428  -0.14976  -0.13824  -0.13241
 Alpha  occ. eigenvalues --    0.04212
 Alpha virt. eigenvalues --    0.06276   0.06610   0.07349   0.07417   0.08265
 Alpha virt. eigenvalues --    0.08535   0.08696   0.09132   0.09877   0.10255
 Alpha virt. eigenvalues --    0.10404   0.10784   0.11330   0.11433   0.12136

  Beta  occ. eigenvalues --  -19.03644 -19.00144 -18.97890 -14.24276 -14.23173
  Beta  occ. eigenvalues --  -14.18711 -10.18204 -10.15925 -10.12044 -10.11796
  Beta  occ. eigenvalues --  -10.10742 -10.10641 -10.10193 -10.09357 -10.07876
  Beta  occ. eigenvalues --  -10.07594 -10.06876 -10.06683 -10.06645 -10.06610
  Beta  occ. eigenvalues --   -0.95110  -0.94885  -0.93088  -0.83420  -0.82165
  Beta  occ. eigenvalues --   -0.78423  -0.73818  -0.70888  -0.65032  -0.64397
  Beta  occ. eigenvalues --   -0.63768  -0.59860  -0.58667  -0.54665  -0.53851
  Beta  occ. eigenvalues --   -0.51848  -0.51355  -0.47510  -0.45879  -0.44503
  Beta  occ. eigenvalues --   -0.40702  -0.39528  -0.39223  -0.38499  -0.38335
  Beta  occ. eigenvalues --   -0.37506  -0.36910  -0.36195  -0.35951  -0.35584
  Beta  occ. eigenvalues --   -0.34173  -0.33505  -0.32796  -0.31519  -0.31200
  Beta  occ. eigenvalues --   -0.30437  -0.29998  -0.29042  -0.28283  -0.27870
  Beta  occ. eigenvalues --   -0.27156  -0.26445  -0.26167  -0.25144  -0.24618
  Beta  occ. eigenvalues --   -0.24143  -0.23284  -0.18801  -0.17419  -0.17333
  Beta  occ. eigenvalues --   -0.16893  -0.16363  -0.14736  -0.13509  -0.12884
  Beta virt. eigenvalues --    0.06406   0.07146   0.07366   0.07527   0.08012
  Beta virt. eigenvalues --    0.08477   0.08735   0.08903   0.09505   0.09980
  Beta virt. eigenvalues --    0.10413   0.10621   0.10956   0.11539   0.11653

 Mulliken charges and spin densities:
               1          2
     1  C   -0.071158  -0.533635
     2  C    0.079137   0.352695
     3  C   -0.228044  -0.359494
     4  C   -0.281851  -0.116126
     5  O   -0.277151   0.004368
     6  N   -0.099398   0.009006
     7  C    0.099175   0.016097
     8  C    0.769004  -0.456121
     9  C   -1.033558  -0.059861
    10  C   -0.627966   0.702571
    11  C   -0.313537  -0.114051
    12  C    0.376207  -0.110735
    13  N   -0.057146  -0.026440
    14  C   -0.211881   0.065316
    15  O   -0.313275   0.034251
    16  C   -0.073520   0.096675
    17  C    0.420680  -0.836727
    18  O   -0.180223   0.022791
    19  C   -0.127546  -0.162364
    20  N   -0.317880  -0.068145
    21  H   -0.074941   0.206947
    22  H    0.031718   0.093033
    23  H    0.112522   0.040756
    24  H    0.133592   0.089534
    25  H    0.065986   0.113316
    26  H    0.063605   0.056905
    27  H   -0.270219   0.441765
    28  H    0.302337  -0.002862
    29  H    0.297645  -0.023444
    30  H   -0.003035   0.154132
    31  H   -0.014653   0.177072
    32  H    0.189853  -0.052377
    33  H    0.144178   0.176953
    34  H   -0.314682   0.545361
    35  H   -0.325006   0.503931
    36  H    0.212841  -0.020441
    37  H   -0.000592   0.134728
    38  H    0.066255   0.057482
    39  H    0.128060   0.039302
    40  H   -0.044358   0.346384
    41  H    0.768827  -0.538545
 Sum of Mulliken charges =  -1.00000   1.00000

 Dipole moment (field-independent basis, Debye):
    X=             -3.9151    Y=             -1.6939    Z=             -2.8258  Tot=              5.1169
 Quadrupole moment (field-independent basis, Debye-Ang):
   XX=           -192.4251   YY=           -159.1596   ZZ=           -155.5996
   XY=              3.6597   XZ=             -3.2115   YZ=             -3.8093

 Summary of Natural Population Analysis:

                                       Natural Population
                Natural  -----------------------------------------------
    Atom  No    Charge         Core      Valence    Rydberg      Total
 -----------------------------------------------------------------------
      C    1   -0.28222      0.99965     2.27673    0.00584     3.28222
      C    2   -0.14974      0.99957     2.14108    0.00910     3.14974
      C    3   -0.29167      0.99964     2.28537    0.00665     3.29167
      C    4    0.35626      0.99963     1.61895    0.02516     2.64374
      O    5   -0.32631      0.99988     3.32060    0.00584     4.32631
      N    6   -0.32555      0.99964     2.81577    0.01013     3.82555
      C    7    0.07635      0.99944     1.91300    0.01120     2.92365
      C    8   -0.12200      0.99945     2.11462    0.00792     3.12200
      C    9    0.10400      0.99945     1.88502    0.01153     2.89600
      C   10   -0.08347      0.99951     2.07464    0.00932     3.08347
      C   11   -0.10442      0.99957     2.09598    0.00888     3.10442
      C   12   -0.08876      0.99951     2.08025    0.00900     3.08876
      N   13   -0.32276      0.99964     2.81288    0.01024     3.82276
      C   14    0.36124      0.99965     1.61571    0.02341     2.63876
      O   15   -0.32203      0.99988     3.31663    0.00553     4.32203
      C   16   -0.06318      0.99955     2.04826    0.01536     3.06318
      C   17   -0.01046      0.99955     1.99818    0.01273     3.01046
      O   18   -0.30723      0.99988     3.29731    0.01004     4.30723
      C   19   -0.10016      0.99961     2.09195    0.00860     3.10016
      N   20   -0.41961      0.99976     2.90897    0.01088     3.91961
      H   21    0.09910      0.00000     0.40009    0.00081     0.40090
      H   22    0.10250      0.00000     0.39651    0.00099     0.39750
      H   23    0.09901      0.00000     0.40026    0.00074     0.40099
      H   24    0.10570      0.00000     0.39260    0.00170     0.39430
      H   25    0.10466      0.00000     0.39365    0.00168     0.39534
      H   26    0.10693      0.00000     0.39062    0.00245     0.39307
      H   27    0.09960      0.00000     0.39939    0.00101     0.40040
      H   28    0.19281      0.00000     0.30529    0.00190     0.30719
      H   29    0.11643      0.00000     0.38188    0.00169     0.38357
      H   30    0.10258      0.00000     0.39647    0.00095     0.39742
      H   31    0.09820      0.00000     0.40100    0.00080     0.40180
      H   32    0.09941      0.00000     0.39929    0.00129     0.40059
      H   33    0.19583      0.00000     0.30106    0.00312     0.30417
      H   34    0.11268      0.00000     0.38564    0.00168     0.38732
      H   35    0.08145      0.00000     0.41586    0.00269     0.41855
      H   36    0.08942      0.00000     0.40924    0.00134     0.41058
      H   37    0.07979      0.00000     0.41914    0.00107     0.42021
      H   38    0.07742      0.00000     0.42169    0.00090     0.42258
      H   39    0.09912      0.00000     0.39994    0.00095     0.40088
      H   40    0.17753      0.00000     0.32010    0.00237     0.32247
      H   41    0.18157      0.00000     0.31489    0.00354     0.31843
 =======================================================================
   * Total *    0.00000     19.99246    54.75651    0.25103    75.00000

 Normal termination of Gaussian 16 at Sat Dec 12 20:11:09 2020.
