 Gaussian 16, Revision A.03,

 -----------------------------------------------------------
 # opt freq B3LYP/6-31G(d) empiricaldispersion=gd3bj scf=xqc
 -----------------------------------------------------------

 -----------------------------
 CID_153373805_JID_80_neutraal
 -----------------------------
 Symbolic Z-matrix:
 Charge =  0 Multiplicity = 1

 SCF Done:  E(RB3LYP) =  -446.277394831     A.U. after   13 cycles
 SCF Done:  E(RB3LYP) =  -446.281795563     A.U. after   11 cycles
 SCF Done:  E(RB3LYP) =  -446.282120933     A.U. after   11 cycles
 SCF Done:  E(RB3LYP) =  -446.282861916     A.U. after   10 cycles
 SCF Done:  E(RB3LYP) =  -446.283016031     A.U. after   10 cycles
 SCF Done:  E(RB3LYP) =  -446.283224274     A.U. after   10 cycles
 SCF Done:  E(RB3LYP) =  -446.283244299     A.U. after    9 cycles
 SCF Done:  E(RB3LYP) =  -446.283258386     A.U. after    9 cycles
 SCF Done:  E(RB3LYP) =  -446.283260360     A.U. after    7 cycles
 SCF Done:  E(RB3LYP) =  -446.283261033     A.U. after    7 cycles
 SCF Done:  E(RB3LYP) =  -446.283261145     A.U. after    6 cycles
 SCF Done:  E(RB3LYP) =  -446.283261175     A.U. after    6 cycles
 SCF Done:  E(RB3LYP) =  -446.283261185     A.U. after    5 cycles
 Optimization completed.
    -- Stationary point found.
 Normal termination of Gaussian 16 at Tue Dec  8 10:18:30 2020.

 --------------------------------------------------------------------
 #N Geom=AllCheck Guess=TCheck SCRF=Check GenChk RB3LYP/6-31G(d) Freq
 --------------------------------------------------------------------

 Structure from the checkpoint file:  "JID_80.chk"
 -----------------------------
 CID_153373805_JID_80_neutraal
 -----------------------------
 Charge =  0 Multiplicity = 1

 SCF Done:  E(RB3LYP) =  -446.283261185     A.U. after    1 cycles

  Exact polarizability: 109.464   1.896  90.749  -0.968   0.559  86.973
 Approx polarizability: 136.152   2.415 124.573  -2.637  -0.193 127.844

                      1                      2                      3
                      A                      A                      A
 Frequencies --     71.6190                91.6885               121.1583
 Red. masses --      2.6658                 1.9630                 2.3221
 Frc consts  --      0.0081                 0.0097                 0.0201
 IR Inten    --      0.4411                 1.5633                 0.9782

                      4                      5                      6
                      A                      A                      A
 Frequencies --    181.4813               193.4563               220.6566
 Red. masses --      2.2737                 1.1886                 2.2356
 Frc consts  --      0.0441                 0.0262                 0.0641
 IR Inten    --      0.3622                 1.4542                 4.0437

                      7                      8                      9
                      A                      A                      A
 Frequencies --    236.2890               256.7770               276.4952
 Red. masses --      1.1131                 1.4340                 1.4064
 Frc consts  --      0.0366                 0.0557                 0.0633
 IR Inten    --      0.4943                 0.9678                 2.0813

                     10                     11                     12
                      A                      A                      A
 Frequencies --    279.7305               294.4382               308.4079
 Red. masses --      1.2974                 1.2059                 1.8815
 Frc consts  --      0.0598                 0.0616                 0.1054
 IR Inten    --      1.5617                 2.3039                 1.6524

                     13                     14                     15
                      A                      A                      A
 Frequencies --    318.9927               330.8609               345.7757
 Red. masses --      1.6342                 2.8430                 2.1877
 Frc consts  --      0.0980                 0.1834                 0.1541
 IR Inten    --      0.3082                 2.7778                 0.2680

                     16                     17                     18
                      A                      A                      A
 Frequencies --    370.5072               391.4720               444.9108
 Red. masses --      2.6146                 2.2974                 3.1949
 Frc consts  --      0.2115                 0.2074                 0.3726
 IR Inten    --      0.0323                 0.9914                 5.8079

                     19                     20                     21
                      A                      A                      A
 Frequencies --    488.8357               517.3533               602.3069
 Red. masses --      2.5367                 3.0930                 2.5379
 Frc consts  --      0.3571                 0.4878                 0.5425
 IR Inten    --      0.0334                 8.2409                 3.5549

                     22                     23                     24
                      A                      A                      A
 Frequencies --    728.8056               788.7113               845.2196
 Red. masses --      2.9478                 2.9973                 2.3723
 Frc consts  --      0.9225                 1.0986                 0.9985
 IR Inten    --      1.3721                 2.2352                14.5042

                     25                     26                     27
                      A                      A                      A
 Frequencies --    934.5694               950.5556              1006.0956
 Red. masses --      1.5102                 1.9483                 1.5681
 Frc consts  --      0.7772                 1.0372                 0.9352
 IR Inten    --      0.3016                 7.5145                 4.8598

                     28                     29                     30
                      A                      A                      A
 Frequencies --   1016.4609              1070.1660              1094.6777
 Red. masses --      1.4804                 1.5953                 1.6285
 Frc consts  --      0.9012                 1.0765                 1.1498
 IR Inten    --      8.4798                13.4174                12.4664

                     31                     32                     33
                      A                      A                      A
 Frequencies --   1104.5399              1115.6455              1135.8337
 Red. masses --      2.1205                 2.5864                 2.7118
 Frc consts  --      1.5242                 1.8967                 2.0613
 IR Inten    --      5.8912                10.1018               151.9033

                     34                     35                     36
                      A                      A                      A
 Frequencies --   1142.0790              1184.8621              1188.8026
 Red. masses --      1.2503                 1.8074                 1.4133
 Frc consts  --      0.9608                 1.4950                 1.1768
 IR Inten    --      7.1993                72.2504                10.8031

                     37                     38                     39
                      A                      A                      A
 Frequencies --   1191.9071              1216.1566              1231.8549
 Red. masses --      1.4872                 1.5824                 2.5813
 Frc consts  --      1.2448                 1.3790                 2.3079
 IR Inten    --     35.8371                11.0653                22.3911

                     40                     41                     42
                      A                      A                      A
 Frequencies --   1272.8645              1292.4218              1350.4145
 Red. masses --      2.8712                 2.8043                 2.6683
 Frc consts  --      2.7408                 2.7598                 2.8670
 IR Inten    --      9.1999                 3.2084                32.6876

                     43                     44                     45
                      A                      A                      A
 Frequencies --   1368.5631              1417.5760              1426.3937
 Red. masses --      1.3741                 1.2977                 1.3040
 Frc consts  --      1.5164                 1.5364                 1.5632
 IR Inten    --      5.0712                 3.4479                 6.4831

                     46                     47                     48
                      A                      A                      A
 Frequencies --   1428.5188              1444.4097              1474.0081
 Red. masses --      1.3070                 1.2630                 1.1408
 Frc consts  --      1.5714                 1.5525                 1.4603
 IR Inten    --     23.3183                14.5002                 0.1541

                     49                     50                     51
                      A                      A                      A
 Frequencies --   1497.1475              1499.9726              1508.1906
 Red. masses --      1.1148                 1.1260                 1.0644
 Frc consts  --      1.4722                 1.4926                 1.4265
 IR Inten    --      4.0871                 5.6264                 7.2181

                     52                     53                     54
                      A                      A                      A
 Frequencies --   1511.3865              1513.6033              1520.9250
 Red. masses --      1.0601                 1.0557                 1.0716
 Frc consts  --      1.4267                 1.4249                 1.4604
 IR Inten    --      0.5664                 0.7079                 5.4744

                     55                     56                     57
                      A                      A                      A
 Frequencies --   1525.0033              1531.2065              1533.3017
 Red. masses --      1.0543                 1.0538                 1.0598
 Frc consts  --      1.4447                 1.4558                 1.4680
 IR Inten    --      2.4204                 1.4898                15.3781

                     58                     59                     60
                      A                      A                      A
 Frequencies --   1540.2370              1546.3772              1547.4252
 Red. masses --      1.0567                 1.0530                 1.0535
 Frc consts  --      1.4770                 1.4835                 1.4863
 IR Inten    --      3.7096                 4.9029                10.6783

                     61                     62                     63
                      A                      A                      A
 Frequencies --   1552.2381              1563.7634              2927.6051
 Red. masses --      1.0573                 1.0609                 1.0638
 Frc consts  --      1.5009                 1.5284                 5.3721
 IR Inten    --      5.2100                 4.1005                81.9511

                     64                     65                     66
                      A                      A                      A
 Frequencies --   2959.5299              3011.0960              3041.7499
 Red. masses --      1.0605                 1.0354                 1.0776
 Frc consts  --      5.4728                 5.5311                 5.8744
 IR Inten    --    109.2333                59.1031                63.7516

                     67                     68                     69
                      A                      A                      A
 Frequencies --   3050.5611              3056.1109              3061.2601
 Red. masses --      1.0734                 1.0792                 1.0694
 Frc consts  --      5.8856                 5.9388                 5.9045
 IR Inten    --     57.8305                13.7714                19.7970

                     70                     71                     72
                      A                      A                      A
 Frequencies --   3064.8431              3066.1020              3071.4990
 Red. masses --      1.0509                 1.0583                 1.0415
 Frc consts  --      5.8159                 5.8617                 5.7889
 IR Inten    --      8.7302                73.3373                21.5887

                     73                     74                     75
                      A                      A                      A
 Frequencies --   3115.3672              3124.9202              3125.3229
 Red. masses --      1.0971                 1.0997                 1.0985
 Frc consts  --      6.2735                 6.3272                 6.3217
 IR Inten    --     22.1896                34.1445                11.9815

                     76                     77                     78
                      A                      A                      A
 Frequencies --   3126.4205              3131.3144              3135.2790
 Red. masses --      1.0980                 1.0986                 1.0973
 Frc consts  --      6.3233                 6.3468                 6.3552
 IR Inten    --     40.3993                48.3370                29.3430

                     79                     80                     81
                      A                      A                      A
 Frequencies --   3144.0190              3151.5461              3161.0614
 Red. masses --      1.1027                 1.1028                 1.0999
 Frc consts  --      6.4219                 6.4538                 6.4753
 IR Inten    --     24.0793                17.7716                19.7279

 - Thermochemistry -
 -------------------
 Temperature   298.150 Kelvin.  Pressure   1.00000 Atm.
 Atom     1 has atomic number  6 and mass  12.00000

 Molecular mass:   145.14666 amu.
 Principal axes and moments of inertia in atomic units:
                           1         2         3
     Eigenvalues --   902.120102026.904562181.43010
           X            0.99997   0.00379   0.00647
           Y           -0.00398   0.99954   0.03020
           Z           -0.00635  -0.03023   0.99952
 This molecule is an asymmetric top.
 Rotational symmetry number  1.
 Warning -- assumption of classical behavior for rotation
           may cause significant error
 Rotational temperatures (Kelvin)      0.09601     0.04273     0.03971
 Rotational constants (GHZ):           2.00056     0.89039     0.82732
 Zero-point vibrational energy     703893.0 (Joules/Mol)
                                  168.23445 (Kcal/Mol)
 Warning -- explicit consideration of  21 degrees of freedom as
           vibrations may cause significant error
 Vibrational temperatures:    103.04   131.92   174.32   261.11   278.34
          (Kelvin)            317.48   339.97   369.44   397.81   402.47
                              423.63   443.73   458.96   476.04   497.49
                              533.08   563.24   640.13   703.33   744.36
                              866.59  1048.59  1134.78  1216.08  1344.64
                             1367.64  1447.55  1462.46  1539.73  1575.00
                             1589.19  1605.17  1634.21  1643.20  1704.75
                             1710.42  1714.89  1749.78  1772.36  1831.37
                             1859.51  1942.95  1969.06  2039.58  2052.26
                             2055.32  2078.18  2120.77  2154.06  2158.13
                             2169.95  2174.55  2177.74  2188.27  2194.14
                             2203.06  2206.08  2216.06  2224.89  2226.40
                             2233.32  2249.91  4212.17  4258.10  4332.30
                             4376.40  4389.08  4397.06  4404.47  4409.63
                             4411.44  4419.20  4482.32  4496.06  4496.64
                             4498.22  4505.26  4510.97  4523.54  4534.37
                             4548.06

 Zero-point correction=                           0.268099 (Hartree/Particle)
 Thermal correction to Energy=                    0.281022
 Thermal correction to Enthalpy=                  0.281966
 Thermal correction to Gibbs Free Energy=         0.230817
 Sum of electronic and zero-point Energies=           -446.015163
 Sum of electronic and thermal Energies=              -446.002239
 Sum of electronic and thermal Enthalpies=            -446.001295
 Sum of electronic and thermal Free Energies=         -446.052444

                     E (Thermal)             CV                S
                      KCal/Mol        Cal/Mol-Kelvin    Cal/Mol-Kelvin
 Total                  176.344             48.655            107.653
 Electronic               0.000              0.000              0.000
 Translational            0.889              2.981             40.829
 Rotational               0.889              2.981             29.768
 Vibrational            174.567             42.694             37.056
 Vibration     1          0.598              1.968              4.108
 Vibration     2          0.602              1.955              3.624
 Vibration     3          0.609              1.932              3.082
 Vibration     4          0.630              1.865              2.313
 Vibration     5          0.635              1.849              2.194
 Vibration     6          0.647              1.810              1.954
 Vibration     7          0.655              1.785              1.831
 Vibration     8          0.666              1.751              1.684
 Vibration     9          0.678              1.717              1.555
 Vibration    10          0.680              1.711              1.535
 Vibration    11          0.689              1.684              1.448
 Vibration    12          0.698              1.658              1.371
 Vibration    13          0.705              1.637              1.315
 Vibration    14          0.713              1.614              1.256
 Vibration    15          0.724              1.584              1.185
 Vibration    16          0.743              1.533              1.078
 Vibration    17          0.759              1.488              0.995
 Vibration    18          0.804              1.372              0.811
 Vibration    19          0.845              1.275              0.687
 Vibration    20          0.872              1.212              0.616
 Vibration    21          0.961              1.027              0.446

                           ! Non-Optimized Parameters !
 Normal termination of Gaussian 16 at Tue Dec  8 10:24:35 2020.

 ----------------------------------------------------------------------
 # B3LYP/6-311++G(d,p) empiricaldispersion=gd3bj scf=xqc pop=npa geom=c
 heck
 ----------------------------------------------------------------------

 -------------------------------------
 CID_153373805_JID_80_Energie_neutraal
 -------------------------------------
 Structure from the checkpoint file:  "JID_80.chk"
 Charge =  0 Multiplicity = 1

 SCF Done:  E(RB3LYP) =  -446.413514492     A.U. after   13 cycles
 Normal termination of Gaussian 16 at Tue Dec  8 10:26:51 2020.

 ----------------------------------------------------------------------
 # B3LYP/6-311++G(d,p) empiricaldispersion=gd3bj scf=xqc pop=npa geom=c
 heck
 ----------------------------------------------------------------------

 -----------------------------------
 CID_153373805_JID_80_Energie_kation
 -----------------------------------
 Structure from the checkpoint file:  "JID_80.chk"
 Charge =  1 Multiplicity = 2

 SCF Done:  E(UB3LYP) =  -446.135876578     A.U. after   19 cycles
 Normal termination of Gaussian 16 at Tue Dec  8 10:31:12 2020.
 Gaussian 16:  ES64L-G16RevA.03 25-Dec-2016

 ----------------------------------------------------------------------
 # B3LYP/6-311++G(d,p) empiricaldispersion=gd3bj scf=xqc pop=npa geom=c
 heck
 ----------------------------------------------------------------------

 ----------------------------------
 CID_153373805_JID_80_Energie_anion
 ----------------------------------
 Structure from the checkpoint file:  "JID_80.chk"
 Charge = -1 Multiplicity = 2

                         Standard orientation:
 ---------------------------------------------------------------------
 Center     Atomic      Atomic             Coordinates (Angstroms)
 Number     Number       Type             X           Y           Z
 ---------------------------------------------------------------------
      1          6           0       -0.343952    1.997330   -0.663220
      2          6           0       -0.466529    0.468829   -0.615190
      3          6           0        0.729061   -0.187876    0.159494
      4          6           0        0.990972    0.440887    1.534209
      5          6           0        0.531113   -1.700893    0.296964
      6          8           0        1.828487    0.072586   -0.743819
      7          6           0        3.136607   -0.207327   -0.294803
      8          7           0       -1.829219    0.081537   -0.249964
      9          6           0       -2.389468   -1.111431   -0.849741
     10          6           0       -2.299672    0.308578    1.097851
     11          1           0       -0.549419    2.461301    0.307236
     12          1           0       -1.065369    2.397002   -1.381387
     13          1           0        0.665270    2.283828   -0.969393
     14          1           0       -0.328526    0.107959   -1.640649
     15          1           0        0.106730    0.366729    2.170527
     16          1           0        1.805690   -0.076091    2.052016
     17          1           0        1.262402    1.496178    1.442438
     18          1           0        0.341035   -2.154801   -0.679996
     19          1           0        1.420714   -2.174163    0.725952
     20          1           0       -0.309386   -1.928467    0.958384
     21          1           0        3.458558    0.462862    0.514700
     22          1           0        3.259068   -1.245880    0.045270
     23          1           0        3.792972   -0.049183   -1.155084
     24          1           0       -2.153893   -2.051930   -0.319035
     25          1           0       -3.484327   -1.022794   -0.877977
     26          1           0       -2.033559   -1.209885   -1.880076
     27          1           0       -1.999571   -0.473183    1.823190
     28          1           0       -1.943289    1.271280    1.473257
     29          1           0       -3.397254    0.339206    1.097546
 ---------------------------------------------------------------------

 SCF Done:  E(UB3LYP) =  -446.396243958     A.U. after   26 cycles

 The electronic state is 2-A.
 Alpha  occ. eigenvalues --  -19.01170 -14.19555 -10.12002 -10.10020 -10.09230
 Alpha  occ. eigenvalues --  -10.08084 -10.08007 -10.04970 -10.04905 -10.04718
 Alpha  occ. eigenvalues --   -0.92326  -0.81550  -0.68929  -0.63490  -0.60529
 Alpha  occ. eigenvalues --   -0.58604  -0.57822  -0.54459  -0.48415  -0.43705
 Alpha  occ. eigenvalues --   -0.39133  -0.38189  -0.36101  -0.34988  -0.34858
 Alpha  occ. eigenvalues --   -0.33276  -0.31725  -0.30847  -0.29206  -0.29016
 Alpha  occ. eigenvalues --   -0.28301  -0.28022  -0.26912  -0.26401  -0.25399
 Alpha  occ. eigenvalues --   -0.25016  -0.23502  -0.22157  -0.19913  -0.15131
 Alpha  occ. eigenvalues --   -0.09908   0.04760
 Alpha virt. eigenvalues --    0.06847   0.07784   0.08246   0.09116   0.09683
 Alpha virt. eigenvalues --    0.10080   0.10604   0.10828   0.11938   0.12324
 Alpha virt. eigenvalues --    0.13132   0.13582   0.13820   0.14233   0.14696

  Beta  occ. eigenvalues --  -19.01165 -14.19550 -10.11999 -10.09979 -10.09227
  Beta  occ. eigenvalues --  -10.08055 -10.07970 -10.04936 -10.04876 -10.04704
  Beta  occ. eigenvalues --   -0.92315  -0.81534  -0.68907  -0.63461  -0.60475
  Beta  occ. eigenvalues --   -0.58543  -0.57758  -0.54408  -0.48349  -0.43653
  Beta  occ. eigenvalues --   -0.39100  -0.38154  -0.36058  -0.34952  -0.34825
  Beta  occ. eigenvalues --   -0.33243  -0.31689  -0.30810  -0.29170  -0.28991
  Beta  occ. eigenvalues --   -0.28268  -0.27992  -0.26879  -0.26364  -0.25364
  Beta  occ. eigenvalues --   -0.24990  -0.23472  -0.22130  -0.19884  -0.15114
  Beta  occ. eigenvalues --   -0.09878
  Beta virt. eigenvalues --    0.06993   0.07885   0.08466   0.08804   0.09742
  Beta virt. eigenvalues --    0.10336   0.10660   0.10959   0.11376   0.12474
  Beta virt. eigenvalues --    0.12793   0.13519   0.14011   0.14263   0.14505

 Mulliken charges and spin densities:
               1          2
     1  C    0.255116  -0.760392
     2  C   -0.470704  -0.072841
     3  C   -2.283006   2.204534
     4  C    1.128943  -1.593160
     5  C    0.740564  -1.257112
     6  O   -0.082973   0.020844
     7  C    1.218458  -1.410068
     8  N   -0.055950   0.221111
     9  C    0.554204  -0.804036
    10  C    0.690336  -1.049359
    11  H    0.026420   0.102205
    12  H    0.074117   0.091321
    13  H    0.035939   0.125547
    14  H    0.123561   0.043170
    15  H   -0.036585   0.189084
    16  H   -0.273413   0.460231
    17  H   -0.175690   0.354064
    18  H   -0.108048   0.297771
    19  H   -0.199873   0.332969
    20  H   -0.017158   0.160242
    21  H   -0.412461   0.557473
    22  H   -0.327783   0.453478
    23  H   -0.192393   0.327354
    24  H   -0.038378   0.149494
    25  H   -0.233853   0.375980
    26  H   -0.240033   0.366054
    27  H   -0.227937   0.358027
    28  H   -0.259887   0.405009
    29  H   -0.211535   0.351008
 Sum of Mulliken charges =  -1.00000   1.00000

 Dipole moment (field-independent basis, Debye):
    X=             -1.2378    Y=              1.1612    Z=             -2.2699  Tot=              2.8342
 Quadrupole moment (field-independent basis, Debye-Ang):
   XX=           -131.5005   YY=           -103.0508   ZZ=           -104.3137
   XY=              0.2053   XZ=             -1.8487   YZ=             -1.1527

 Summary of Natural Population Analysis:

                                       Natural Population
                Natural  -----------------------------------------------
    Atom  No    Charge         Core      Valence    Rydberg      Total
 -----------------------------------------------------------------------
      C    1   -0.28930      0.99963     2.28403    0.00564     3.28930
      C    2   -0.00230      0.99951     1.98692    0.01587     3.00230
      C    3    0.13573      0.99951     1.84732    0.01744     2.86427
      C    4   -0.30848      0.99961     2.30117    0.00770     3.30848
      C    5   -0.30102      0.99960     2.29370    0.00772     3.30102
      O    6   -0.31494      0.99987     3.30403    0.01105     4.31494
      C    7   -0.09776      0.99959     2.08859    0.00957     3.09776
      N    8   -0.28823      0.99971     2.77351    0.01501     3.78823
      C    9   -0.16962      0.99963     2.16178    0.00821     3.16962
      C   10   -0.17619      0.99963     2.16740    0.00916     3.17619
      H   11    0.09561      0.00000     0.40327    0.00112     0.40439
      H   12    0.10002      0.00000     0.39869    0.00130     0.39998
      H   13    0.10614      0.00000     0.39269    0.00116     0.39386
      H   14    0.10074      0.00000     0.39693    0.00234     0.39926
      H   15    0.10708      0.00000     0.39130    0.00161     0.39292
      H   16    0.10417      0.00000     0.39439    0.00144     0.39583
      H   17    0.10428      0.00000     0.39436    0.00136     0.39572
      H   18    0.10275      0.00000     0.39592    0.00133     0.39725
      H   19    0.10208      0.00000     0.39674    0.00118     0.39792
      H   20    0.10318      0.00000     0.39479    0.00203     0.39682
      H   21    0.08037      0.00000     0.41788    0.00175     0.41963
      H   22    0.07948      0.00000     0.41871    0.00181     0.42052
      H   23    0.08926      0.00000     0.40962    0.00112     0.41074
      H   24    0.08047      0.00000     0.41807    0.00146     0.41953
      H   25    0.09115      0.00000     0.40763    0.00122     0.40885
      H   26    0.09504      0.00000     0.40377    0.00119     0.40496
      H   27    0.07938      0.00000     0.41900    0.00162     0.42062
      H   28    0.09711      0.00000     0.40160    0.00129     0.40289
      H   29    0.09381      0.00000     0.40493    0.00126     0.40619
 =======================================================================
   * Total *    0.00000      9.99631    30.86872    0.13497    41.00000

 Normal termination of Gaussian 16 at Tue Dec  8 10:37:40 2020.
