 Gaussian 16, Revision A.03,

 -----------------------------------------------------------
 # opt freq B3LYP/6-31G(d) empiricaldispersion=gd3bj scf=xqc
 -----------------------------------------------------------

 -------------------------------
 CID_142689431_JID_7446_neutraal
 -------------------------------
 Symbolic Z-matrix:
 Charge =  0 Multiplicity = 1

 SCF Done:  E(RB3LYP) =  -731.744067497     A.U. after   15 cycles
 SCF Done:  E(RB3LYP) =  -731.748704544     A.U. after   13 cycles
 SCF Done:  E(RB3LYP) =  -731.748800383     A.U. after   13 cycles
 SCF Done:  E(RB3LYP) =  -731.749195990     A.U. after   12 cycles
 SCF Done:  E(RB3LYP) =  -731.749498641     A.U. after   11 cycles
 SCF Done:  E(RB3LYP) =  -731.749679153     A.U. after   11 cycles
 SCF Done:  E(RB3LYP) =  -731.749722864     A.U. after   11 cycles
 SCF Done:  E(RB3LYP) =  -731.749750653     A.U. after   11 cycles
 SCF Done:  E(RB3LYP) =  -731.749762569     A.U. after   11 cycles
 SCF Done:  E(RB3LYP) =  -731.749764440     A.U. after    9 cycles
 SCF Done:  E(RB3LYP) =  -731.749765168     A.U. after    8 cycles
 Optimization completed.
    -- Stationary point found.
 Normal termination of Gaussian 16 at Sun Dec 13 16:03:55 2020.

 --------------------------------------------------------------------
 #N Geom=AllCheck Guess=TCheck SCRF=Check GenChk RB3LYP/6-31G(d) Freq
 --------------------------------------------------------------------

 Structure from the checkpoint file:  "JID_7446.chk"
 -------------------------------
 CID_142689431_JID_7446_neutraal
 -------------------------------
 Charge =  0 Multiplicity = 1

 SCF Done:  E(RB3LYP) =  -731.749765168     A.U. after    1 cycles

  Exact polarizability: 272.146   8.088 163.218   0.773  -1.026  86.196
 Approx polarizability: 401.974  42.183 267.664   3.435  -1.859 137.988

                      1                      2                      3
                      A                      A                      A
 Frequencies --     48.2558                63.6278                87.9807
 Red. masses --      4.0789                 3.7161                 3.5394
 Frc consts  --      0.0056                 0.0089                 0.0161
 IR Inten    --      0.0725                 3.3860                 5.0716

                      4                      5                      6
                      A                      A                      A
 Frequencies --    105.2444               142.5210               203.7139
 Red. masses --      3.4474                 3.8802                 2.0228
 Frc consts  --      0.0225                 0.0464                 0.0495
 IR Inten    --      0.4621                 0.7946                 0.3846

                      7                      8                      9
                      A                      A                      A
 Frequencies --    204.7343               213.5246               231.6941
 Red. masses --      1.3817                 2.3609                 2.2760
 Frc consts  --      0.0341                 0.0634                 0.0720
 IR Inten    --      0.1043                 1.5195                 0.8304

                     10                     11                     12
                      A                      A                      A
 Frequencies --    262.4009               265.7002               302.3158
 Red. masses --      1.3301                 3.2648                 5.2406
 Frc consts  --      0.0540                 0.1358                 0.2822
 IR Inten    --      0.3892                 2.9345                 1.0884

                     13                     14                     15
                      A                      A                      A
 Frequencies --    338.6794               341.1253               398.4012
 Red. masses --      4.0626                 3.1132                 4.7395
 Frc consts  --      0.2746                 0.2134                 0.4432
 IR Inten    --      2.2330                 0.9175                11.7320

                     16                     17                     18
                      A                      A                      A
 Frequencies --    418.6403               443.8141               456.2076
 Red. masses --      2.7986                 3.7233                 3.8283
 Frc consts  --      0.2890                 0.4321                 0.4694
 IR Inten    --      1.5842                 2.7896                 4.3187

                     19                     20                     21
                      A                      A                      A
 Frequencies --    489.5526               532.8170               567.2248
 Red. masses --      4.1115                 4.7244                 2.6855
 Frc consts  --      0.5806                 0.7902                 0.5091
 IR Inten    --      1.6228                 5.9025                 4.4161

                     22                     23                     24
                      A                      A                      A
 Frequencies --    575.1807               593.9744               628.2772
 Red. masses --      3.3777                 3.4305                 4.1422
 Frc consts  --      0.6584                 0.7131                 0.9634
 IR Inten    --     13.6483                11.3764                 1.4537

                     25                     26                     27
                      A                      A                      A
 Frequencies --    643.0468               681.9004               707.9911
 Red. masses --      5.1639                 3.5336                 3.0454
 Frc consts  --      1.2581                 0.9681                 0.8994
 IR Inten    --      6.3629                 0.9792                 4.9445

                     28                     29                     30
                      A                      A                      A
 Frequencies --    755.6491               770.0262               826.9344
 Red. masses --      5.2769                 4.1863                 1.5706
 Frc consts  --      1.7753                 1.4625                 0.6328
 IR Inten    --      2.9215                 4.5150                21.5090

                     31                     32                     33
                      A                      A                      A
 Frequencies --    831.8811               861.0331               881.9855
 Red. masses --      3.0860                 2.0769                 1.4041
 Frc consts  --      1.2583                 0.9072                 0.6435
 IR Inten    --      6.3140                 4.1056                15.8678

                     34                     35                     36
                      A                      A                      A
 Frequencies --    929.9371               944.5655               945.9507
 Red. masses --      2.7827                 2.8084                 1.5023
 Frc consts  --      1.4178                 1.4763                 0.7920
 IR Inten    --     13.3051                 7.5150                 2.2124

                     37                     38                     39
                      A                      A                      A
 Frequencies --    954.9437              1005.3835              1026.5926
 Red. masses --      1.5133                 2.6302                 2.7968
 Frc consts  --      0.8131                 1.5664                 1.7367
 IR Inten    --      4.0052                 1.0058                 1.9384

                     40                     41                     42
                      A                      A                      A
 Frequencies --   1063.6607              1067.6354              1076.3114
 Red. masses --      1.7711                 1.5472                 3.0771
 Frc consts  --      1.1806                 1.0390                 2.1002
 IR Inten    --      7.4181                 5.9918                30.6936

                     43                     44                     45
                      A                      A                      A
 Frequencies --   1101.9959              1122.9738              1133.6712
 Red. masses --      2.1287                 2.7462                 2.2111
 Frc consts  --      1.5231                 2.0404                 1.6743
 IR Inten    --      0.6261                81.0672                14.5697

                     46                     47                     48
                      A                      A                      A
 Frequencies --   1153.1855              1177.3815              1185.5427
 Red. masses --      2.3404                 1.5221                 1.2708
 Frc consts  --      1.8338                 1.2431                 1.0524
 IR Inten    --     96.8854                 2.3009                 0.8084

                     49                     50                     51
                      A                      A                      A
 Frequencies --   1190.3048              1209.8309              1225.8283
 Red. masses --      1.4891                 1.4083                 1.3830
 Frc consts  --      1.2430                 1.2145                 1.2244
 IR Inten    --      7.9184                 0.0523                 2.5486

                     52                     53                     54
                      A                      A                      A
 Frequencies --   1240.3439              1250.0962              1292.3044
 Red. masses --      1.5903                 1.7871                 2.0681
 Frc consts  --      1.4415                 1.6454                 2.0349
 IR Inten    --     47.9670                36.3207                 0.2140

                     55                     56                     57
                      A                      A                      A
 Frequencies --   1304.8566              1317.4577              1330.1278
 Red. masses --      2.3261                 2.3550                 1.3463
 Frc consts  --      2.3335                 2.4084                 1.4033
 IR Inten    --    210.9798               227.9388                 0.9384

                     58                     59                     60
                      A                      A                      A
 Frequencies --   1346.4916              1356.9943              1370.2347
 Red. masses --      2.0488                 1.7714                 1.5263
 Frc consts  --      2.1885                 1.9218                 1.6884
 IR Inten    --      9.6554                 5.3350                30.4818

                     61                     62                     63
                      A                      A                      A
 Frequencies --   1390.0414              1407.0126              1428.7115
 Red. masses --      4.7309                 1.7893                 1.3257
 Frc consts  --      5.3858                 2.0870                 1.5944
 IR Inten    --    216.2408                13.6841                21.6251

                     64                     65                     66
                      A                      A                      A
 Frequencies --   1491.8204              1493.3363              1497.8240
 Red. masses --      1.2251                 2.0357                 1.5396
 Frc consts  --      1.6064                 2.6747                 2.0351
 IR Inten    --      4.8312                27.3468                15.6560

                     67                     68                     69
                      A                      A                      A
 Frequencies --   1509.6112              1515.8875              1521.8281
 Red. masses --      1.1264                 1.0555                 1.0476
 Frc consts  --      1.5124                 1.4290                 1.4295
 IR Inten    --      2.4891                23.9468                 5.9656

                     70                     71                     72
                      A                      A                      A
 Frequencies --   1524.2103              1532.2635              1532.8845
 Red. masses --      1.1008                 1.3288                 1.0679
 Frc consts  --      1.5068                 1.8381                 1.4784
 IR Inten    --      7.1520                87.4833                13.2544

                     73                     74                     75
                      A                      A                      A
 Frequencies --   1539.9989              1626.7000              1662.5655
 Red. masses --      1.6181                 6.2833                 7.1131
 Frc consts  --      2.2610                 9.7961                11.5843
 IR Inten    --      6.1504                35.4424               372.4911

                     76                     77                     78
                      A                      A                      A
 Frequencies --   1688.6506              1750.3346              2991.8239
 Red. masses --      8.6022                11.7312                 1.0820
 Frc consts  --     14.4524                21.1756                 5.7062
 IR Inten    --     12.3724               280.0231                13.7093

                     79                     80                     81
                      A                      A                      A
 Frequencies --   3021.2314              3030.9939              3032.0569
 Red. masses --      1.0710                 1.0345                 1.0678
 Frc consts  --      5.7598                 5.5997                 5.7838
 IR Inten    --     12.2895                65.4300                 9.1353

                     82                     83                     84
                      A                      A                      A
 Frequencies --   3038.6543              3042.3643              3083.0947
 Red. masses --      1.0435                 1.0608                 1.1034
 Frc consts  --      5.6771                 5.7849                 6.1794
 IR Inten    --     26.5681                50.3838                36.2361

                     85                     86                     87
                      A                      A                      A
 Frequencies --   3091.9940              3093.3145              3097.2508
 Red. masses --      1.1069                 1.0966                 1.0954
 Frc consts  --      6.2349                 6.1821                 6.1910
 IR Inten    --     37.5079                20.7295                32.1727

                     88                     89                     90
                      A                      A                      A
 Frequencies --   3115.4797              3157.3374              3163.8866
 Red. masses --      1.0924                 1.0972                 1.1002
 Frc consts  --      6.2470                 6.4444                 6.4890
 IR Inten    --     22.4254                 4.2431                27.5895

                     91                     92                     93
                      A                      A                      A
 Frequencies --   3208.6598              3227.2572              3245.2604
 Red. masses --      1.0912                 1.0875                 1.0927
 Frc consts  --      6.6192                 6.6731                 6.7806
 IR Inten    --      8.6477                 9.1464                 8.5092

 - Thermochemistry -
 -------------------
 Temperature   298.150 Kelvin.  Pressure   1.00000 Atm.
 Atom     1 has atomic number  6 and mass  12.00000

 Molecular mass:   228.11503 amu.
 Principal axes and moments of inertia in atomic units:
                           1         2         3
     Eigenvalues --  1499.247957151.865718531.20066
           X            0.99985  -0.01750   0.00010
           Y            0.01750   0.99985  -0.00030
           Z           -0.00009   0.00030   1.00000
 This molecule is an asymmetric top.
 Rotational symmetry number  1.
 Warning -- assumption of classical behavior for rotation
           may cause significant error
 Rotational temperatures (Kelvin)      0.05777     0.01211     0.01015
 Rotational constants (GHZ):           1.20376     0.25235     0.21155
 Zero-point vibrational energy     729452.9 (Joules/Mol)
                                  174.34342 (Kcal/Mol)
 Warning -- explicit consideration of  23 degrees of freedom as
           vibrations may cause significant error
 Vibrational temperatures:     69.43    91.55   126.58   151.42   205.06
          (Kelvin)            293.10   294.57   307.21   333.36   377.54
                              382.28   434.97   487.28   490.80   573.21
                              602.33   638.55   656.38   704.36   766.60
                              816.11   827.56   854.60   903.95   925.20
                              981.10  1018.64  1087.21  1107.90  1189.77
                             1196.89  1238.83  1268.98  1337.97  1359.02
                             1361.01  1373.95  1446.52  1477.04  1530.37
                             1536.09  1548.57  1585.53  1615.71  1631.10
                             1659.18  1693.99  1705.73  1712.58  1740.68
                             1763.69  1784.58  1798.61  1859.34  1877.40
                             1895.53  1913.76  1937.30  1952.41  1971.46
                             1999.96  2024.38  2055.60  2146.40  2148.58
                             2155.03  2171.99  2181.02  2189.57  2193.00
                             2204.59  2205.48  2215.71  2340.46  2392.06
                             2429.59  2518.34  4304.57  4346.88  4360.92
                             4362.45  4371.95  4377.28  4435.89  4448.69
                             4450.59  4456.25  4482.48  4542.70  4552.13
                             4616.55  4643.30  4669.21

 Zero-point correction=                           0.277834 (Hartree/Particle)
 Thermal correction to Energy=                    0.292426
 Thermal correction to Enthalpy=                  0.293370
 Thermal correction to Gibbs Free Energy=         0.236472
 Sum of electronic and zero-point Energies=           -731.471931
 Sum of electronic and thermal Energies=              -731.457339
 Sum of electronic and thermal Enthalpies=            -731.456395
 Sum of electronic and thermal Free Energies=         -731.513293

                     E (Thermal)             CV                S
                      KCal/Mol        Cal/Mol-Kelvin    Cal/Mol-Kelvin
 Total                  183.500             57.907            119.752
 Electronic               0.000              0.000              0.000
 Translational            0.889              2.981             42.176
 Rotational               0.889              2.981             32.881
 Vibrational            181.723             51.945             44.695
 Vibration     1          0.595              1.978              4.888
 Vibration     2          0.597              1.972              4.341
 Vibration     3          0.601              1.958              3.704
 Vibration     4          0.605              1.945              3.355
 Vibration     5          0.616              1.911              2.770
 Vibration     6          0.639              1.835              2.099
 Vibration     7          0.640              1.833              2.090
 Vibration     8          0.644              1.820              2.013
 Vibration     9          0.653              1.793              1.866
 Vibration    10          0.670              1.742              1.646
 Vibration    11          0.672              1.736              1.624
 Vibration    12          0.694              1.669              1.404
 Vibration    13          0.719              1.598              1.218
 Vibration    14          0.721              1.593              1.207
 Vibration    15          0.765              1.474              0.969
 Vibration    16          0.781              1.430              0.897
 Vibration    17          0.803              1.375              0.815
 Vibration    18          0.814              1.347              0.777
 Vibration    19          0.845              1.273              0.685
 Vibration    20          0.888              1.177              0.581
 Vibration    21          0.923              1.102              0.510
 Vibration    22          0.932              1.085              0.494
 Vibration    23          0.952              1.045              0.460

 Optimization completed.
    -- Stationary point found.
 Normal termination of Gaussian 16 at Sun Dec 13 16:15:52 2020.

 ----------------------------------------------------------------------
 # B3LYP/6-311++G(d,p) empiricaldispersion=gd3bj scf=xqc pop=npa geom=c
 heck
 ----------------------------------------------------------------------

 ---------------------------------------
 CID_142689431_JID_7446_Energie_neutraal
 ---------------------------------------
 Structure from the checkpoint file:  "JID_7446.chk"
 Charge =  0 Multiplicity = 1

 SCF Done:  E(RB3LYP) =  -731.941716832     A.U. after   16 cycles
 Normal termination of Gaussian 16 at Sun Dec 13 16:22:03 2020.

 ----------------------------------------------------------------------
 # B3LYP/6-311++G(d,p) empiricaldispersion=gd3bj scf=xqc pop=npa geom=c
 heck
 ----------------------------------------------------------------------

 -------------------------------------
 CID_142689431_JID_7446_Energie_kation
 -------------------------------------
 Structure from the checkpoint file:  "JID_7446.chk"
 Charge =  1 Multiplicity = 2

 SCF Done:  E(UB3LYP) =  -731.663775885     A.U. after   25 cycles
 Normal termination of Gaussian 16 at Sun Dec 13 16:35:55 2020.
 Gaussian 16:  ES64L-G16RevA.03 25-Dec-2016

 ----------------------------------------------------------------------
 # B3LYP/6-311++G(d,p) empiricaldispersion=gd3bj scf=xqc pop=npa geom=c
 heck
 ----------------------------------------------------------------------

 ------------------------------------
 CID_142689431_JID_7446_Energie_anion
 ------------------------------------
 Structure from the checkpoint file:  "JID_7446.chk"
 Charge = -1 Multiplicity = 2

                         Standard orientation:
 ---------------------------------------------------------------------
 Center     Atomic      Atomic             Coordinates (Angstroms)
 Number     Number       Type             X           Y           Z
 ---------------------------------------------------------------------
      1          6           0        1.770252    2.461221    0.254195
      2          6           0        2.052124    1.001892    0.011977
      3          6           0        1.092390    0.053612   -0.151256
      4          6           0        1.401468   -1.426055   -0.353878
      5          6           0        2.727721   -1.816007    0.286990
      6          6           0        3.816862   -0.872574   -0.227909
      7          6           0        3.480117    0.602321   -0.019979
      8          8           0        4.381494    1.424748    0.104999
      9          6           0        0.133622   -2.158083    0.146454
     10          6           0       -0.942714   -1.103045    0.044489
     11          6           0       -0.363744    0.179461   -0.106865
     12          6           0       -1.200703    1.297130   -0.195683
     13          6           0       -2.585417    1.139929   -0.133836
     14          6           0       -3.143399   -0.138401    0.022026
     15          6           0       -2.313042   -1.268451    0.112118
     16          8           0       -4.479052   -0.388112    0.091590
     17          6           0       -5.374322    0.710032    0.004442
     18          1           0        2.688808    2.955994    0.575009
     19          1           0        0.998919    2.600178    1.020004
     20          1           0        1.424805    2.965207   -0.658126
     21          1           0        1.479365   -1.596526   -1.440053
     22          1           0        2.641547   -1.724948    1.378132
     23          1           0        2.979833   -2.860415    0.067495
     24          1           0        4.788985   -1.055622    0.238693
     25          1           0        3.951148   -1.026445   -1.309845
     26          1           0        0.262406   -2.466783    1.193735
     27          1           0       -0.092294   -3.061794   -0.428889
     28          1           0       -0.791283    2.289701   -0.335827
     29          1           0       -3.220429    2.013584   -0.215675
     30          1           0       -2.772662   -2.244757    0.231191
     31          1           0       -5.213822    1.424039    0.822288
     32          1           0       -5.276185    1.232290   -0.955824
     33          1           0       -6.375971    0.285329    0.085258
 ---------------------------------------------------------------------

 SCF Done:  E(UB3LYP) =  -731.954437144     A.U. after   32 cycles

 The electronic state is 2-A.
 Alpha  occ. eigenvalues --  -19.04081 -18.91950 -10.13069 -10.09601 -10.06776
 Alpha  occ. eigenvalues --  -10.04953 -10.04586 -10.04471 -10.04417 -10.04263
 Alpha  occ. eigenvalues --  -10.03814 -10.03224 -10.03078 -10.02804 -10.01658
 Alpha  occ. eigenvalues --  -10.01405 -10.00505  -0.95827  -0.85890  -0.74288
 Alpha  occ. eigenvalues --   -0.69908  -0.65136  -0.64426  -0.62576  -0.59567
 Alpha  occ. eigenvalues --   -0.57447  -0.54528  -0.52606  -0.48666  -0.46234
 Alpha  occ. eigenvalues --   -0.44863  -0.42555  -0.40508  -0.38096  -0.37144
 Alpha  occ. eigenvalues --   -0.35870  -0.34530  -0.32121  -0.31893  -0.31102
 Alpha  occ. eigenvalues --   -0.30692  -0.29501  -0.28593  -0.27655  -0.27050
 Alpha  occ. eigenvalues --   -0.26413  -0.25521  -0.25074  -0.24090  -0.23460
 Alpha  occ. eigenvalues --   -0.22752  -0.21865  -0.20669  -0.20604  -0.19297
 Alpha  occ. eigenvalues --   -0.18734  -0.18025  -0.13315  -0.12325  -0.08110
 Alpha  occ. eigenvalues --   -0.07396   0.04232
 Alpha virt. eigenvalues --    0.06639   0.08647   0.09197   0.09961   0.10154
 Alpha virt. eigenvalues --    0.10588   0.10794   0.11567   0.11767   0.12467
 Alpha virt. eigenvalues --    0.12747   0.13069   0.13596   0.13934   0.14547

  Beta  occ. eigenvalues --  -19.04018 -18.91525 -10.13069 -10.09314 -10.06569
  Beta  occ. eigenvalues --  -10.04949 -10.04520 -10.04510 -10.04498 -10.04246
  Beta  occ. eigenvalues --  -10.03849 -10.03242 -10.02834 -10.02771 -10.01669
  Beta  occ. eigenvalues --  -10.01055 -10.00373  -0.95655  -0.85131  -0.74015
  Beta  occ. eigenvalues --   -0.69659  -0.64951  -0.64153  -0.62364  -0.59381
  Beta  occ. eigenvalues --   -0.57336  -0.54237  -0.52402  -0.48290  -0.46079
  Beta  occ. eigenvalues --   -0.44759  -0.42115  -0.40323  -0.37962  -0.36947
  Beta  occ. eigenvalues --   -0.35723  -0.34314  -0.31972  -0.31756  -0.30947
  Beta  occ. eigenvalues --   -0.30519  -0.29352  -0.28422  -0.27344  -0.26761
  Beta  occ. eigenvalues --   -0.26022  -0.25145  -0.24847  -0.23986  -0.23266
  Beta  occ. eigenvalues --   -0.22306  -0.21661  -0.20569  -0.20034  -0.18628
  Beta  occ. eigenvalues --   -0.18018  -0.17624  -0.12297  -0.11531  -0.07683
  Beta  occ. eigenvalues --   -0.05909
  Beta virt. eigenvalues --    0.06614   0.08507   0.09162   0.09900   0.10024
  Beta virt. eigenvalues --    0.10246   0.10684   0.10803   0.11716   0.11798
  Beta virt. eigenvalues --    0.12496   0.12742   0.13047   0.13639   0.13966

 Mulliken charges and spin densities:
               1          2
     1  C   -0.445723   0.013180
     2  C    0.498766   0.126110
     3  C    0.062348   0.172538
     4  C    1.412800   0.164005
     5  C   -0.508970  -0.081619
     6  C   -0.019167   0.021306
     7  C   -1.137041   0.140753
     8  O   -0.402282   0.149419
     9  C   -1.689515  -0.190520
    10  C    1.051793   0.126520
    11  C    0.679984  -0.031618
    12  C   -0.871749   0.224490
    13  C    0.249719  -0.096178
    14  C   -0.486101   0.155961
    15  C   -0.968772  -0.036384
    16  O   -0.174980   0.010952
    17  C   -0.298133  -0.009205
    18  H    0.183057  -0.001771
    19  H    0.114419   0.001242
    20  H    0.137648   0.008253
    21  H    0.121640   0.063479
    22  H    0.095336   0.007646
    23  H    0.115981  -0.007138
    24  H    0.143522   0.017902
    25  H    0.131709   0.000347
    26  H    0.138055   0.010802
    27  H    0.112502   0.031910
    28  H    0.058792  -0.015970
    29  H    0.158718   0.004612
    30  H    0.126413   0.002999
    31  H    0.123697   0.012390
    32  H    0.133453   0.003137
    33  H    0.152079   0.000451
 Sum of Mulliken charges =  -1.00000   1.00000

 Dipole moment (field-independent basis, Debye):
    X=             -7.3499    Y=             -2.4042    Z=             -0.2056  Tot=              7.7359
 Quadrupole moment (field-independent basis, Debye-Ang):
   XX=           -163.5284   YY=           -116.0175   ZZ=           -109.9013
   XY=            -21.0506   XZ=             -0.9207   YZ=             -0.8502

 Summary of Natural Population Analysis:

                                       Natural Population
                Natural  -----------------------------------------------
    Atom  No    Charge         Core      Valence    Rydberg      Total
 -----------------------------------------------------------------------
      C    1   -0.29864      0.99965     2.29356    0.00543     3.29864
      C    2   -0.04362      0.99941     2.03537    0.00884     3.04362
      C    3    0.07346      0.99946     1.91791    0.00917     2.92654
      C    4   -0.11180      0.99958     2.10267    0.00954     3.11180
      C    5   -0.17874      0.99962     2.17222    0.00690     3.17874
      C    6   -0.22437      0.99960     2.21695    0.00782     3.22437
      C    7    0.28920      0.99960     1.68917    0.02203     2.71080
      O    8   -0.28026      0.99988     3.27323    0.00715     4.28026
      C    9   -0.19129      0.99960     2.18341    0.00827     3.19129
      C   10    0.02637      0.99950     1.96525    0.00889     2.97363
      C   11   -0.05009      0.99946     2.04128    0.00935     3.05009
      C   12   -0.03747      0.99957     2.02476    0.01313     3.03747
      C   13   -0.15234      0.99955     2.14835    0.00444     3.15234
      C   14    0.19893      0.99944     1.78849    0.01314     2.80107
      C   15   -0.14517      0.99947     2.13664    0.00905     3.14517
      O   16   -0.27341      0.99985     3.26325    0.01031     4.27341
      C   17   -0.09988      0.99961     2.09164    0.00863     3.09988
      H   18    0.11153      0.00000     0.38722    0.00125     0.38847
      H   19    0.09566      0.00000     0.40310    0.00124     0.40434
      H   20    0.09348      0.00000     0.40532    0.00120     0.40652
      H   21    0.09706      0.00000     0.40145    0.00149     0.40294
      H   22    0.09277      0.00000     0.40600    0.00123     0.40723
      H   23    0.08643      0.00000     0.41173    0.00184     0.41357
      H   24    0.09901      0.00000     0.39830    0.00268     0.40099
      H   25    0.09871      0.00000     0.40013    0.00117     0.40129
      H   26    0.09824      0.00000     0.40059    0.00118     0.40176
      H   27    0.09472      0.00000     0.40334    0.00194     0.40528
      H   28    0.09424      0.00000     0.40324    0.00253     0.40576
      H   29    0.09333      0.00000     0.40575    0.00092     0.40667
      H   30    0.09740      0.00000     0.40114    0.00146     0.40260
      H   31    0.08064      0.00000     0.41755    0.00181     0.41936
      H   32    0.08020      0.00000     0.41800    0.00180     0.41980
      H   33    0.08575      0.00000     0.41339    0.00086     0.41425
 =======================================================================
   * Total *    0.00005     16.99287    43.82041    0.18668    60.99995

 Normal termination of Gaussian 16 at Sun Dec 13 16:53:16 2020.
