 Gaussian 16, Revision A.03,

 -----------------------------------------------------------
 # opt freq B3LYP/6-31G(d) empiricaldispersion=gd3bj scf=xqc
 -----------------------------------------------------------

 ------------------------------
 CID_142245679_JID_772_neutraal
 ------------------------------
 Symbolic Z-matrix:
 Charge =  0 Multiplicity = 1

 SCF Done:  E(RB3LYP) =  -443.855695857     A.U. after   14 cycles
 SCF Done:  E(RB3LYP) =  -443.857704481     A.U. after   12 cycles
 SCF Done:  E(RB3LYP) =  -443.858236989     A.U. after   12 cycles
 SCF Done:  E(RB3LYP) =  -443.858675332     A.U. after   12 cycles
 SCF Done:  E(RB3LYP) =  -443.858892273     A.U. after   11 cycles
 SCF Done:  E(RB3LYP) =  -443.859494381     A.U. after   12 cycles
 SCF Done:  E(RB3LYP) =  -443.859735022     A.U. after   12 cycles
 SCF Done:  E(RB3LYP) =  -443.859997758     A.U. after   12 cycles
 SCF Done:  E(RB3LYP) =  -443.860378792     A.U. after   14 cycles
 SCF Done:  E(RB3LYP) =  -443.861115344     A.U. after   12 cycles
 SCF Done:  E(RB3LYP) =  -443.862621698     A.U. after    9 cycles
 SCF Done:  E(RB3LYP) =  -443.862622192     A.U. after    9 cycles
 SCF Done:  E(RB3LYP) =  -443.862622105     A.U. after    8 cycles
 SCF Done:  E(RB3LYP) =  -443.862622509     A.U. after    9 cycles
 SCF Done:  E(RB3LYP) =  -443.862622538     A.U. after    6 cycles
 SCF Done:  E(RB3LYP) =  -443.862622531     A.U. after    6 cycles
 Optimization completed.
    -- Stationary point found.
 Normal termination of Gaussian 16 at Tue Dec  8 14:03:33 2020.

 --------------------------------------------------------------------
 #N Geom=AllCheck Guess=TCheck SCRF=Check GenChk RB3LYP/6-31G(d) Freq
 --------------------------------------------------------------------

 Structure from the checkpoint file:  "JID_772.chk"
 ------------------------------
 CID_142245679_JID_772_neutraal
 ------------------------------
 Charge =  0 Multiplicity = 1

 SCF Done:  E(RB3LYP) =  -443.862622531     A.U. after    1 cycles

  Exact polarizability:  78.641   7.185 108.889   0.295   1.186  82.818
 Approx polarizability: 102.382  10.551 150.822  -0.622   5.971 142.080

                      1                      2                      3
                      A                      A                      A
 Frequencies --     20.0439                42.9713                46.2468
 Red. masses --      2.7915                 3.5395                 3.3982
 Frc consts  --      0.0007                 0.0039                 0.0043
 IR Inten    --      0.1888                 4.9983                 1.0124

                      4                      5                      6
                      A                      A                      A
 Frequencies --     69.2553                85.9616               106.3110
 Red. masses --      2.6811                 4.3596                 1.1141
 Frc consts  --      0.0076                 0.0190                 0.0074
 IR Inten    --      0.0834                 0.1661                 0.4684

                      7                      8                      9
                      A                      A                      A
 Frequencies --    121.7836               134.3746               187.8433
 Red. masses --      1.3837                 1.1248                 2.7698
 Frc consts  --      0.0121                 0.0120                 0.0576
 IR Inten    --      1.5134                 0.3384                 2.0966

                     10                     11                     12
                      A                      A                      A
 Frequencies --    243.6535               261.4873               286.8272
 Red. masses --      1.0475                 2.5841                 1.1510
 Frc consts  --      0.0366                 0.1041                 0.0558
 IR Inten    --      0.0441                 3.4731                 0.1842

                     13                     14                     15
                      A                      A                      A
 Frequencies --    342.5616               372.4411               395.2130
 Red. masses --      3.8666                 2.0593                 2.8125
 Frc consts  --      0.2673                 0.1683                 0.2588
 IR Inten    --      0.1928                 0.1772                 1.8539

                     16                     17                     18
                      A                      A                      A
 Frequencies --    594.7541               633.5840               668.9582
 Red. masses --      4.0908                 6.3587                 3.6111
 Frc consts  --      0.8526                 1.5039                 0.9521
 IR Inten    --      1.4574                 0.0583                 0.1094

                     19                     20                     21
                      A                      A                      A
 Frequencies --    742.3745               763.7721               801.7720
 Red. masses --      4.5089                 1.0722                 1.2401
 Frc consts  --      1.4641                 0.3685                 0.4697
 IR Inten    --      6.7948                 8.8176                26.3318

                     22                     23                     24
                      A                      A                      A
 Frequencies --    884.5702               912.8776               920.5503
 Red. masses --      2.5497                 5.4173                 1.1039
 Frc consts  --      1.1754                 2.6599                 0.5512
 IR Inten    --      0.7287                15.0876                 0.1122

                     25                     26                     27
                      A                      A                      A
 Frequencies --    942.4869               993.9982              1016.7460
 Red. masses --      1.1985                 1.9219                 2.5573
 Frc consts  --      0.6272                 1.1188                 1.5576
 IR Inten    --      1.6147                 0.2944                 2.8338

                     28                     29                     30
                      A                      A                      A
 Frequencies --   1039.7722              1055.1297              1070.3344
 Red. masses --      2.5147                 2.8356                 2.4097
 Frc consts  --      1.6018                 1.8600                 1.6265
 IR Inten    --      9.5567                 4.8886                 0.2272

                     31                     32                     33
                      A                      A                      A
 Frequencies --   1080.0002              1081.9654              1168.9098
 Red. masses --      1.5062                 1.5049                 1.6288
 Frc consts  --      1.0351                 1.0380                 1.3112
 IR Inten    --      5.7788                 5.4283                 1.2168

                     34                     35                     36
                      A                      A                      A
 Frequencies --   1192.1157              1230.1988              1304.9184
 Red. masses --      1.7755                 1.6532                 4.1307
 Frc consts  --      1.4867                 1.4741                 4.1442
 IR Inten    --      0.9530                 1.5319                13.8154

                     37                     38                     39
                      A                      A                      A
 Frequencies --   1333.8862              1387.5127              1428.5381
 Red. masses --      1.1322                 1.3759                 1.3562
 Frc consts  --      1.1868                 1.5606                 1.6306
 IR Inten    --      0.2241                 2.4563                 3.8701

                     40                     41                     42
                      A                      A                      A
 Frequencies --   1430.4328              1440.8853              1444.7059
 Red. masses --      1.3273                 1.2618                 1.2366
 Frc consts  --      1.6002                 1.5435                 1.5207
 IR Inten    --      6.1581                 1.1340                 3.7152

                     43                     44                     45
                      A                      A                      A
 Frequencies --   1469.5306              1500.7096              1504.2691
 Red. masses --      2.6185                 1.4468                 1.0489
 Frc consts  --      3.3317                 1.9197                 1.3984
 IR Inten    --     41.7179                 2.7472                 7.8289

                     46                     47                     48
                      A                      A                      A
 Frequencies --   1511.9805              1516.5552              1521.6264
 Red. masses --      1.0473                 1.1569                 1.0867
 Frc consts  --      1.4106                 1.5677                 1.4825
 IR Inten    --      6.1680                10.5895                 9.8680

                     49                     50                     51
                      A                      A                      A
 Frequencies --   1526.2996              1530.3047              1538.2435
 Red. masses --      1.0409                 1.0591                 1.0650
 Frc consts  --      1.4286                 1.4613                 1.4847
 IR Inten    --      1.3337                 1.7665                15.0330

                     52                     53                     54
                      A                      A                      A
 Frequencies --   1546.0738              1555.8139              1666.3146
 Red. masses --      1.1323                 2.4536                 6.2768
 Frc consts  --      1.5947                 3.4992                10.2684
 IR Inten    --      5.6532                 5.9357                50.8354

                     55                     56                     57
                      A                      A                      A
 Frequencies --   3036.8496              3041.5852              3043.8864
 Red. masses --      1.0349                 1.0360                 1.0703
 Frc consts  --      5.6231                 5.6469                 5.8429
 IR Inten    --     33.2030                14.3032                26.9557

                     58                     59                     60
                      A                      A                      A
 Frequencies --   3059.6107              3061.0225              3087.7586
 Red. masses --      1.0369                 1.0367                 1.0945
 Frc consts  --      5.7191                 5.7231                 6.1481
 IR Inten    --     21.0398                11.4634                22.2146

                     61                     62                     63
                      A                      A                      A
 Frequencies --   3098.8617              3105.4319              3112.5023
 Red. masses --      1.1020                 1.1017                 1.1011
 Frc consts  --      6.2351                 6.2598                 6.2851
 IR Inten    --      1.1816                33.6318                43.8186

                     64                     65                     66
                      A                      A                      A
 Frequencies --   3116.4364              3118.8829              3120.2594
 Red. masses --      1.1015                 1.1013                 1.1006
 Frc consts  --      6.3028                 6.3120                 6.3135
 IR Inten    --     28.0413                37.4243                55.2839

                     67                     68                     69
                      A                      A                      A
 Frequencies --   3152.0205              3153.4808              3281.9085
 Red. masses --      1.1016                 1.1013                 1.0983
 Frc consts  --      6.4483                 6.4528                 6.9701
 IR Inten    --      7.9239                 7.4206                 0.6620

 - Thermochemistry -
 -------------------
 Temperature   298.150 Kelvin.  Pressure   1.00000 Atm.
 Atom     1 has atomic number  6 and mass  12.00000

 Molecular mass:   141.11536 amu.
 Principal axes and moments of inertia in atomic units:
                           1         2         3
     Eigenvalues --  1369.130861709.416322535.12961
           X            0.99933   0.03400   0.01372
           Y           -0.03398   0.99942  -0.00220
           Z           -0.01378   0.00173   0.99990
 This molecule is an asymmetric top.
 Rotational symmetry number  1.
 Warning -- assumption of classical behavior for rotation
           may cause significant error
 Rotational temperatures (Kelvin)      0.06326     0.05067     0.03417
 Rotational constants (GHZ):           1.31817     1.05576     0.71189
 Zero-point vibrational energy     575768.3 (Joules/Mol)
                                  137.61193 (Kcal/Mol)
 Warning -- explicit consideration of  16 degrees of freedom as
           vibrations may cause significant error
 Vibrational temperatures:     28.84    61.83    66.54    99.64   123.68
          (Kelvin)            152.96   175.22   193.34   270.26   350.56
                              376.22   412.68   492.87   535.86   568.62
                              855.72   911.59   962.48  1068.11  1098.90
                             1153.57  1272.70  1313.43  1324.47  1356.03
                             1430.14  1462.87  1496.00  1518.10  1539.97
                             1553.88  1556.71  1681.80  1715.19  1769.98
                             1877.49  1919.16  1996.32  2055.35  2058.07
                             2073.11  2078.61  2114.33  2159.19  2164.31
                             2175.40  2181.98  2189.28  2196.00  2201.77
                             2213.19  2224.46  2238.47  2397.46  4369.35
                             4376.16  4379.47  4402.10  4404.13  4442.60
                             4458.57  4468.02  4478.20  4483.86  4487.38
                             4489.36  4535.05  4537.16  4721.93

 Zero-point correction=                           0.219299 (Hartree/Particle)
 Thermal correction to Energy=                    0.232644
 Thermal correction to Enthalpy=                  0.233588
 Thermal correction to Gibbs Free Energy=         0.177229
 Sum of electronic and zero-point Energies=           -443.643324
 Sum of electronic and thermal Energies=              -443.629979
 Sum of electronic and thermal Enthalpies=            -443.629035
 Sum of electronic and thermal Free Energies=         -443.685393

                     E (Thermal)             CV                S
                      KCal/Mol        Cal/Mol-Kelvin    Cal/Mol-Kelvin
 Total                  145.986             44.722            118.617
 Electronic               0.000              0.000              0.000
 Translational            0.889              2.981             40.745
 Rotational               0.889              2.981             30.163
 Vibrational            144.209             38.761             47.709
 Vibration     1          0.593              1.986              6.630
 Vibration     2          0.595              1.980              5.117
 Vibration     3          0.595              1.979              4.972
 Vibration     4          0.598              1.969              4.174
 Vibration     5          0.601              1.959              3.750
 Vibration     6          0.605              1.944              3.335
 Vibration     7          0.609              1.931              3.072
 Vibration     8          0.613              1.919              2.882
 Vibration     9          0.633              1.857              2.249
 Vibration    10          0.659              1.773              1.776
 Vibration    11          0.669              1.743              1.652
 Vibration    12          0.684              1.698              1.493
 Vibration    13          0.722              1.590              1.200
 Vibration    14          0.744              1.529              1.070
 Vibration    15          0.762              1.480              0.980
 Vibration    16          0.952              1.043              0.459

 Optimization completed.
    -- Stationary point found.
 Normal termination of Gaussian 16 at Tue Dec  8 14:08:33 2020.

 ----------------------------------------------------------------------
 # B3LYP/6-311++G(d,p) empiricaldispersion=gd3bj scf=xqc pop=npa geom=c
 heck
 ----------------------------------------------------------------------

 --------------------------------------
 CID_142245679_JID_772_Energie_neutraal
 --------------------------------------
 Structure from the checkpoint file:  "JID_772.chk"
 Charge =  0 Multiplicity = 1

 SCF Done:  E(RB3LYP) =  -443.987283436     A.U. after   14 cycles
 Normal termination of Gaussian 16 at Tue Dec  8 14:10:59 2020.

 ----------------------------------------------------------------------
 # B3LYP/6-311++G(d,p) empiricaldispersion=gd3bj scf=xqc pop=npa geom=c
 heck
 ----------------------------------------------------------------------

 ------------------------------------
 CID_142245679_JID_772_Energie_kation
 ------------------------------------
 Structure from the checkpoint file:  "JID_772.chk"
 Charge =  1 Multiplicity = 2

 SCF Done:  E(UB3LYP) =  -443.648573786     A.U. after   22 cycles
 Normal termination of Gaussian 16 at Tue Dec  8 14:17:12 2020.
 Gaussian 16:  ES64L-G16RevA.03 25-Dec-2016

 ----------------------------------------------------------------------
 # B3LYP/6-311++G(d,p) empiricaldispersion=gd3bj scf=xqc pop=npa geom=c
 heck
 ----------------------------------------------------------------------

 -----------------------------------
 CID_142245679_JID_772_Energie_anion
 -----------------------------------
 Structure from the checkpoint file:  "JID_772.chk"
 Charge = -1 Multiplicity = 2

                         Standard orientation:
 ---------------------------------------------------------------------
 Center     Atomic      Atomic             Coordinates (Angstroms)
 Number     Number       Type             X           Y           Z
 ---------------------------------------------------------------------
      1          6           0       -2.698730   -0.828267    0.200751
      2          6           0       -2.264088    0.398457   -0.605005
      3          6           0       -2.113314    1.647484    0.266228
      4          6           0        0.626482   -2.694045    0.436800
      5          6           0        0.954073   -1.264834    0.183358
      6          6           0        1.151385   -0.185174    0.989992
      7          6           0        1.414419    0.889330    0.086717
      8          7           0        1.379706    0.485694   -1.164133
      9          8           0        1.086744   -0.889456   -1.107645
     10          6           0        1.693489    2.324470    0.402650
     11          1           0       -1.972120   -1.050308    0.991717
     12          1           0       -2.787041   -1.717128   -0.435203
     13          1           0       -3.671191   -0.665122    0.681933
     14          1           0       -1.314295    0.190892   -1.109391
     15          1           0       -2.997797    0.593048   -1.398687
     16          1           0       -1.383953    1.474845    1.066702
     17          1           0       -1.769017    2.506032   -0.321355
     18          1           0       -3.065182    1.921561    0.738224
     19          1           0        1.372425   -3.353615   -0.019914
     20          1           0        0.597538   -2.888727    1.511552
     21          1           0       -0.350578   -2.948938    0.011629
     22          1           0        1.116255   -0.151535    2.068758
     23          1           0        0.843138    2.778815    0.922975
     24          1           0        2.571391    2.419539    1.051302
     25          1           0        1.876237    2.881903   -0.519106
 ---------------------------------------------------------------------

 SCF Done:  E(UB3LYP) =  -443.971883598     A.U. after   31 cycles

 The electronic state is 2-A.
 Alpha  occ. eigenvalues --  -19.09979 -14.25108 -10.14185 -10.11316 -10.07797
 Alpha  occ. eigenvalues --  -10.07705 -10.06965 -10.06007 -10.05372 -10.05258
 Alpha  occ. eigenvalues --   -1.03463  -0.77597  -0.70566  -0.67735  -0.62573
 Alpha  occ. eigenvalues --   -0.61757  -0.57807  -0.50389  -0.48191  -0.45396
 Alpha  occ. eigenvalues --   -0.40302  -0.38186  -0.34980  -0.34042  -0.33501
 Alpha  occ. eigenvalues --   -0.32927  -0.32449  -0.30576  -0.30352  -0.29655
 Alpha  occ. eigenvalues --   -0.28413  -0.27774  -0.27413  -0.23695  -0.23557
 Alpha  occ. eigenvalues --   -0.22568  -0.20644  -0.18686  -0.15484   0.04662
 Alpha virt. eigenvalues --    0.06801   0.07373   0.08323   0.08585   0.09506
 Alpha virt. eigenvalues --    0.09895   0.10199   0.10567   0.11653   0.12552
 Alpha virt. eigenvalues --    0.13027   0.13535   0.13973   0.14536   0.15097

  Beta  occ. eigenvalues --  -19.09974 -14.25104 -10.14185 -10.11315 -10.07741
  Beta  occ. eigenvalues --  -10.07671 -10.06933 -10.05999 -10.05350 -10.05229
  Beta  occ. eigenvalues --   -1.03457  -0.77585  -0.70540  -0.67709  -0.62525
  Beta  occ. eigenvalues --   -0.61687  -0.57753  -0.50348  -0.48131  -0.45355
  Beta  occ. eigenvalues --   -0.40239  -0.38168  -0.34961  -0.33980  -0.33466
  Beta  occ. eigenvalues --   -0.32889  -0.32391  -0.30538  -0.30299  -0.29618
  Beta  occ. eigenvalues --   -0.28386  -0.27746  -0.27382  -0.23665  -0.23514
  Beta  occ. eigenvalues --   -0.22549  -0.20631  -0.18672  -0.15465
  Beta virt. eigenvalues --    0.07009   0.07786   0.08110   0.08424   0.09380
  Beta virt. eigenvalues --    0.09965   0.10303   0.10812   0.11249   0.12222
  Beta virt. eigenvalues --    0.12998   0.13250   0.13938   0.14455   0.14632

 Mulliken charges and spin densities:
               1          2
     1  C    0.426839  -1.044357
     2  C   -0.652307   0.717640
     3  C    0.326013  -0.839611
     4  C    2.651428  -3.252157
     5  C   -2.211824   2.008084
     6  C   -0.287430   0.082362
     7  C   -0.171023   0.651550
     8  N   -0.453445   0.115760
     9  O    0.210884  -0.037876
    10  C    2.255148  -2.735222
    11  H   -0.003164   0.162230
    12  H   -0.207990   0.337800
    13  H   -0.070443   0.190189
    14  H    0.115358  -0.016520
    15  H    0.010855   0.128888
    16  H   -0.096673   0.226763
    17  H   -0.084463   0.205409
    18  H   -0.049418   0.178863
    19  H   -0.400418   0.564878
    20  H   -0.655821   0.835916
    21  H   -0.106951   0.285073
    22  H   -1.094632   1.302927
    23  H   -0.129757   0.301144
    24  H   -0.278893   0.435757
    25  H   -0.041875   0.194510
 Sum of Mulliken charges =  -1.00000   1.00000

 Dipole moment (field-independent basis, Debye):
    X=             -0.9826    Y=              2.3585    Z=             -4.2641  Tot=              4.9710
 Quadrupole moment (field-independent basis, Debye-Ang):
   XX=           -107.3390   YY=           -116.4851   ZZ=           -106.5393
   XY=             -0.9200   XZ=             -1.9976   YZ=              3.4548

 Summary of Natural Population Analysis:

                                       Natural Population
                Natural  -----------------------------------------------
    Atom  No    Charge         Core      Valence    Rydberg      Total
 -----------------------------------------------------------------------
      C    1   -0.28507      0.99967     2.28029    0.00511     3.28507
      C    2   -0.19565      0.99965     2.18868    0.00732     3.19565
      C    3   -0.28457      0.99967     2.27996    0.00495     3.28457
      C    4   -0.30992      0.99962     2.30360    0.00670     3.30992
      C    5    0.18040      0.99951     1.80414    0.01596     2.81960
      C    6   -0.17342      0.99942     2.16306    0.01094     3.17342
      C    7    0.08569      0.99961     1.89937    0.01533     2.91431
      N    8   -0.09424      0.99967     2.58251    0.01206     3.59424
      O    9   -0.17437      0.99985     3.16608    0.00844     4.17437
      C   10   -0.29974      0.99962     2.29431    0.00581     3.29974
      H   11    0.09896      0.00000     0.39964    0.00140     0.40104
      H   12    0.09680      0.00000     0.40208    0.00112     0.40320
      H   13    0.09313      0.00000     0.40584    0.00103     0.40687
      H   14    0.09953      0.00000     0.39784    0.00264     0.40047
      H   15    0.08752      0.00000     0.41147    0.00101     0.41248
      H   16    0.09812      0.00000     0.40052    0.00135     0.40188
      H   17    0.09692      0.00000     0.40212    0.00096     0.40308
      H   18    0.09279      0.00000     0.40626    0.00095     0.40721
      H   19    0.11139      0.00000     0.38710    0.00151     0.38861
      H   20    0.11548      0.00000     0.38163    0.00289     0.38452
      H   21    0.11324      0.00000     0.38528    0.00148     0.38676
      H   22    0.11920      0.00000     0.37772    0.00309     0.38080
      H   23    0.11021      0.00000     0.38851    0.00128     0.38979
      H   24    0.10893      0.00000     0.38977    0.00130     0.39107
      H   25    0.10869      0.00000     0.39021    0.00110     0.39131
 =======================================================================
   * Total *    0.00000      9.99628    28.88799    0.11572    39.00000

 Normal termination of Gaussian 16 at Tue Dec  8 14:28:47 2020.
