 Gaussian 16, Revision A.03,

 -----------------------------------------------------------
 # opt freq B3LYP/6-31G(d) empiricaldispersion=gd3bj scf=xqc
 -----------------------------------------------------------

 ------------------------------
 CID_68319666_JID_6751_neutraal
 ------------------------------
 Symbolic Z-matrix:
 Charge =  0 Multiplicity = 1

 SCF Done:  E(RB3LYP) =  -663.769488726     A.U. after   13 cycles
 SCF Done:  E(RB3LYP) =  -663.772288127     A.U. after   10 cycles
 SCF Done:  E(RB3LYP) =  -663.772528830     A.U. after   10 cycles
 SCF Done:  E(RB3LYP) =  -663.772605334     A.U. after   10 cycles
 SCF Done:  E(RB3LYP) =  -663.772673776     A.U. after    9 cycles
 SCF Done:  E(RB3LYP) =  -663.772677110     A.U. after    8 cycles
 SCF Done:  E(RB3LYP) =  -663.772678738     A.U. after    8 cycles
 SCF Done:  E(RB3LYP) =  -663.772679474     A.U. after    7 cycles
 SCF Done:  E(RB3LYP) =  -663.772680184     A.U. after    8 cycles
 SCF Done:  E(RB3LYP) =  -663.772680447     A.U. after    8 cycles
 SCF Done:  E(RB3LYP) =  -663.772680793     A.U. after    8 cycles
 SCF Done:  E(RB3LYP) =  -663.772681105     A.U. after    8 cycles
 SCF Done:  E(RB3LYP) =  -663.772681224     A.U. after    6 cycles
 SCF Done:  E(RB3LYP) =  -663.772681237     A.U. after    5 cycles
 Optimization completed.
    -- Stationary point found.
 Normal termination of Gaussian 16 at Thu Dec 10 23:29:41 2020.

 --------------------------------------------------------------------
 #N Geom=AllCheck Guess=TCheck SCRF=Check GenChk RB3LYP/6-31G(d) Freq
 --------------------------------------------------------------------

 Structure from the checkpoint file:  "JID_6751.chk"
 ------------------------------
 CID_68319666_JID_6751_neutraal
 ------------------------------
 Charge =  0 Multiplicity = 1

 SCF Done:  E(RB3LYP) =  -663.772681237     A.U. after    1 cycles

  Exact polarizability: 174.070   2.026 150.466  -0.242   0.264 141.802
 Approx polarizability: 217.707   0.450 213.631   1.166  -0.014 210.041

                      1                      2                      3
                      A                      A                      A
 Frequencies --     18.2001                46.4138                63.1510
 Red. masses --      2.6745                 3.1053                 3.4039
 Frc consts  --      0.0005                 0.0039                 0.0080
 IR Inten    --      0.1674                 0.0803                 0.1640

                      4                      5                      6
                      A                      A                      A
 Frequencies --     89.7464               137.8235               159.8334
 Red. masses --      2.8783                 2.5503                 2.0332
 Frc consts  --      0.0137                 0.0285                 0.0306
 IR Inten    --      0.1697                 1.6499                 0.4618

                      7                      8                      9
                      A                      A                      A
 Frequencies --    205.2792               205.9240               217.4488
 Red. masses --      2.5054                 2.4015                 1.1141
 Frc consts  --      0.0622                 0.0600                 0.0310
 IR Inten    --      0.0228                 0.2811                 0.0799

                     10                     11                     12
                      A                      A                      A
 Frequencies --    234.9160               245.0379               253.4460
 Red. masses --      2.0965                 1.0502                 1.6572
 Frc consts  --      0.0682                 0.0372                 0.0627
 IR Inten    --      0.3957                 0.0317                 0.4549

                     13                     14                     15
                      A                      A                      A
 Frequencies --    264.7863               271.4686               314.6978
 Red. masses --      1.8701                 1.5140                 1.7757
 Frc consts  --      0.0772                 0.0657                 0.1036
 IR Inten    --      0.1295                 0.6692                 0.2072

                     16                     17                     18
                      A                      A                      A
 Frequencies --    321.9046               362.2367               371.8666
 Red. masses --      2.6147                 2.3405                 2.2797
 Frc consts  --      0.1596                 0.1809                 0.1857
 IR Inten    --      0.6867                 0.3604                 0.3028

                     19                     20                     21
                      A                      A                      A
 Frequencies --    392.1541               416.0752               424.3389
 Red. masses --      2.1096                 3.1062                 2.4211
 Frc consts  --      0.1911                 0.3168                 0.2569
 IR Inten    --      1.1362                 0.3400                 1.0025

                     22                     23                     24
                      A                      A                      A
 Frequencies --    435.2104               437.7790               451.4452
 Red. masses --      2.1629                 2.3813                 2.8346
 Frc consts  --      0.2414                 0.2689                 0.3404
 IR Inten    --      0.5057                 0.7011                 3.4679

                     25                     26                     27
                      A                      A                      A
 Frequencies --    483.5739               525.8417               587.6780
 Red. masses --      2.0206                 2.6473                 3.2760
 Frc consts  --      0.2784                 0.4313                 0.6666
 IR Inten    --      0.2916                 1.0305                 0.1557

                     28                     29                     30
                      A                      A                      A
 Frequencies --    620.3256               706.9044               770.3581
 Red. masses --      3.2010                 3.0520                 2.9907
 Frc consts  --      0.7257                 0.8986                 1.0457
 IR Inten    --      0.6685                 0.2301                 0.2584

                     31                     32                     33
                      A                      A                      A
 Frequencies --    801.0048               824.3973               846.2707
 Red. masses --      2.5490                 2.5391                 2.3733
 Frc consts  --      0.9636                 1.0167                 1.0014
 IR Inten    --      3.1408                 1.3117                 0.3553

                     34                     35                     36
                      A                      A                      A
 Frequencies --    854.9706               869.3357               908.2825
 Red. masses --      2.2831                 1.6080                 1.8752
 Frc consts  --      0.9833                 0.7160                 0.9114
 IR Inten    --      5.1271                 2.3690                 1.1294

                     37                     38                     39
                      A                      A                      A
 Frequencies --    922.1266               931.0322               940.1223
 Red. masses --      1.6232                 1.9836                 1.2678
 Frc consts  --      0.8132                 1.0131                 0.6602
 IR Inten    --      2.8114                 2.1726                 0.3248

                     40                     41                     42
                      A                      A                      A
 Frequencies --    947.5748               950.9162               959.8447
 Red. masses --      1.7587                 1.6233                 2.3241
 Frc consts  --      0.9304                 0.8648                 1.2616
 IR Inten    --      2.9598                 2.2087                 1.2313

                     43                     44                     45
                      A                      A                      A
 Frequencies --    962.9001               989.7108               996.1476
 Red. masses --      1.8999                 1.7806                 1.8777
 Frc consts  --      1.0379                 1.0276                 1.0978
 IR Inten    --      8.4453                 0.7312                 9.0286

                     46                     47                     48
                      A                      A                      A
 Frequencies --   1031.1632              1050.9376              1057.0590
 Red. masses --      1.9741                 1.5712                 1.8904
 Frc consts  --      1.2367                 1.0224                 1.2445
 IR Inten    --      0.9262                 0.3278                 0.7513

                     49                     50                     51
                      A                      A                      A
 Frequencies --   1072.4433              1101.1909              1118.8208
 Red. masses --      1.5425                 2.3150                 2.1040
 Frc consts  --      1.0453                 1.6539                 1.5517
 IR Inten    --      0.0674                 0.2961                 5.5705

                     52                     53                     54
                      A                      A                      A
 Frequencies --   1122.8176              1150.2826              1162.3430
 Red. masses --      3.6678                 1.4810                 1.5213
 Frc consts  --      2.7244                 1.1545                 1.2110
 IR Inten    --     85.9091                 0.7880                 6.8643

                     55                     56                     57
                      A                      A                      A
 Frequencies --   1166.6857              1168.5091              1179.2335
 Red. masses --      2.0853                 2.0115                 2.0118
 Frc consts  --      1.6724                 1.6182                 1.6483
 IR Inten    --     35.7970                 9.8774                47.3994

                     58                     59                     60
                      A                      A                      A
 Frequencies --   1186.3755              1206.3897              1217.8876
 Red. masses --      1.8235                 1.9525                 1.6818
 Frc consts  --      1.5121                 1.6742                 1.4697
 IR Inten    --     65.0141                37.1833                 6.4189

                     61                     62                     63
                      A                      A                      A
 Frequencies --   1219.4503              1247.0830              1275.9731
 Red. masses --      1.7582                 1.5830                 1.3414
 Frc consts  --      1.5404                 1.4505                 1.2868
 IR Inten    --      5.7548                 4.1000                 4.3013

                     64                     65                     66
                      A                      A                      A
 Frequencies --   1294.1718              1309.7871              1323.9695
 Red. masses --      1.3421                 1.2696                 1.3611
 Frc consts  --      1.3244                 1.2832                 1.4057
 IR Inten    --      0.5960                 5.8424                 2.0441

                     67                     68                     69
                      A                      A                      A
 Frequencies --   1333.4514              1347.2345              1355.8195
 Red. masses --      1.5341                 1.3460                 1.2607
 Frc consts  --      1.6072                 1.4394                 1.3655
 IR Inten    --     10.7209                 0.3132                 2.3927

                     70                     71                     72
                      A                      A                      A
 Frequencies --   1369.4225              1376.7882              1383.6846
 Red. masses --      1.4764                 1.3723                 1.3528
 Frc consts  --      1.6312                 1.5326                 1.5260
 IR Inten    --      1.8494                15.3798                20.5487

                     73                     74                     75
                      A                      A                      A
 Frequencies --   1389.6481              1391.3615              1405.5678
 Red. masses --      1.2936                 1.4995                 1.3895
 Frc consts  --      1.4719                 1.7103                 1.6174
 IR Inten    --     18.9712                 4.1986                 4.7895

                     76                     77                     78
                      A                      A                      A
 Frequencies --   1409.3659              1412.8077              1415.3664
 Red. masses --      1.4277                 1.3610                 1.3965
 Frc consts  --      1.6708                 1.6006                 1.6483
 IR Inten    --      0.9956                 3.1360                 1.0356

                     79                     80                     81
                      A                      A                      A
 Frequencies --   1425.3689              1428.2745              1438.1870
 Red. masses --      1.4489                 1.4073                 1.2450
 Frc consts  --      1.7344                 1.6914                 1.5173
 IR Inten    --      2.8487                17.5821                 2.1714

                     82                     83                     84
                      A                      A                      A
 Frequencies --   1441.6651              1443.8843              1452.1226
 Red. masses --      1.2536                 1.2695                 1.3870
 Frc consts  --      1.5351                 1.5594                 1.7231
 IR Inten    --     18.2858                 2.7705                 4.5047

                     85                     86                     87
                      A                      A                      A
 Frequencies --   1510.6120              1511.6070              1513.6265
 Red. masses --      1.0855                 1.0493                 1.0815
 Frc consts  --      1.4594                 1.4126                 1.4599
 IR Inten    --      1.4463                 1.7534                 1.1459

                     88                     89                     90
                      A                      A                      A
 Frequencies --   1516.6770              1518.4826              1523.5923
 Red. masses --      1.0501                 1.0796                 1.0685
 Frc consts  --      1.4232                 1.4667                 1.4613
 IR Inten    --      0.4553                 1.7951                 1.4094

                     91                     92                     93
                      A                      A                      A
 Frequencies --   1526.4379              1527.5909              1529.8614
 Red. masses --      1.0523                 1.0466                 1.0574
 Frc consts  --      1.4446                 1.4390                 1.4581
 IR Inten    --      5.0792                 9.4700                 2.1644

                     94                     95                     96
                      A                      A                      A
 Frequencies --   1537.8443              1540.9140              1543.8490
 Red. masses --      1.0614                 1.0692                 1.0861
 Frc consts  --      1.4789                 1.4958                 1.5252
 IR Inten    --      4.8092                 2.8453                 1.2399

                     97                     98                     99
                      A                      A                      A
 Frequencies --   1548.7591              1551.1449              2968.6932
 Red. masses --      1.0762                 1.0618                 1.0632
 Frc consts  --      1.5210                 1.5052                 5.5206
 IR Inten    --      6.2652                 4.6211                13.7712

                    100                    101                    102
                      A                      A                      A
 Frequencies --   2977.8164              3004.0249              3006.1665
 Red. masses --      1.0756                 1.0765                 1.1026
 Frc consts  --      5.6192                 5.7236                 5.8707
 IR Inten    --     72.0933                 9.1116                33.3311

                    103                    104                    105
                      A                      A                      A
 Frequencies --   3015.2798              3024.1819              3026.4335
 Red. masses --      1.0642                 1.0799                 1.0725
 Frc consts  --      5.7005                 5.8192                 5.7878
 IR Inten    --     27.4298                16.1389                30.7692

                    106                    107                    108
                      A                      A                      A
 Frequencies --   3029.5445              3033.5499              3037.4178
 Red. masses --      1.0772                 1.0381                 1.0685
 Frc consts  --      5.8251                 5.6285                 5.8081
 IR Inten    --     20.1346                10.9623               106.5036

                    109                    110                    111
                      A                      A                      A
 Frequencies --   3047.8799              3051.8539              3052.5007
 Red. masses --      1.0485                 1.0776                 1.0484
 Frc consts  --      5.7390                 5.9132                 5.7555
 IR Inten    --     33.1169                 9.9345                20.1906

                    112                    113                    114
                      A                      A                      A
 Frequencies --   3053.7511              3057.9016              3060.3571
 Red. masses --      1.0747                 1.0357                 1.1008
 Frc consts  --      5.9046                 5.7058                 6.0747
 IR Inten    --    106.6556                15.6881                53.0110

                    115                    116                    117
                      A                      A                      A
 Frequencies --   3066.8351              3081.6997              3095.9693
 Red. masses --      1.0611                 1.1003                 1.1023
 Frc consts  --      5.8801                 6.1567                 6.2249
 IR Inten    --     30.5367                37.0005                13.5669

                    118                    119                    120
                      A                      A                      A
 Frequencies --   3100.8519              3103.4722              3105.4850
 Red. masses --      1.1018                 1.1018                 1.1021
 Frc consts  --      6.2419                 6.2527                 6.2625
 IR Inten    --     37.4012                54.2441                45.0001

                    121                    122                    123
                      A                      A                      A
 Frequencies --   3111.2071              3120.2003              3127.1882
 Red. masses --      1.0923                 1.1027                 1.1020
 Frc consts  --      6.2297                 6.3252                 6.3495
 IR Inten    --     56.9461                 6.3080                37.0810

                    124                    125                    126
                      A                      A                      A
 Frequencies --   3129.4055              3135.6251              3163.9464
 Red. masses --      1.1022                 1.1030                 1.0931
 Frc consts  --      6.3598                 6.3899                 6.4469
 IR Inten    --     49.3836                29.3927                24.0838

 - Thermochemistry -
 -------------------
 Temperature   298.150 Kelvin.  Pressure   1.00000 Atm.
 Atom     1 has atomic number  6 and mass  12.00000

 Molecular mass:   224.21402 amu.
 Principal axes and moments of inertia in atomic units:
                           1         2         3
     Eigenvalues --  2181.351195634.300606236.35990
           X            0.99999  -0.00160   0.00298
           Y            0.00161   0.99999  -0.00507
           Z           -0.00298   0.00507   0.99998
 This molecule is an asymmetric top.
 Rotational symmetry number  1.
 Warning -- assumption of classical behavior for rotation
           may cause significant error
 Rotational temperatures (Kelvin)      0.03971     0.01537     0.01389
 Rotational constants (GHZ):           0.82735     0.32031     0.28939
 Zero-point vibrational energy    1081503.9 (Joules/Mol)
                                  258.48564 (Kcal/Mol)
 Warning -- explicit consideration of  28 degrees of freedom as
           vibrations may cause significant error
 Vibrational temperatures:     26.19    66.78    90.86   129.13   198.30
          (Kelvin)            229.96   295.35   296.28   312.86   337.99
                              352.55   364.65   380.97   390.58   452.78
                              463.15   521.18   535.03   564.22   598.64
                              610.53   626.17   629.87   649.53   695.75
                              756.57   845.54   892.51  1017.08  1108.37
                             1152.47  1186.12  1217.59  1230.11  1250.78
                             1306.82  1326.73  1339.55  1352.63  1363.35
                             1368.16  1381.00  1385.40  1423.97  1433.23
                             1483.61  1512.06  1520.87  1543.01  1584.37
                             1609.73  1615.48  1655.00  1672.35  1678.60
                             1681.22  1696.65  1706.93  1735.73  1752.27
                             1754.52  1794.27  1835.84  1862.02  1884.49
                             1904.90  1918.54  1938.37  1950.72  1970.29
                             1980.89  1990.81  1999.39  2001.86  2022.30
                             2027.76  2032.72  2036.40  2050.79  2054.97
                             2069.23  2074.23  2077.43  2089.28  2173.43
                             2174.87  2177.77  2182.16  2184.76  2192.11
                             2196.20  2197.86  2201.13  2212.61  2217.03
                             2221.25  2228.32  2231.75  4271.29  4284.41
                             4322.12  4325.20  4338.32  4351.12  4354.36
                             4358.84  4364.60  4370.17  4385.22  4390.94
                             4391.87  4393.67  4399.64  4403.17  4412.49
                             4433.88  4454.41  4461.43  4465.20  4468.10
                             4476.33  4489.27  4499.33  4502.52  4511.47
                             4552.21

 Zero-point correction=                           0.411923 (Hartree/Particle)
 Thermal correction to Energy=                    0.428941
 Thermal correction to Enthalpy=                  0.429885
 Thermal correction to Gibbs Free Energy=         0.367638
 Sum of electronic and zero-point Energies=           -663.360758
 Sum of electronic and thermal Energies=              -663.343740
 Sum of electronic and thermal Enthalpies=            -663.342796
 Sum of electronic and thermal Free Energies=         -663.405043

                     E (Thermal)             CV                S
                      KCal/Mol        Cal/Mol-Kelvin    Cal/Mol-Kelvin
 Total                  269.164             67.766            131.009
 Electronic               0.000              0.000              0.000
 Translational            0.889              2.981             42.125
 Rotational               0.889              2.981             32.705
 Vibrational            267.387             61.804             56.179
 Vibration     1          0.593              1.986              6.821
 Vibration     2          0.595              1.979              4.965
 Vibration     3          0.597              1.972              4.356
 Vibration     4          0.602              1.956              3.666
 Vibration     5          0.614              1.916              2.834
 Vibration     6          0.622              1.892              2.552
 Vibration     7          0.640              1.832              2.085
 Vibration     8          0.640              1.831              2.080
 Vibration     9          0.646              1.814              1.980
 Vibration    10          0.655              1.787              1.841
 Vibration    11          0.660              1.771              1.766
 Vibration    12          0.665              1.757              1.706
 Vibration    13          0.671              1.738              1.630
 Vibration    14          0.675              1.726              1.587
 Vibration    15          0.702              1.646              1.338
 Vibration    16          0.707              1.632              1.300
 Vibration    17          0.736              1.550              1.112
 Vibration    18          0.744              1.530              1.072
 Vibration    19          0.760              1.487              0.992
 Vibration    20          0.779              1.435              0.905
 Vibration    21          0.786              1.417              0.877
 Vibration    22          0.796              1.393              0.842
 Vibration    23          0.798              1.388              0.834
 Vibration    24          0.810              1.358              0.791
 Vibration    25          0.840              1.286              0.700
 Vibration    26          0.881              1.193              0.597
 Vibration    27          0.945              1.058              0.471
 Vibration    28          0.980              0.989              0.416

 Optimization completed.
    -- Stationary point found.
 Normal termination of Gaussian 16 at Thu Dec 10 23:50:23 2020.

 ----------------------------------------------------------------------
 # B3LYP/6-311++G(d,p) empiricaldispersion=gd3bj scf=xqc pop=npa geom=c
 heck
 ----------------------------------------------------------------------

 --------------------------------------
 CID_68319666_JID_6751_Energie_neutraal
 --------------------------------------
 Structure from the checkpoint file:  "JID_6751.chk"
 Charge =  0 Multiplicity = 1

 SCF Done:  E(RB3LYP) =  -663.952784833     A.U. after   14 cycles
 Normal termination of Gaussian 16 at Fri Dec 11 00:01:10 2020.

 ----------------------------------------------------------------------
 # B3LYP/6-311++G(d,p) empiricaldispersion=gd3bj scf=xqc pop=npa geom=c
 heck
 ----------------------------------------------------------------------

 ------------------------------------
 CID_68319666_JID_6751_Energie_kation
 ------------------------------------
 Structure from the checkpoint file:  "JID_6751.chk"
 Charge =  1 Multiplicity = 2

 SCF Done:  E(UB3LYP) =  -663.632177606     A.U. after   25 cycles
 Normal termination of Gaussian 16 at Fri Dec 11 00:28:19 2020.
 Gaussian 16:  ES64L-G16RevA.03 25-Dec-2016

 ----------------------------------------------------------------------
 # B3LYP/6-311++G(d,p) empiricaldispersion=gd3bj scf=xqc pop=npa geom=c
 heck
 ----------------------------------------------------------------------

 -----------------------------------
 CID_68319666_JID_6751_Energie_anion
 -----------------------------------
 Structure from the checkpoint file:  "JID_6751.chk"
 Charge = -1 Multiplicity = 2

                         Standard orientation:
 ---------------------------------------------------------------------
 Center     Atomic      Atomic             Coordinates (Angstroms)
 Number     Number       Type             X           Y           Z
 ---------------------------------------------------------------------
      1          6           0       -1.219597    3.073023   -0.944743
      2          6           0       -0.856853    1.876467   -0.062281
      3          6           0       -2.039993    1.465866    0.836072
      4          6           0       -1.828524    0.109603    1.571216
      5          6           0       -2.787331   -1.010015    1.118938
      6          6           0       -2.543633   -1.564373   -0.305549
      7          6           0       -1.031795   -1.748970   -0.588172
      8          6           0       -0.103070   -0.613337   -0.102346
      9          6           0       -0.312898    0.709985   -0.905857
     10          6           0       -0.384746   -0.378021    1.392817
     11          6           0        1.341179   -1.088523   -0.288111
     12          8           0        2.220198   -0.078397    0.173340
     13          6           0        3.603937   -0.421981    0.168615
     14          6           0        4.184246   -0.410889   -1.247233
     15          6           0        4.293572    0.586931    1.078545
     16          6           0       -3.301201   -0.798294   -1.404144
     17          1           0       -0.361072    3.401312   -1.542671
     18          1           0       -1.556865    3.925400   -0.342756
     19          1           0       -2.030011    2.815282   -1.639081
     20          1           0       -0.039154    2.190563    0.600343
     21          1           0       -2.199228    2.263803    1.572095
     22          1           0       -2.959526    1.430751    0.240804
     23          1           0       -2.012707    0.266436    2.641346
     24          1           0       -3.828804   -0.673083    1.207646
     25          1           0       -2.671171   -1.840115    1.829896
     26          1           0       -2.975734   -2.574693   -0.320890
     27          1           0       -0.879939   -1.917972   -1.663343
     28          1           0       -0.709241   -2.671351   -0.083504
     29          1           0       -0.975068    0.528093   -1.758644
     30          1           0        0.646499    1.028207   -1.326764
     31          1           0       -0.241223   -1.320790    1.939568
     32          1           0        0.334698    0.335545    1.803424
     33          1           0        1.511548   -2.019231    0.279877
     34          1           0        1.520629   -1.312252   -1.352418
     35          1           0        3.717622   -1.432865    0.596541
     36          1           0        4.060432    0.582360   -1.693240
     37          1           0        5.252982   -0.651846   -1.227126
     38          1           0        3.689832   -1.141765   -1.894885
     39          1           0        5.365162    0.374293    1.155387
     40          1           0        4.167914    1.599438    0.679138
     41          1           0        3.855047    0.557159    2.080578
     42          1           0       -3.136497   -1.268925   -2.381100
     43          1           0       -4.378858   -0.820013   -1.201791
     44          1           0       -3.008610    0.248599   -1.491758
 ---------------------------------------------------------------------

 SCF Done:  E(UB3LYP) =  -663.938203584     A.U. after   29 cycles

 The electronic state is 2-A.
 Alpha  occ. eigenvalues --  -19.02269 -10.12786 -10.11123 -10.07803 -10.07419
 Alpha  occ. eigenvalues --  -10.07185 -10.06871 -10.06557 -10.06551 -10.06521
 Alpha  occ. eigenvalues --  -10.06345 -10.06162 -10.06119 -10.05951 -10.05782
 Alpha  occ. eigenvalues --  -10.05510  -0.93831  -0.75793  -0.69985  -0.69815
 Alpha  occ. eigenvalues --   -0.66760  -0.66052  -0.59960  -0.58832  -0.57604
 Alpha  occ. eigenvalues --   -0.57383  -0.56860  -0.50462  -0.48697  -0.47038
 Alpha  occ. eigenvalues --   -0.45129  -0.41013  -0.40472  -0.39978  -0.37057
 Alpha  occ. eigenvalues --   -0.36220  -0.35280  -0.34658  -0.34566  -0.33188
 Alpha  occ. eigenvalues --   -0.32693  -0.32439  -0.30893  -0.30626  -0.29768
 Alpha  occ. eigenvalues --   -0.29103  -0.28336  -0.28123  -0.27785  -0.26804
 Alpha  occ. eigenvalues --   -0.26323  -0.25766  -0.25103  -0.23905  -0.23496
 Alpha  occ. eigenvalues --   -0.22911  -0.22542  -0.22440  -0.21762  -0.19507
 Alpha  occ. eigenvalues --   -0.18497  -0.17922  -0.16116   0.04221
 Alpha virt. eigenvalues --    0.05941   0.06702   0.07023   0.07917   0.08129
 Alpha virt. eigenvalues --    0.08405   0.08847   0.09320   0.09854   0.10249
 Alpha virt. eigenvalues --    0.10678   0.10905   0.11650   0.11839   0.12302

  Beta  occ. eigenvalues --  -19.02260 -10.12775 -10.11107 -10.07804 -10.07410
  Beta  occ. eigenvalues --  -10.07181 -10.06865 -10.06535 -10.06522 -10.06508
  Beta  occ. eigenvalues --  -10.06332 -10.06151 -10.06104 -10.05931 -10.05773
  Beta  occ. eigenvalues --  -10.05497  -0.93816  -0.75775  -0.69966  -0.69788
  Beta  occ. eigenvalues --   -0.66735  -0.66029  -0.59911  -0.58801  -0.57574
  Beta  occ. eigenvalues --   -0.57350  -0.56823  -0.50430  -0.48648  -0.47007
  Beta  occ. eigenvalues --   -0.45094  -0.40987  -0.40434  -0.39929  -0.37033
  Beta  occ. eigenvalues --   -0.36187  -0.35257  -0.34636  -0.34532  -0.33160
  Beta  occ. eigenvalues --   -0.32663  -0.32418  -0.30868  -0.30603  -0.29739
  Beta  occ. eigenvalues --   -0.29073  -0.28317  -0.28098  -0.27763  -0.26782
  Beta  occ. eigenvalues --   -0.26294  -0.25732  -0.25082  -0.23881  -0.23472
  Beta  occ. eigenvalues --   -0.22891  -0.22519  -0.22414  -0.21721  -0.19483
  Beta  occ. eigenvalues --   -0.18470  -0.17896  -0.16097
  Beta virt. eigenvalues --    0.06079   0.06753   0.07155   0.07443   0.08362
  Beta virt. eigenvalues --    0.08560   0.08662   0.09241   0.09621   0.10246
  Beta virt. eigenvalues --    0.10491   0.10917   0.11215   0.11783   0.12064

 Mulliken charges and spin densities:
               1          2
     1  C    0.339936  -0.988552
     2  C   -0.179026   0.303082
     3  C   -0.821450   0.212836
     4  C    0.939121  -0.671587
     5  C    0.414031  -1.181377
     6  C   -0.962874   1.215383
     7  C   -0.389528  -0.282774
     8  C    0.439744  -0.115138
     9  C   -0.056656  -0.699258
    10  C   -1.072758   0.659752
    11  C    0.369053  -0.280250
    12  O    0.090116   0.001690
    13  C   -0.580584   0.716070
    14  C    0.619914  -1.059961
    15  C    0.216629  -0.726253
    16  C    0.706853  -1.431655
    17  H   -0.071258   0.205051
    18  H   -0.004788   0.144272
    19  H    0.065916   0.067506
    20  H    0.154509   0.040392
    21  H   -0.143165   0.293254
    22  H    0.046178   0.104599
    23  H   -0.174599   0.399401
    24  H   -0.077344   0.236819
    25  H    0.003831   0.125730
    26  H   -0.396358   0.612828
    27  H   -0.190184   0.359342
    28  H   -0.076030   0.219622
    29  H    0.023248   0.148620
    30  H    0.425110  -0.263511
    31  H   -0.246766   0.438638
    32  H    0.235295  -0.075678
    33  H    0.017453   0.125488
    34  H    0.204220  -0.094082
    35  H   -0.004141   0.105923
    36  H   -0.012963   0.154251
    37  H   -0.298243   0.450052
    38  H   -0.316541   0.467233
    39  H   -0.137997   0.274250
    40  H    0.023748   0.118850
    41  H   -0.124580   0.269928
    42  H    0.019691   0.108784
    43  H   -0.175683   0.307819
    44  H    0.158917  -0.017389
 Sum of Mulliken charges =  -1.00000   1.00000

 Dipole moment (field-independent basis, Debye):
    X=             -1.0051    Y=              2.3551    Z=             -0.5913  Tot=              2.6280
 Quadrupole moment (field-independent basis, Debye-Ang):
   XX=           -193.0150   YY=           -151.0493   ZZ=           -145.2737
   XY=             -2.8357   XZ=              3.3833   YZ=             -1.3856

 Summary of Natural Population Analysis:

                                       Natural Population
                Natural  -----------------------------------------------
    Atom  No    Charge         Core      Valence    Rydberg      Total
 -----------------------------------------------------------------------
      C    1   -0.27911      0.99965     2.27471    0.00475     3.27911
      C    2   -0.11415      0.99959     2.10572    0.00884     3.11415
      C    3   -0.18734      0.99960     2.17830    0.00944     3.18734
      C    4   -0.11097      0.99959     2.09948    0.01190     3.11097
      C    5   -0.18276      0.99960     2.17324    0.00993     3.18276
      C    6   -0.11285      0.99959     2.10183    0.01143     3.11285
      C    7   -0.18420      0.99957     2.17354    0.01108     3.18420
      C    8   -0.04945      0.99954     2.03587    0.01403     3.04945
      C    9   -0.18734      0.99958     2.17762    0.01015     3.18734
      C   10   -0.19035      0.99958     2.18007    0.01070     3.19035
      C   11    0.00073      0.99949     1.98718    0.01260     2.99927
      O   12   -0.30908      0.99987     3.29933    0.00987     4.30908
      C   13    0.06589      0.99958     1.92092    0.01361     2.93411
      C   14   -0.29829      0.99964     2.29317    0.00548     3.29829
      C   15   -0.28735      0.99964     2.28268    0.00503     3.28735
      C   16   -0.28352      0.99964     2.27802    0.00586     3.28352
      H   17    0.09839      0.00000     0.40076    0.00084     0.40161
      H   18    0.09748      0.00000     0.40170    0.00082     0.40252
      H   19    0.09415      0.00000     0.40492    0.00093     0.40585
      H   20    0.09575      0.00000     0.40235    0.00190     0.40425
      H   21    0.09892      0.00000     0.40010    0.00098     0.40108
      H   22    0.09466      0.00000     0.40410    0.00124     0.40534
      H   23    0.09754      0.00000     0.40116    0.00130     0.40246
      H   24    0.09728      0.00000     0.40165    0.00107     0.40272
      H   25    0.09926      0.00000     0.39939    0.00135     0.40074
      H   26    0.09628      0.00000     0.40191    0.00182     0.40372
      H   27    0.09891      0.00000     0.39991    0.00118     0.40109
      H   28    0.10019      0.00000     0.39834    0.00147     0.39981
      H   29    0.09540      0.00000     0.40333    0.00127     0.40460
      H   30    0.10602      0.00000     0.39249    0.00150     0.39398
      H   31    0.10055      0.00000     0.39818    0.00128     0.39945
      H   32    0.10749      0.00000     0.39079    0.00172     0.39251
      H   33    0.08171      0.00000     0.41655    0.00174     0.41829
      H   34    0.08117      0.00000     0.41734    0.00149     0.41883
      H   35    0.07582      0.00000     0.42197    0.00220     0.42418
      H   36    0.09931      0.00000     0.39968    0.00101     0.40069
      H   37    0.10112      0.00000     0.39772    0.00116     0.39888
      H   38    0.10100      0.00000     0.39790    0.00110     0.39900
      H   39    0.09890      0.00000     0.40013    0.00097     0.40110
      H   40    0.09936      0.00000     0.39949    0.00114     0.40064
      H   41    0.10306      0.00000     0.39573    0.00121     0.39694
      H   42    0.09733      0.00000     0.40179    0.00088     0.40267
      H   43    0.09765      0.00000     0.40145    0.00090     0.40235
      H   44    0.09545      0.00000     0.40334    0.00121     0.40455
 =======================================================================
   * Total *    0.00000     15.99377    46.81585    0.19038    63.00000

 Normal termination of Gaussian 16 at Fri Dec 11 00:59:25 2020.
