 Gaussian 16, Revision A.03,

 -----------------------------------------------------------
 # opt freq B3LYP/6-31G(d) empiricaldispersion=gd3bj scf=xqc
 -----------------------------------------------------------

 ------------------------------
 CID_10997515_JID_2978_neutraal
 ------------------------------
 Symbolic Z-matrix:
 Charge =  0 Multiplicity = 1

 SCF Done:  E(RB3LYP) =  -543.610820338     A.U. after   13 cycles
 SCF Done:  E(RB3LYP) =  -543.613739543     A.U. after   10 cycles
 SCF Done:  E(RB3LYP) =  -543.614030597     A.U. after   11 cycles
 SCF Done:  E(RB3LYP) =  -543.614076532     A.U. after   10 cycles
 SCF Done:  E(RB3LYP) =  -543.614100892     A.U. after    9 cycles
 SCF Done:  E(RB3LYP) =  -543.614108042     A.U. after    8 cycles
 SCF Done:  E(RB3LYP) =  -543.614111874     A.U. after    9 cycles
 SCF Done:  E(RB3LYP) =  -543.614113577     A.U. after    8 cycles
 SCF Done:  E(RB3LYP) =  -543.614115624     A.U. after    9 cycles
 SCF Done:  E(RB3LYP) =  -543.614116867     A.U. after    9 cycles
 SCF Done:  E(RB3LYP) =  -543.614117529     A.U. after    9 cycles
 SCF Done:  E(RB3LYP) =  -543.614117936     A.U. after    8 cycles
 SCF Done:  E(RB3LYP) =  -543.614118047     A.U. after    8 cycles
 Optimization completed.
    -- Stationary point found.
 Normal termination of Gaussian 16 at Wed Dec  9 18:32:48 2020.

 --------------------------------------------------------------------
 #N Geom=AllCheck Guess=TCheck SCRF=Check GenChk RB3LYP/6-31G(d) Freq
 --------------------------------------------------------------------

 Structure from the checkpoint file:  "JID_2978.chk"
 ------------------------------
 CID_10997515_JID_2978_neutraal
 ------------------------------
 Charge =  0 Multiplicity = 1

 SCF Done:  E(RB3LYP) =  -543.614118047     A.U. after    1 cycles

  Exact polarizability: 123.198   0.295 104.213  -1.668   1.550 101.043
 Approx polarizability: 153.743  -0.845 144.468  -0.182  -1.454 146.979

                      1                      2                      3
                      A                      A                      A
 Frequencies --      8.8758                84.8529                88.9414
 Red. masses --      3.2293                 3.3601                 2.6088
 Frc consts  --      0.0001                 0.0143                 0.0122
 IR Inten    --      0.0841                 0.4984                 0.3852

                      4                      5                      6
                      A                      A                      A
 Frequencies --    119.7988               179.7318               201.6941
 Red. masses --      2.1899                 1.8208                 2.0370
 Frc consts  --      0.0185                 0.0347                 0.0488
 IR Inten    --      1.5480                 1.3414                 0.6917

                      7                      8                      9
                      A                      A                      A
 Frequencies --    241.8289               246.8600               266.8585
 Red. masses --      1.3554                 2.5870                 1.2372
 Frc consts  --      0.0467                 0.0929                 0.0519
 IR Inten    --      0.2703                 1.8996                 1.7675

                     10                     11                     12
                      A                      A                      A
 Frequencies --    283.4085               288.4536               329.7386
 Red. masses --      1.5430                 1.5488                 2.4106
 Frc consts  --      0.0730                 0.0759                 0.1544
 IR Inten    --      0.2787                 0.3323                 4.0326

                     13                     14                     15
                      A                      A                      A
 Frequencies --    356.9426               375.7690               436.7893
 Red. masses --      2.1673                 2.0531                 3.3009
 Frc consts  --      0.1627                 0.1708                 0.3710
 IR Inten    --      0.1181                 3.7483                 6.0354

                     16                     17                     18
                      A                      A                      A
 Frequencies --    447.5885               469.0143               499.5166
 Red. masses --      2.3916                 3.0978                 3.0492
 Frc consts  --      0.2823                 0.4015                 0.4483
 IR Inten    --      1.2968                 4.4183                 0.2461

                     19                     20                     21
                      A                      A                      A
 Frequencies --    528.4820               597.2326               670.4464
 Red. masses --      2.2128                 3.0417                 3.2942
 Frc consts  --      0.3641                 0.6392                 0.8724
 IR Inten    --      2.1150                 7.6287                 2.5223

                     22                     23                     24
                      A                      A                      A
 Frequencies --    757.6363               794.3671               834.2931
 Red. masses --      2.6617                 1.2997                 3.5780
 Frc consts  --      0.9002                 0.4832                 1.4673
 IR Inten    --      2.2425                 5.4872                 4.9428

                     25                     26                     27
                      A                      A                      A
 Frequencies --    838.0879               875.6961               886.1908
 Red. masses --      1.5706                 1.9753                 2.7262
 Frc consts  --      0.6500                 0.8925                 1.2614
 IR Inten    --      2.8276                 2.2265                20.4402

                     28                     29                     30
                      A                      A                      A
 Frequencies --    901.7861               933.7818               937.7744
 Red. masses --      2.4767                 1.6651                 1.5426
 Frc consts  --      1.1867                 0.8554                 0.7993
 IR Inten    --      3.0663                 4.3783                 0.7326

                     31                     32                     33
                      A                      A                      A
 Frequencies --    973.0080              1015.2504              1017.0369
 Red. masses --      1.6677                 1.7686                 1.4829
 Frc consts  --      0.9303                 1.0741                 0.9037
 IR Inten    --     15.9348                18.6641                34.0331

                     34                     35                     36
                      A                      A                      A
 Frequencies --   1026.4600              1047.0800              1067.3663
 Red. masses --      1.8026                 2.8120                 1.6382
 Frc consts  --      1.1190                 1.8165                 1.0996
 IR Inten    --     42.9509               227.8584                15.7773

                     37                     38                     39
                      A                      A                      A
 Frequencies --   1071.9206              1089.3748              1099.2173
 Red. masses --      2.5631                 1.8020                 1.6157
 Frc consts  --      1.7352                 1.2599                 1.1502
 IR Inten    --      4.3549                 6.4252                23.9254

                     40                     41                     42
                      A                      A                      A
 Frequencies --   1135.4981              1167.5421              1215.1721
 Red. masses --      3.6520                 2.3870                 1.5721
 Frc consts  --      2.7743                 1.9171                 1.3678
 IR Inten    --     62.3011                63.6799                35.0112

                     43                     44                     45
                      A                      A                      A
 Frequencies --   1229.2447              1232.8889              1239.4619
 Red. masses --      1.9084                 2.0683                 1.8182
 Frc consts  --      1.6990                 1.8523                 1.6457
 IR Inten    --     29.1996                44.5831                 3.0752

                     46                     47                     48
                      A                      A                      A
 Frequencies --   1282.7909              1299.7777              1325.0799
 Red. masses --      2.2959                 1.2260                 1.1660
 Frc consts  --      2.2260                 1.2203                 1.2062
 IR Inten    --     26.6095                 9.7300                 4.5265

                     49                     50                     51
                      A                      A                      A
 Frequencies --   1342.3988              1368.4654              1391.0106
 Red. masses --      1.2935                 1.3346                 1.4716
 Frc consts  --      1.3733                 1.4726                 1.6776
 IR Inten    --     10.2489                 5.1296                 5.0355

                     52                     53                     54
                      A                      A                      A
 Frequencies --   1399.0629              1401.1522              1408.6899
 Red. masses --      1.5272                 1.4343                 1.2896
 Frc consts  --      1.7612                 1.6591                 1.5078
 IR Inten    --      3.7655                 2.4683                 4.2769

                     55                     56                     57
                      A                      A                      A
 Frequencies --   1413.8089              1428.3230              1435.4991
 Red. masses --      1.4052                 1.2793                 1.2606
 Frc consts  --      1.6549                 1.5378                 1.5305
 IR Inten    --     14.8120                12.8510                 5.4296

                     58                     59                     60
                      A                      A                      A
 Frequencies --   1438.9933              1448.6287              1502.5609
 Red. masses --      1.2909                 1.2367                 1.0967
 Frc consts  --      1.5749                 1.5291                 1.4588
 IR Inten    --      9.2963                13.2045                 1.8811

                     61                     62                     63
                      A                      A                      A
 Frequencies --   1505.0905              1511.9584              1512.8801
 Red. masses --      1.0752                 1.0826                 1.0501
 Frc consts  --      1.4351                 1.4581                 1.4161
 IR Inten    --      0.2903                 3.3630                 0.7292

                     64                     65                     66
                      A                      A                      A
 Frequencies --   1517.5930              1522.4314              1530.0655
 Red. masses --      1.0628                 1.0942                 1.0481
 Frc consts  --      1.4422                 1.4942                 1.4457
 IR Inten    --      1.7927                 2.9539                 3.4347

                     67                     68                     69
                      A                      A                      A
 Frequencies --   1533.9973              1537.0094              1539.7540
 Red. masses --      1.0644                 1.0822                 1.0586
 Frc consts  --      1.4758                 1.5063                 1.4787
 IR Inten    --      2.8412                11.9133                 7.0264

                     70                     71                     72
                      A                      A                      A
 Frequencies --   1547.1043              3037.4523              3040.5380
 Red. masses --      1.0547                 1.0676                 1.0606
 Frc consts  --      1.4874                 5.8031                 5.7769
 IR Inten    --      2.0372                23.8201                32.3969

                     73                     74                     75
                      A                      A                      A
 Frequencies --   3043.1369              3052.7026              3054.2257
 Red. masses --      1.0588                 1.0613                 1.0606
 Frc consts  --      5.7768                 5.8270                 5.8290
 IR Inten    --     19.9079                16.6395                28.4799

                     76                     77                     78
                      A                      A                      A
 Frequencies --   3055.7509              3057.5357              3062.2573
 Red. masses --      1.0410                 1.0373                 1.0400
 Frc consts  --      5.7269                 5.7136                 5.7461
 IR Inten    --      5.2955                38.0279                11.9800

                     79                     80                     81
                      A                      A                      A
 Frequencies --   3079.6475              3081.2706              3086.6091
 Red. masses --      1.1024                 1.0991                 1.0854
 Frc consts  --      6.1599                 6.1481                 6.0927
 IR Inten    --      9.8985                60.4876                29.0872

                     82                     83                     84
                      A                      A                      A
 Frequencies --   3095.3321              3107.1403              3113.5635
 Red. masses --      1.1012                 1.1034                 1.1005
 Frc consts  --      6.2161                 6.2763                 6.2856
 IR Inten    --     52.8028                35.9399                56.5369

                     85                     86                     87
                      A                      A                      A
 Frequencies --   3116.2777              3121.6593              3125.0227
 Red. masses --      1.1021                 1.1005                 1.1012
 Frc consts  --      6.3056                 6.3187                 6.3361
 IR Inten    --     40.2461                24.9907                45.5344

                     88                     89                     90
                      A                      A                      A
 Frequencies --   3139.7656              3141.5713              3155.9499
 Red. masses --      1.1017                 1.1021                 1.1003
 Frc consts  --      6.3991                 6.4089                 6.4571
 IR Inten    --     37.5516                22.0256                20.2462

 - Thermochemistry -
 -------------------
 Temperature   298.150 Kelvin.  Pressure   1.00000 Atm.
 Atom     1 has atomic number  6 and mass  12.00000

 Molecular mass:   172.14633 amu.
 Principal axes and moments of inertia in atomic units:
                           1         2         3
     Eigenvalues --  1202.812252923.764883239.69795
           X            0.99997   0.00620  -0.00523
           Y           -0.00611   0.99985   0.01636
           Z            0.00533  -0.01633   0.99985
 This molecule is an asymmetric top.
 Rotational symmetry number  1.
 Warning -- assumption of classical behavior for rotation
           may cause significant error
 Rotational temperatures (Kelvin)      0.07201     0.02962     0.02674
 Rotational constants (GHZ):           1.50043     0.61727     0.55707
 Zero-point vibrational energy     771713.9 (Joules/Mol)
                                  184.44406 (Kcal/Mol)
 Warning -- explicit consideration of  20 degrees of freedom as
           vibrations may cause significant error
 Vibrational temperatures:     12.77   122.08   127.97   172.36   258.59
          (Kelvin)            290.19   347.94   355.18   383.95   407.76
                              415.02   474.42   513.56   540.65   628.44
                              643.98   674.81   718.69   760.37   859.28
                              964.62  1090.07  1142.92  1200.36  1205.82
                             1259.93  1275.03  1297.47  1343.50  1349.25
                             1399.94  1460.72  1463.29  1476.85  1506.51
                             1535.70  1542.25  1567.37  1581.53  1633.73
                             1679.83  1748.36  1768.61  1773.85  1783.31
                             1845.65  1870.09  1906.49  1931.41  1968.92
                             2001.35  2012.94  2015.95  2026.79  2034.16
                             2055.04  2065.36  2070.39  2084.25  2161.85
                             2165.49  2175.37  2176.70  2183.48  2190.44
                             2201.42  2207.08  2211.41  2215.36  2225.94
                             4370.22  4374.66  4378.40  4392.16  4394.35
                             4396.54  4399.11  4405.91  4430.93  4433.26
                             4440.94  4453.49  4470.48  4479.72  4483.63
                             4491.37  4496.21  4517.42  4520.02  4540.71

 Zero-point correction=                           0.293930 (Hartree/Particle)
 Thermal correction to Energy=                    0.307077
 Thermal correction to Enthalpy=                  0.308021
 Thermal correction to Gibbs Free Energy=         0.253718
 Sum of electronic and zero-point Energies=           -543.320188
 Sum of electronic and thermal Energies=              -543.307041
 Sum of electronic and thermal Enthalpies=            -543.306097
 Sum of electronic and thermal Free Energies=         -543.360400

                     E (Thermal)             CV                S
                      KCal/Mol        Cal/Mol-Kelvin    Cal/Mol-Kelvin
 Total                  192.694             50.902            114.291
 Electronic               0.000              0.000              0.000
 Translational            0.889              2.981             41.337
 Rotational               0.889              2.981             30.811
 Vibrational            190.916             44.940             42.142
 Vibration     1          0.593              1.987              8.248
 Vibration     2          0.601              1.960              3.775
 Vibration     3          0.602              1.957              3.683
 Vibration     4          0.609              1.933              3.104
 Vibration     5          0.629              1.867              2.331
 Vibration     6          0.639              1.837              2.118
 Vibration     7          0.658              1.776              1.789
 Vibration     8          0.661              1.768              1.753
 Vibration     9          0.672              1.734              1.616
 Vibration    10          0.682              1.704              1.513
 Vibration    11          0.685              1.695              1.483
 Vibration    12          0.713              1.616              1.261
 Vibration    13          0.732              1.561              1.135
 Vibration    14          0.747              1.522              1.056
 Vibration    15          0.797              1.390              0.837
 Vibration    16          0.807              1.366              0.803
 Vibration    17          0.826              1.319              0.740
 Vibration    18          0.855              1.251              0.659
 Vibration    19          0.883              1.187              0.591
 Vibration    20          0.955              1.038              0.454

                           ! Non-Optimized Parameters !
 Normal termination of Gaussian 16 at Wed Dec  9 18:41:47 2020.

 ----------------------------------------------------------------------
 # B3LYP/6-311++G(d,p) empiricaldispersion=gd3bj scf=xqc pop=npa geom=c
 heck
 ----------------------------------------------------------------------

 --------------------------------------
 CID_10997515_JID_2978_Energie_neutraal
 --------------------------------------
 Structure from the checkpoint file:  "JID_2978.chk"
 Charge =  0 Multiplicity = 1

 SCF Done:  E(RB3LYP) =  -543.767948020     A.U. after   12 cycles
 Normal termination of Gaussian 16 at Wed Dec  9 18:45:23 2020.

 ----------------------------------------------------------------------
 # B3LYP/6-311++G(d,p) empiricaldispersion=gd3bj scf=xqc pop=npa geom=c
 heck
 ----------------------------------------------------------------------

 ------------------------------------
 CID_10997515_JID_2978_Energie_kation
 ------------------------------------
 Structure from the checkpoint file:  "JID_2978.chk"
 Charge =  1 Multiplicity = 2

 SCF Done:  E(UB3LYP) =  -543.434777831     A.U. after   25 cycles
 Normal termination of Gaussian 16 at Wed Dec  9 18:55:47 2020.
 Gaussian 16:  ES64L-G16RevA.03 25-Dec-2016

 ----------------------------------------------------------------------
 # B3LYP/6-311++G(d,p) empiricaldispersion=gd3bj scf=xqc pop=npa geom=c
 heck
 ----------------------------------------------------------------------

 -----------------------------------
 CID_10997515_JID_2978_Energie_anion
 -----------------------------------
 Structure from the checkpoint file:  "JID_2978.chk"
 Charge = -1 Multiplicity = 2

                         Standard orientation:
 ---------------------------------------------------------------------
 Center     Atomic      Atomic             Coordinates (Angstroms)
 Number     Number       Type             X           Y           Z
 ---------------------------------------------------------------------
      1          6           0       -2.671698    1.826731   -0.636754
      2          6           0       -2.419446    0.363821   -1.007407
      3          6           0       -1.595908   -0.437190    0.018284
      4          6           0       -2.268385   -0.434689    1.398905
      5          6           0       -1.411913   -1.874322   -0.484530
      6          8           0       -0.335590    0.274504    0.064883
      7          6           0        0.695159   -0.182584    0.907017
      8          6           0        1.618411    1.009455    1.168614
      9          6           0        2.357718    1.415008   -0.112642
     10          6           0        3.064698    0.190296   -0.708580
     11          6           0        2.069281   -0.955564   -0.880723
     12          8           0        1.414922   -1.273860    0.351362
     13          1           0       -3.311813    1.919630    0.247337
     14          1           0       -3.169859    2.351315   -1.459399
     15          1           0       -1.726761    2.335817   -0.427215
     16          1           0       -3.373592   -0.156698   -1.160560
     17          1           0       -1.878885    0.319490   -1.961061
     18          1           0       -3.307746   -0.768828    1.309353
     19          1           0       -1.768150   -1.114344    2.095998
     20          1           0       -2.264631    0.568946    1.833305
     21          1           0       -0.934565   -1.876216   -1.469562
     22          1           0       -0.786737   -2.459198    0.193250
     23          1           0       -2.388019   -2.365132   -0.573395
     24          1           0        0.292708   -0.580079    1.844061
     25          1           0        2.342006    0.709773    1.936956
     26          1           0        1.025736    1.838725    1.568838
     27          1           0        1.633916    1.810112   -0.835502
     28          1           0        3.076484    2.215357    0.098361
     29          1           0        3.522243    0.429710   -1.676845
     30          1           0        3.869787   -0.135708   -0.036591
     31          1           0        1.319507   -0.694465   -1.639775
     32          1           0        2.566216   -1.879139   -1.190612
 ---------------------------------------------------------------------

 SCF Done:  E(UB3LYP) =  -543.750600971     A.U. after   28 cycles

 The electronic state is 2-A.
 Alpha  occ. eigenvalues --  -19.01937 -19.01823 -10.16081 -10.12761 -10.10876
 Alpha  occ. eigenvalues --  -10.06416 -10.06406 -10.06368 -10.06151 -10.05580
 Alpha  occ. eigenvalues --  -10.05237 -10.05218  -0.96294  -0.90395  -0.71162
 Alpha  occ. eigenvalues --   -0.69338  -0.65146  -0.63231  -0.58976  -0.54742
 Alpha  occ. eigenvalues --   -0.53939  -0.52062  -0.47852  -0.43198  -0.40774
 Alpha  occ. eigenvalues --   -0.39161  -0.36827  -0.36143  -0.34619  -0.33780
 Alpha  occ. eigenvalues --   -0.32786  -0.31928  -0.31450  -0.29697  -0.29073
 Alpha  occ. eigenvalues --   -0.28357  -0.27920  -0.27211  -0.26082  -0.25249
 Alpha  occ. eigenvalues --   -0.24130  -0.23918  -0.23061  -0.22639  -0.21976
 Alpha  occ. eigenvalues --   -0.18712  -0.16836  -0.15935   0.04628
 Alpha virt. eigenvalues --    0.06520   0.07486   0.07617   0.08603   0.09087
 Alpha virt. eigenvalues --    0.09192   0.09907   0.10620   0.11310   0.11682
 Alpha virt. eigenvalues --    0.11928   0.12185   0.12569   0.13737   0.14135

  Beta  occ. eigenvalues --  -19.01935 -19.01815 -10.16073 -10.12757 -10.10861
  Beta  occ. eigenvalues --  -10.06395 -10.06390 -10.06351 -10.06132 -10.05541
  Beta  occ. eigenvalues --  -10.05218 -10.05194  -0.96283  -0.90385  -0.71137
  Beta  occ. eigenvalues --   -0.69305  -0.65113  -0.63194  -0.58921  -0.54703
  Beta  occ. eigenvalues --   -0.53897  -0.52006  -0.47802  -0.43148  -0.40734
  Beta  occ. eigenvalues --   -0.39129  -0.36796  -0.36105  -0.34592  -0.33749
  Beta  occ. eigenvalues --   -0.32764  -0.31895  -0.31419  -0.29669  -0.29036
  Beta  occ. eigenvalues --   -0.28319  -0.27887  -0.27181  -0.26048  -0.25218
  Beta  occ. eigenvalues --   -0.24095  -0.23888  -0.23031  -0.22609  -0.21947
  Beta  occ. eigenvalues --   -0.18690  -0.16821  -0.15915
  Beta virt. eigenvalues --    0.06755   0.07587   0.08099   0.08154   0.09300
  Beta virt. eigenvalues --    0.09548   0.09712   0.10298   0.10898   0.11901
  Beta virt. eigenvalues --    0.12046   0.12319   0.12474   0.12880   0.14049

 Mulliken charges and spin densities:
               1          2
     1  C    0.669242  -1.243009
     2  C   -0.968339   0.949706
     3  C   -1.065737   1.013845
     4  C    1.840329  -2.376286
     5  C   -0.187123  -0.355027
     6  O    0.092060   0.037250
     7  C   -0.457813   0.048017
     8  C    1.313623  -1.644649
     9  C   -0.737573   0.587224
    10  C    1.018336  -1.497795
    11  C   -0.195832   0.116509
    12  O   -0.099794   0.059755
    13  H   -0.202044   0.335902
    14  H   -0.233468   0.374629
    15  H    0.032727   0.127016
    16  H   -0.035830   0.174655
    17  H   -0.107755   0.251220
    18  H   -0.437326   0.609540
    19  H   -0.130109   0.279982
    20  H    0.018785   0.135742
    21  H   -0.009413   0.143804
    22  H   -0.032907   0.234306
    23  H   -0.367418   0.523045
    24  H    0.124201   0.050488
    25  H   -0.170405   0.312702
    26  H    0.032496   0.131316
    27  H    0.177111  -0.034101
    28  H   -0.411463   0.580991
    29  H   -0.618726   0.774188
    30  H    0.101499   0.042729
    31  H    0.297246  -0.167180
    32  H   -0.248583   0.423486
 Sum of Mulliken charges =  -1.00000   1.00000

 Dipole moment (field-independent basis, Debye):
    X=              1.0521    Y=             -0.4307    Z=              0.1337  Tot=              1.1447
 Quadrupole moment (field-independent basis, Debye-Ang):
   XX=           -153.5957   YY=           -118.1207   ZZ=           -112.4549
   XY=             -4.7085   XZ=              6.0419   YZ=              1.3368

 Summary of Natural Population Analysis:

                                       Natural Population
                Natural  -----------------------------------------------
    Atom  No    Charge         Core      Valence    Rydberg      Total
 -----------------------------------------------------------------------
      C    1   -0.28589      0.99966     2.28165    0.00458     3.28589
      C    2   -0.19247      0.99957     2.18297    0.00993     3.19247
      C    3    0.13886      0.99952     1.84601    0.01561     2.86114
      C    4   -0.30388      0.99960     2.29726    0.00701     3.30388
      C    5   -0.29838      0.99960     2.29166    0.00711     3.29838
      O    6   -0.32294      0.99986     3.31204    0.01104     4.32294
      C    7    0.22013      0.99955     1.76126    0.01906     2.77987
      C    8   -0.20297      0.99960     2.19421    0.00916     3.20297
      C    9   -0.19231      0.99963     2.18419    0.00850     3.19231
      C   10   -0.20261      0.99963     2.19485    0.00813     3.20261
      C   11   -0.01313      0.99956     2.00081    0.01276     3.01313
      O   12   -0.30907      0.99989     3.30059    0.00860     4.30907
      H   13    0.09597      0.00000     0.40284    0.00119     0.40403
      H   14    0.09699      0.00000     0.40207    0.00094     0.40301
      H   15    0.10366      0.00000     0.39487    0.00147     0.39634
      H   16    0.09778      0.00000     0.40090    0.00132     0.40222
      H   17    0.09839      0.00000     0.40030    0.00131     0.40161
      H   18    0.10650      0.00000     0.39191    0.00159     0.39350
      H   19    0.10019      0.00000     0.39860    0.00121     0.39981
      H   20    0.10464      0.00000     0.39413    0.00123     0.39536
      H   21    0.10122      0.00000     0.39770    0.00107     0.39878
      H   22    0.10772      0.00000     0.39105    0.00123     0.39228
      H   23    0.10068      0.00000     0.39815    0.00117     0.39932
      H   24    0.08131      0.00000     0.41653    0.00215     0.41869
      H   25    0.09774      0.00000     0.40109    0.00117     0.40226
      H   26    0.10421      0.00000     0.39470    0.00108     0.39579
      H   27    0.10010      0.00000     0.39830    0.00160     0.39990
      H   28    0.09928      0.00000     0.39934    0.00138     0.40072
      H   29    0.10101      0.00000     0.39745    0.00154     0.39899
      H   30    0.09428      0.00000     0.40434    0.00139     0.40572
      H   31    0.08328      0.00000     0.41506    0.00166     0.41672
      H   32    0.08970      0.00000     0.40910    0.00119     0.41030
 =======================================================================
   * Total *   -0.00000     11.99568    35.85594    0.14838    48.00000

 Normal termination of Gaussian 16 at Wed Dec  9 19:07:20 2020.
