 Gaussian 16, Revision A.03,

 -----------------------------------------------------------
 # opt freq B3LYP/6-31G(d) empiricaldispersion=gd3bj scf=xqc
 -----------------------------------------------------------

 ------------------------------
 CID_63632930_JID_3300_neutraal
 ------------------------------
 Symbolic Z-matrix:
 Charge =  0 Multiplicity = 1

 SCF Done:  E(RB3LYP) =  -561.752908087     A.U. after   12 cycles
 SCF Done:  E(RB3LYP) =  -561.757342991     A.U. after   11 cycles
 SCF Done:  E(RB3LYP) =  -561.756005500     A.U. after   11 cycles
 SCF Done:  E(RB3LYP) =  -561.758357850     A.U. after   11 cycles
 SCF Done:  E(RB3LYP) =  -561.758967256     A.U. after   11 cycles
 SCF Done:  E(RB3LYP) =  -561.759962951     A.U. after   11 cycles
 SCF Done:  E(RB3LYP) =  -561.760178069     A.U. after   10 cycles
 SCF Done:  E(RB3LYP) =  -561.760258604     A.U. after   10 cycles
 SCF Done:  E(RB3LYP) =  -561.760310275     A.U. after    9 cycles
 SCF Done:  E(RB3LYP) =  -561.760325772     A.U. after    9 cycles
 SCF Done:  E(RB3LYP) =  -561.760330853     A.U. after    9 cycles
 SCF Done:  E(RB3LYP) =  -561.760332392     A.U. after    7 cycles
 SCF Done:  E(RB3LYP) =  -561.760332658     A.U. after    7 cycles
 SCF Done:  E(RB3LYP) =  -561.760332795     A.U. after    7 cycles
 SCF Done:  E(RB3LYP) =  -561.760332820     A.U. after    6 cycles
 Optimization completed.
    -- Stationary point found.
 Normal termination of Gaussian 16 at Wed Dec  9 22:54:18 2020.

 --------------------------------------------------------------------
 #N Geom=AllCheck Guess=TCheck SCRF=Check GenChk RB3LYP/6-31G(d) Freq
 --------------------------------------------------------------------

 Structure from the checkpoint file:  "JID_3300.chk"
 ------------------------------
 CID_63632930_JID_3300_neutraal
 ------------------------------
 Charge =  0 Multiplicity = 1

 SCF Done:  E(RB3LYP) =  -561.760332820     A.U. after    1 cycles

  Exact polarizability: 131.501   1.280 126.574   0.665   0.543 105.982
 Approx polarizability: 171.524   0.241 168.768  -0.746   4.031 161.150

                      1                      2                      3
                      A                      A                      A
 Frequencies --     37.8965                48.5940                70.7240
 Red. masses --      3.0921                 3.0172                 3.0018
 Frc consts  --      0.0026                 0.0042                 0.0088
 IR Inten    --      0.2475                 0.1888                 0.7007

                      4                      5                      6
                      A                      A                      A
 Frequencies --     87.7979               107.4458               136.3741
 Red. masses --      3.1601                 2.1075                 2.3105
 Frc consts  --      0.0144                 0.0143                 0.0253
 IR Inten    --      0.0422                 0.5297                 0.4235

                      7                      8                      9
                      A                      A                      A
 Frequencies --    172.4825               180.9077               225.9259
 Red. masses --      3.2255                 2.6857                 3.5444
 Frc consts  --      0.0565                 0.0518                 0.1066
 IR Inten    --      1.3899                 0.1067                 0.6533

                     10                     11                     12
                      A                      A                      A
 Frequencies --    243.7826               255.8919               299.1838
 Red. masses --      1.9489                 1.8269                 2.4730
 Frc consts  --      0.0682                 0.0705                 0.1304
 IR Inten    --      1.2630                 1.4495                 0.1599

                     13                     14                     15
                      A                      A                      A
 Frequencies --    308.4210               335.7962               345.1307
 Red. masses --      1.5416                 1.6445                 2.0364
 Frc consts  --      0.0864                 0.1093                 0.1429
 IR Inten    --     19.8825                56.8821                19.0725

                     16                     17                     18
                      A                      A                      A
 Frequencies --    416.5849               429.7797               455.2202
 Red. masses --      2.2918                 2.4414                 3.1335
 Frc consts  --      0.2343                 0.2657                 0.3826
 IR Inten    --     11.4586                 1.6368                10.9432

                     19                     20                     21
                      A                      A                      A
 Frequencies --    476.9379               508.2288               640.6556
 Red. masses --      2.7725                 2.9896                 2.2048
 Frc consts  --      0.3716                 0.4550                 0.5332
 IR Inten    --      1.6386                 1.3701                 4.3454

                     22                     23                     24
                      A                      A                      A
 Frequencies --    758.6377               784.4831               799.8211
 Red. masses --      2.3254                 1.1011                 1.5609
 Frc consts  --      0.7885                 0.3993                 0.5883
 IR Inten    --      6.7188                 0.5411                 8.5691

                     25                     26                     27
                      A                      A                      A
 Frequencies --    815.3357               821.8899               836.1306
 Red. masses --      1.1765                 1.8054                 1.4205
 Frc consts  --      0.4608                 0.7185                 0.5851
 IR Inten    --      2.3119                 3.9583                 6.0427

                     28                     29                     30
                      A                      A                      A
 Frequencies --    846.2025               854.3610               909.9228
 Red. masses --      1.4631                 1.7329                 1.9429
 Frc consts  --      0.6173                 0.7453                 0.9478
 IR Inten    --     14.4273                 6.5375                10.0840

                     31                     32                     33
                      A                      A                      A
 Frequencies --    932.2014               949.5747               952.2316
 Red. masses --      3.0650                 1.9696                 2.7052
 Frc consts  --      1.5693                 1.0463                 1.4452
 IR Inten    --     20.7745                 7.0017                 1.2482

                     34                     35                     36
                      A                      A                      A
 Frequencies --    978.9270              1001.9083              1020.2852
 Red. masses --      2.2054                 1.9536                 2.2625
 Frc consts  --      1.2452                 1.1554                 1.3877
 IR Inten    --      2.6436                 6.2863                19.9235

                     37                     38                     39
                      A                      A                      A
 Frequencies --   1046.3756              1062.9959              1064.2144
 Red. masses --      1.7255                 1.9404                 1.4301
 Frc consts  --      1.1131                 1.2918                 0.9543
 IR Inten    --     12.8738                11.7844                40.1595

                     40                     41                     42
                      A                      A                      A
 Frequencies --   1065.0580              1079.7471              1092.9728
 Red. masses --      1.8494                 1.3593                 1.5138
 Frc consts  --      1.2361                 0.9337                 1.0654
 IR Inten    --     43.9669                 2.6900                10.2698

                     43                     44                     45
                      A                      A                      A
 Frequencies --   1099.4671              1128.3903              1142.6246
 Red. masses --      1.6522                 2.2839                 1.1197
 Frc consts  --      1.1768                 1.7134                 0.8613
 IR Inten    --     20.2665                47.6204                 0.5379

                     46                     47                     48
                      A                      A                      A
 Frequencies --   1149.6105              1154.2162              1177.1647
 Red. masses --      1.2513                 1.7340                 1.8926
 Frc consts  --      0.9743                 1.3610                 1.5452
 IR Inten    --      2.4954                 9.2717                11.6137

                     49                     50                     51
                      A                      A                      A
 Frequencies --   1198.8440              1209.7969              1214.3707
 Red. masses --      2.2560                 1.4447                 1.3734
 Frc consts  --      1.9104                 1.2458                 1.1933
 IR Inten    --      4.8174                 0.8829                 1.1909

                     52                     53                     54
                      A                      A                      A
 Frequencies --   1222.9698              1243.5310              1255.9348
 Red. masses --      2.1829                 1.8730                 1.8551
 Frc consts  --      1.9236                 1.7065                 1.7241
 IR Inten    --      5.9871                 7.5745                 2.4629

                     55                     56                     57
                      A                      A                      A
 Frequencies --   1286.1469              1299.4969              1329.3862
 Red. masses --      1.3555                 1.3780                 1.2505
 Frc consts  --      1.3211                 1.3710                 1.3021
 IR Inten    --      8.9262                14.1408                10.3032

                     58                     59                     60
                      A                      A                      A
 Frequencies --   1343.0202              1369.7082              1390.3980
 Red. masses --      1.2259                 1.3772                 1.4462
 Frc consts  --      1.3028                 1.5224                 1.6472
 IR Inten    --     17.4791                 2.9558                26.6447

                     61                     62                     63
                      A                      A                      A
 Frequencies --   1407.2151              1415.7925              1436.5372
 Red. masses --      1.3778                 1.4995                 1.2975
 Frc consts  --      1.6075                 1.7709                 1.5776
 IR Inten    --     21.6397                10.9095                 5.9389

                     64                     65                     66
                      A                      A                      A
 Frequencies --   1441.8143              1454.0280              1459.8992
 Red. masses --      1.2912                 1.4864                 1.2504
 Frc consts  --      1.5814                 1.8515                 1.5702
 IR Inten    --     13.1549                 5.6726                34.0935

                     67                     68                     69
                      A                      A                      A
 Frequencies --   1480.8087              1498.0538              1510.4541
 Red. masses --      1.0964                 1.0892                 1.0851
 Frc consts  --      1.4165                 1.4402                 1.4586
 IR Inten    --      2.0220                 0.9810                 0.5991

                     70                     71                     72
                      A                      A                      A
 Frequencies --   1514.4537              1522.4849              1529.9609
 Red. masses --      1.1130                 1.1250                 1.0726
 Frc consts  --      1.5040                 1.5364                 1.4793
 IR Inten    --      4.7272                 3.1672                 4.0710

                     73                     74                     75
                      A                      A                      A
 Frequencies --   1531.6961              1539.7028              1545.6566
 Red. masses --      1.3293                 1.3143                 1.0573
 Frc consts  --      1.8375                 1.8358                 1.4882
 IR Inten    --     15.2269                 0.7777                 2.6159

                     76                     77                     78
                      A                      A                      A
 Frequencies --   2940.7717              2956.5342              3041.2372
 Red. masses --      1.0740                 1.0737                 1.0794
 Frc consts  --      5.4722                 5.5295                 5.8821
 IR Inten    --     53.9523                84.7819                23.5049

                     79                     80                     81
                      A                      A                      A
 Frequencies --   3045.9697              3047.3499              3059.4942
 Red. masses --      1.0457                 1.0852                 1.0605
 Frc consts  --      5.7165                 5.9374                 5.8489
 IR Inten    --     44.2418                47.6366                24.8116

                     82                     83                     84
                      A                      A                      A
 Frequencies --   3096.3956              3098.9369              3109.8058
 Red. masses --      1.0997                 1.0867                 1.0996
 Frc consts  --      6.2120                 6.1486                 6.2655
 IR Inten    --     17.9123                12.6080                40.1872

                     85                     86                     87
                      A                      A                      A
 Frequencies --   3114.4868              3136.2975              3143.6896
 Red. masses --      1.0883                 1.0997                 1.0522
 Frc consts  --      6.2200                 6.3730                 6.1268
 IR Inten    --     38.2484                39.4813                21.9086

                     88                     89                     90
                      A                      A                      A
 Frequencies --   3145.6624              3149.3800              3155.6749
 Red. masses --      1.0540                 1.0576                 1.0565
 Frc consts  --      6.1450                 6.1803                 6.1986
 IR Inten    --     12.8242                13.3727                 8.2196

                     91                     92                     93
                      A                      A                      A
 Frequencies --   3159.0396              3217.9167              3231.0397
 Red. masses --      1.0890                 1.1192                 1.1185
 Frc consts  --      6.4030                 6.8285                 6.8795
 IR Inten    --     18.6525                 1.2593                 0.5965

                     94                     95                     96
                      A                      A                      A
 Frequencies --   3232.5739              3243.7826              3759.3408
 Red. masses --      1.1158                 1.1159                 1.0647
 Frc consts  --      6.8696                 6.9178                 8.8658
 IR Inten    --     26.1869                17.5580                75.3376

 - Thermochemistry -
 -------------------
 Temperature   298.150 Kelvin.  Pressure   1.00000 Atm.
 Atom     1 has atomic number  6 and mass  12.00000

 Molecular mass:   183.16231 amu.
 Principal axes and moments of inertia in atomic units:
                           1         2         3
     Eigenvalues --  1953.317942974.858174081.47976
           X            0.99996   0.00465   0.00709
           Y           -0.00460   0.99996  -0.00710
           Z           -0.00712   0.00707   0.99995
 This molecule is an asymmetric top.
 Rotational symmetry number  1.
 Warning -- assumption of classical behavior for rotation
           may cause significant error
 Rotational temperatures (Kelvin)      0.04434     0.02912     0.02122
 Rotational constants (GHZ):           0.92394     0.60666     0.44218
 Zero-point vibrational energy     813736.1 (Joules/Mol)
                                  194.48760 (Kcal/Mol)
 Warning -- explicit consideration of  20 degrees of freedom as
           vibrations may cause significant error
 Vibrational temperatures:     54.52    69.92   101.76   126.32   154.59
          (Kelvin)            196.21   248.16   260.29   325.06   350.75
                              368.17   430.46   443.75   483.14   496.57
                              599.37   618.36   654.96   686.21   731.23
                              921.76  1091.51  1128.70  1150.76  1173.09
                             1182.52  1203.01  1217.50  1229.23  1309.18
                             1341.23  1366.23  1370.05  1408.46  1441.52
                             1467.96  1505.50  1529.41  1531.17  1532.38
                             1553.52  1572.54  1581.89  1623.50  1643.98
                             1654.03  1660.66  1693.68  1724.87  1740.63
                             1747.21  1759.58  1789.16  1807.01  1850.48
                             1869.69  1912.69  1932.31  1970.70  2000.47
                             2024.67  2037.01  2066.86  2074.45  2092.02
                             2100.47  2130.55  2155.37  2173.21  2178.96
                             2190.52  2201.27  2203.77  2215.29  2223.86
                             4231.11  4253.79  4375.66  4382.47  4384.46
                             4401.93  4455.02  4458.68  4474.32  4481.05
                             4512.43  4523.07  4525.91  4531.26  4540.31
                             4545.15  4629.86  4648.75  4650.95  4667.08
                             5408.85

 Zero-point correction=                           0.309936 (Hartree/Particle)
 Thermal correction to Energy=                    0.324528
 Thermal correction to Enthalpy=                  0.325472
 Thermal correction to Gibbs Free Energy=         0.268192
 Sum of electronic and zero-point Energies=           -561.450397
 Sum of electronic and thermal Energies=              -561.435805
 Sum of electronic and thermal Enthalpies=            -561.434861
 Sum of electronic and thermal Free Energies=         -561.492141

                     E (Thermal)             CV                S
                      KCal/Mol        Cal/Mol-Kelvin    Cal/Mol-Kelvin
 Total                  203.644             55.396            120.555
 Electronic               0.000              0.000              0.000
 Translational            0.889              2.981             41.522
 Rotational               0.889              2.981             31.540
 Vibrational            201.867             49.434             47.494
 Vibration     1          0.594              1.982              5.366
 Vibration     2          0.595              1.978              4.874
 Vibration     3          0.598              1.968              4.133
 Vibration     4          0.601              1.958              3.709
 Vibration     5          0.606              1.943              3.315
 Vibration     6          0.614              1.917              2.854
 Vibration     7          0.626              1.876              2.408
 Vibration     8          0.630              1.866              2.319
 Vibration     9          0.650              1.802              1.911
 Vibration    10          0.659              1.773              1.775
 Vibration    11          0.666              1.753              1.690
 Vibration    12          0.692              1.675              1.421
 Vibration    13          0.698              1.658              1.371
 Vibration    14          0.717              1.604              1.232
 Vibration    15          0.724              1.585              1.188
 Vibration    16          0.780              1.434              0.904
 Vibration    17          0.791              1.405              0.859
 Vibration    18          0.814              1.349              0.780
 Vibration    19          0.834              1.301              0.718
 Vibration    20          0.863              1.232              0.638

 Optimization completed.
    -- Stationary point found.
 Normal termination of Gaussian 16 at Wed Dec  9 23:04:54 2020.

 ----------------------------------------------------------------------
 # B3LYP/6-311++G(d,p) empiricaldispersion=gd3bj scf=xqc pop=npa geom=c
 heck
 ----------------------------------------------------------------------

 --------------------------------------
 CID_63632930_JID_3300_Energie_neutraal
 --------------------------------------
 Structure from the checkpoint file:  "JID_3300.chk"
 Charge =  0 Multiplicity = 1

 SCF Done:  E(RB3LYP) =  -561.926406179     A.U. after   13 cycles
 Normal termination of Gaussian 16 at Wed Dec  9 23:09:31 2020.

 ----------------------------------------------------------------------
 # B3LYP/6-311++G(d,p) empiricaldispersion=gd3bj scf=xqc pop=npa geom=c
 heck
 ----------------------------------------------------------------------

 ------------------------------------
 CID_63632930_JID_3300_Energie_kation
 ------------------------------------
 Structure from the checkpoint file:  "JID_3300.chk"
 Charge =  1 Multiplicity = 2

 SCF Done:  E(UB3LYP) =  -561.628101018     A.U. after   20 cycles
 Normal termination of Gaussian 16 at Wed Dec  9 23:19:25 2020.
 Gaussian 16:  ES64L-G16RevA.03 25-Dec-2016

 ----------------------------------------------------------------------
 # B3LYP/6-311++G(d,p) empiricaldispersion=gd3bj scf=xqc pop=npa geom=c
 heck
 ----------------------------------------------------------------------

 -----------------------------------
 CID_63632930_JID_3300_Energie_anion
 -----------------------------------
 Structure from the checkpoint file:  "JID_3300.chk"
 Charge = -1 Multiplicity = 2

                         Standard orientation:
 ---------------------------------------------------------------------
 Center     Atomic      Atomic             Coordinates (Angstroms)
 Number     Number       Type             X           Y           Z
 ---------------------------------------------------------------------
      1          6           0        0.565091   -2.774385    0.824446
      2          6           0        1.643597   -1.688455    0.789617
      3          6           0        1.872110   -1.088149   -0.603152
      4          6           0        0.623084   -0.428391   -1.204446
      5          7           0       -0.065641    0.544412   -0.345256
      6          6           0       -1.448961    0.762672   -0.803004
      7          6           0       -2.363909   -0.415051   -0.542323
      8          6           0       -2.773117   -0.715296    0.875931
      9          6           0       -3.782545   -0.153325   -0.093749
     10          6           0        0.646221    1.794216   -0.235709
     11          6           0        0.222254    2.761081    0.831815
     12          6           0        1.550870    2.058505    0.954950
     13          8           0        3.012133   -0.230507   -0.626879
     14          1           0       -0.424065   -2.355816    0.615755
     15          1           0        0.522432   -3.251137    1.809884
     16          1           0        0.767008   -3.560390    0.085450
     17          1           0        1.365842   -0.887427    1.483738
     18          1           0        2.604157   -2.094150    1.128290
     19          1           0        2.139903   -1.904636   -1.287156
     20          1           0        0.911038    0.027187   -2.170266
     21          1           0       -0.089688   -1.225653   -1.429996
     22          1           0       -1.835728    1.627341   -0.256216
     23          1           0       -1.480895    1.029676   -1.876782
     24          1           0       -2.232451   -1.273298   -1.197470
     25          1           0       -2.870809   -1.753015    1.181307
     26          1           0       -2.380817   -0.060890    1.649781
     27          1           0       -4.092154    0.881366    0.031157
     28          1           0       -4.568008   -0.808221   -0.459952
     29          1           0        0.975672    2.240589   -1.181955
     30          1           0        0.208831    3.820864    0.596282
     31          1           0       -0.561214    2.434880    1.509249
     32          1           0        1.621650    1.287735    1.715593
     33          1           0        2.458165    2.637543    0.799435
     34          1           0        2.795389    0.540098   -0.080568
 ---------------------------------------------------------------------

 SCF Done:  E(UB3LYP) =  -561.908606336     A.U. after   31 cycles

 The electronic state is 2-A.
 Alpha  occ. eigenvalues --  -19.02125 -14.21468 -10.12347 -10.11330 -10.09668
 Alpha  occ. eigenvalues --  -10.09572 -10.08577 -10.08099 -10.07742 -10.07172
 Alpha  occ. eigenvalues --  -10.06921 -10.06827 -10.06178  -0.92660  -0.84118
 Alpha  occ. eigenvalues --   -0.76476  -0.74768  -0.68821  -0.62662  -0.58885
 Alpha  occ. eigenvalues --   -0.55016  -0.52172  -0.50295  -0.49620  -0.48033
 Alpha  occ. eigenvalues --   -0.45964  -0.42306  -0.40077  -0.39606  -0.39355
 Alpha  occ. eigenvalues --   -0.38106  -0.35970  -0.34822  -0.33275  -0.32033
 Alpha  occ. eigenvalues --   -0.30476  -0.30220  -0.29537  -0.28160  -0.27934
 Alpha  occ. eigenvalues --   -0.26600  -0.25551  -0.25249  -0.24660  -0.23034
 Alpha  occ. eigenvalues --   -0.21350  -0.20785  -0.19327  -0.18883  -0.17808
 Alpha  occ. eigenvalues --   -0.13098   0.04619
 Alpha virt. eigenvalues --    0.06192   0.06990   0.07317   0.08277   0.08829
 Alpha virt. eigenvalues --    0.09066   0.09603   0.09758   0.10657   0.11645
 Alpha virt. eigenvalues --    0.11843   0.12077   0.12509   0.12848   0.13128

  Beta  occ. eigenvalues --  -19.02123 -14.21456 -10.12342 -10.11322 -10.09656
  Beta  occ. eigenvalues --  -10.09564 -10.08568 -10.08068 -10.07729 -10.07146
  Beta  occ. eigenvalues --  -10.06903 -10.06821 -10.06155  -0.92655  -0.84098
  Beta  occ. eigenvalues --   -0.76450  -0.74743  -0.68804  -0.62638  -0.58855
  Beta  occ. eigenvalues --   -0.54986  -0.52125  -0.50228  -0.49571  -0.47993
  Beta  occ. eigenvalues --   -0.45923  -0.42278  -0.40021  -0.39571  -0.39325
  Beta  occ. eigenvalues --   -0.38071  -0.35942  -0.34789  -0.33255  -0.32008
  Beta  occ. eigenvalues --   -0.30452  -0.30196  -0.29511  -0.28129  -0.27914
  Beta  occ. eigenvalues --   -0.26568  -0.25522  -0.25221  -0.24642  -0.23015
  Beta  occ. eigenvalues --   -0.21326  -0.20758  -0.19298  -0.18859  -0.17799
  Beta  occ. eigenvalues --   -0.13035
  Beta virt. eigenvalues --    0.06792   0.07280   0.07585   0.07747   0.08929
  Beta virt. eigenvalues --    0.09259   0.09463   0.09917   0.10054   0.11194
  Beta virt. eigenvalues --    0.12021   0.12216   0.12495   0.12758   0.12993

 Mulliken charges and spin densities:
               1          2
     1  C    0.132321  -0.748686
     2  C   -0.334789   0.361784
     3  C   -0.414708  -0.044985
     4  C   -0.123480  -0.182959
     5  N    0.364464   0.083853
     6  C    2.258565  -2.999184
     7  C   -2.735835   3.106642
     8  C    0.671812  -1.061088
     9  C    1.092675  -1.507689
    10  C   -1.722262   1.420544
    11  C    1.070518  -1.268258
    12  C    0.630039  -1.176312
    13  O   -0.208755  -0.003913
    14  H    0.265033  -0.093253
    15  H   -0.188047   0.330879
    16  H   -0.185608   0.310659
    17  H    0.198818  -0.096374
    18  H    0.034486   0.126032
    19  H   -0.047652   0.243242
    20  H    0.118213   0.047621
    21  H    0.189517  -0.082784
    22  H   -0.210385   0.335622
    23  H    0.126343  -0.003850
    24  H   -0.704737   0.926388
    25  H   -0.148587   0.297395
    26  H   -0.037821   0.180003
    27  H   -0.191921   0.339011
    28  H   -0.472051   0.627556
    29  H   -0.248263   0.432149
    30  H   -0.661356   0.837393
    31  H    0.163010  -0.022923
    32  H   -0.087453   0.234950
    33  H    0.133289   0.034322
    34  H    0.274604   0.016216
 Sum of Mulliken charges =  -1.00000   1.00000

 Dipole moment (field-independent basis, Debye):
    X=              4.0552    Y=             -0.3819    Z=              0.4076  Tot=              4.0935
 Quadrupole moment (field-independent basis, Debye-Ang):
   XX=           -151.4140   YY=           -150.8826   ZZ=           -115.3291
   XY=             -6.4653   XZ=              0.4983   YZ=             -0.6661

 Summary of Natural Population Analysis:

                                       Natural Population
                Natural  -----------------------------------------------
    Atom  No    Charge         Core      Valence    Rydberg      Total
 -----------------------------------------------------------------------
      C    1   -0.28877      0.99966     2.28364    0.00548     3.28877
      C    2   -0.20141      0.99961     2.19245    0.00935     3.20141
      C    3    0.06158      0.99954     1.92493    0.01395     2.93842
      C    4   -0.09557      0.99958     2.08525    0.01074     3.09557
      N    5   -0.28569      0.99969     2.77267    0.01333     3.78569
      C    6   -0.08123      0.99958     2.07017    0.01149     3.08123
      C    7   -0.12469      0.99959     2.11373    0.01137     3.12469
      C    8   -0.19607      0.99961     2.18673    0.00972     3.19607
      C    9   -0.19300      0.99962     2.18451    0.00888     3.19300
      C   10   -0.01696      0.99955     2.00334    0.01407     3.01696
      C   11   -0.19511      0.99960     2.18458    0.01093     3.19511
      C   12   -0.22270      0.99961     2.21428    0.00881     3.22270
      O   13   -0.37652      0.99990     3.36999    0.00663     4.37652
      H   14    0.10384      0.00000     0.39455    0.00161     0.39616
      H   15    0.09902      0.00000     0.40011    0.00086     0.40098
      H   16    0.09444      0.00000     0.40437    0.00118     0.40556
      H   17    0.09737      0.00000     0.40094    0.00170     0.40263
      H   18    0.09677      0.00000     0.40216    0.00106     0.40323
      H   19    0.08396      0.00000     0.41443    0.00161     0.41604
      H   20    0.08822      0.00000     0.41045    0.00133     0.41178
      H   21    0.10168      0.00000     0.39648    0.00184     0.39832
      H   22    0.09978      0.00000     0.39798    0.00223     0.40022
      H   23    0.08533      0.00000     0.41328    0.00139     0.41467
      H   24    0.10284      0.00000     0.39532    0.00184     0.39716
      H   25    0.10438      0.00000     0.39424    0.00139     0.39562
      H   26    0.10141      0.00000     0.39715    0.00144     0.39859
      H   27    0.10020      0.00000     0.39874    0.00107     0.39980
      H   28    0.10438      0.00000     0.39385    0.00177     0.39562
      H   29    0.09306      0.00000     0.40539    0.00155     0.40694
      H   30    0.10787      0.00000     0.38968    0.00246     0.39213
      H   31    0.10676      0.00000     0.39188    0.00136     0.39324
      H   32    0.10710      0.00000     0.39147    0.00143     0.39290
      H   33    0.10395      0.00000     0.39509    0.00096     0.39605
      H   34    0.23378      0.00000     0.26313    0.00309     0.26622
 =======================================================================
   * Total *    0.00000     12.99513    37.83695    0.16792    51.00000

 Normal termination of Gaussian 16 at Wed Dec  9 23:34:21 2020.
