 Gaussian 16, Revision A.03,

 -----------------------------------------------------------
 # opt freq B3LYP/6-31G(d) empiricaldispersion=gd3bj scf=xqc
 -----------------------------------------------------------

 ------------------------------
 CID_82103869_JID_5834_neutraal
 ------------------------------
 Symbolic Z-matrix:
 Charge =  0 Multiplicity = 1

 SCF Done:  E(RB3LYP) =  -1014.21022670     A.U. after   15 cycles
 SCF Done:  E(RB3LYP) =  -1014.21516577     A.U. after   13 cycles
 SCF Done:  E(RB3LYP) =  -1014.21519552     A.U. after   14 cycles
 SCF Done:  E(RB3LYP) =  -1014.21714184     A.U. after   13 cycles
 SCF Done:  E(RB3LYP) =  -1014.21713065     A.U. after   13 cycles
 SCF Done:  E(RB3LYP) =  -1014.21759946     A.U. after   13 cycles
 SCF Done:  E(RB3LYP) =  -1014.21777323     A.U. after   11 cycles
 SCF Done:  E(RB3LYP) =  -1014.21789749     A.U. after   12 cycles
 SCF Done:  E(RB3LYP) =  -1014.21809878     A.U. after   11 cycles
 SCF Done:  E(RB3LYP) =  -1014.21836563     A.U. after   13 cycles
 SCF Done:  E(RB3LYP) =  -1014.21873619     A.U. after   10 cycles
 SCF Done:  E(RB3LYP) =  -1014.21873534     A.U. after    8 cycles
 SCF Done:  E(RB3LYP) =  -1014.21873633     A.U. after    8 cycles
 SCF Done:  E(RB3LYP) =  -1014.21873637     A.U. after    7 cycles
 SCF Done:  E(RB3LYP) =  -1014.21873640     A.U. after    7 cycles
 Optimization completed.
    -- Stationary point found.
 Normal termination of Gaussian 16 at Thu Dec 10 17:29:41 2020.

 --------------------------------------------------------------------
 #N Geom=AllCheck Guess=TCheck SCRF=Check GenChk RB3LYP/6-31G(d) Freq
 --------------------------------------------------------------------

 Structure from the checkpoint file:  "JID_5834.chk"
 ------------------------------
 CID_82103869_JID_5834_neutraal
 ------------------------------
 Charge =  0 Multiplicity = 1

 SCF Done:  E(RB3LYP) =  -1014.21873640     A.U. after    1 cycles

  Exact polarizability: 153.967  -9.663 147.487 -10.008   2.029 130.632
 Approx polarizability: 221.159 -15.464 195.254 -31.705  10.326 221.774

                      1                      2                      3
                      A                      A                      A
 Frequencies --     30.4961                41.5162                54.4289
 Red. masses --      4.7797                 3.4504                 4.6687
 Frc consts  --      0.0026                 0.0035                 0.0081
 IR Inten    --      3.3648                 8.2371                 4.0026

                      4                      5                      6
                      A                      A                      A
 Frequencies --     60.3404                81.5504                82.9788
 Red. masses --      2.9871                 3.2699                 3.3758
 Frc consts  --      0.0064                 0.0128                 0.0137
 IR Inten    --      0.5100                 6.3398                 0.7145

                      7                      8                      9
                      A                      A                      A
 Frequencies --    101.6646               147.8141               170.1756
 Red. masses --      3.2819                 4.4158                 4.8480
 Frc consts  --      0.0200                 0.0568                 0.0827
 IR Inten    --      0.3920                 1.6044                 2.4366

                     10                     11                     12
                      A                      A                      A
 Frequencies --    212.0803               233.2652               238.8439
 Red. masses --      1.7439                 1.5156                 3.0307
 Frc consts  --      0.0462                 0.0486                 0.1019
 IR Inten    --      0.7090                 1.7059                 1.1154

                     13                     14                     15
                      A                      A                      A
 Frequencies --    277.0595               313.1379               359.9307
 Red. masses --      2.1049                 2.5856                 1.5754
 Frc consts  --      0.0952                 0.1494                 0.1203
 IR Inten    --      2.4992                 0.8775               147.3088

                     16                     17                     18
                      A                      A                      A
 Frequencies --    364.3733               385.1928               419.7755
 Red. masses --      1.9466                 2.9542                 2.6461
 Frc consts  --      0.1523                 0.2583                 0.2747
 IR Inten    --     94.7180                 3.8230                 2.7344

                     19                     20                     21
                      A                      A                      A
 Frequencies --    441.7337               477.5468               488.0155
 Red. masses --      2.4633                 4.3538                 2.5010
 Frc consts  --      0.2832                 0.5850                 0.3509
 IR Inten    --      0.3601                 5.1741                 6.1587

                     22                     23                     24
                      A                      A                      A
 Frequencies --    556.6456               579.8528               606.1716
 Red. masses --      2.0006                 3.6218                 2.2737
 Frc consts  --      0.3652                 0.7175                 0.4922
 IR Inten    --      6.9917                13.9433                15.3506

                     25                     26                     27
                      A                      A                      A
 Frequencies --    623.4789               646.6432               696.1336
 Red. masses --      2.5446                 1.2765                 2.8818
 Frc consts  --      0.5828                 0.3145                 0.8228
 IR Inten    --      1.6409                19.6446                 1.2657

                     28                     29                     30
                      A                      A                      A
 Frequencies --    714.0740               738.4091               814.1005
 Red. masses --      4.6623                 3.5172                 1.3161
 Frc consts  --      1.4007                 1.1299                 0.5139
 IR Inten    --      3.5864                 3.9014                 0.8530

                     31                     32                     33
                      A                      A                      A
 Frequencies --    817.1647               863.4052               872.2340
 Red. masses --      1.6412                 2.2807                 2.0296
 Frc consts  --      0.6457                 1.0017                 0.9098
 IR Inten    --      1.7329                 3.2353                 0.2671

                     34                     35                     36
                      A                      A                      A
 Frequencies --    908.4389               917.1778               939.5475
 Red. masses --      2.3193                 2.4724                 1.8134
 Frc consts  --      1.1277                 1.2254                 0.9432
 IR Inten    --     10.9213                 0.9244                 9.8981

                     37                     38                     39
                      A                      A                      A
 Frequencies --    953.8349               977.4359               986.4169
 Red. masses --      1.9608                 2.0703                 1.8757
 Frc consts  --      1.0511                 1.1653                 1.0753
 IR Inten    --     31.7032                 5.2631                 4.4501

                     40                     41                     42
                      A                      A                      A
 Frequencies --   1018.1092              1034.7477              1045.5383
 Red. masses --      2.0266                 2.2602                 1.5767
 Frc consts  --      1.2377                 1.4258                 1.0155
 IR Inten    --      4.2652                 0.5589                 4.6358

                     43                     44                     45
                      A                      A                      A
 Frequencies --   1054.0223              1065.2321              1092.8063
 Red. masses --      2.1860                 1.7702                 1.8582
 Frc consts  --      1.4308                 1.1835                 1.3074
 IR Inten    --     44.7039                 0.5389                 7.5341

                     46                     47                     48
                      A                      A                      A
 Frequencies --   1103.5550              1123.4185              1196.3795
 Red. masses --      2.4789                 1.7843                 1.5743
 Frc consts  --      1.7787                 1.3268                 1.3276
 IR Inten    --      3.2330                14.9994                14.1697

                     49                     50                     51
                      A                      A                      A
 Frequencies --   1199.9340              1218.1115              1239.0831
 Red. masses --      1.7675                 1.3669                 1.9857
 Frc consts  --      1.4994                 1.1949                 1.7963
 IR Inten    --      8.2969                20.5428                31.9863

                     52                     53                     54
                      A                      A                      A
 Frequencies --   1265.3551              1270.9893              1278.9150
 Red. masses --      1.3592                 1.3146                 1.5276
 Frc consts  --      1.2822                 1.2512                 1.4721
 IR Inten    --      1.7957                 9.2339                55.8620

                     55                     56                     57
                      A                      A                      A
 Frequencies --   1308.0536              1328.6333              1329.9968
 Red. masses --      1.3312                 1.5961                 1.7943
 Frc consts  --      1.3420                 1.6601                 1.8701
 IR Inten    --      5.2622                32.6259                30.1708

                     58                     59                     60
                      A                      A                      A
 Frequencies --   1350.7036              1354.4123              1362.1996
 Red. masses --      1.2084                 1.4455                 1.5116
 Frc consts  --      1.2989                 1.5624                 1.6526
 IR Inten    --      8.2345                25.7824                20.2271

                     61                     62                     63
                      A                      A                      A
 Frequencies --   1363.6716              1370.2016              1374.4291
 Red. masses --      1.4157                 1.2723                 1.4280
 Frc consts  --      1.5512                 1.4074                 1.5893
 IR Inten    --     25.9741                 0.7614                 1.1683

                     64                     65                     66
                      A                      A                      A
 Frequencies --   1407.0052              1416.0312              1437.1828
 Red. masses --      1.6593                 1.4407                 1.2799
 Frc consts  --      1.9353                 1.7020                 1.5576
 IR Inten    --     78.7819                41.7332                 4.3772

                     67                     68                     69
                      A                      A                      A
 Frequencies --   1445.7435              1493.5508              1496.6966
 Red. masses --      1.8610                 1.4748                 1.1722
 Frc consts  --      2.2918                 1.9384                 1.5472
 IR Inten    --    100.5644                45.3358                12.0031

                     70                     71                     72
                      A                      A                      A
 Frequencies --   1511.1303              1517.2369              1520.0006
 Red. masses --      1.0865                 1.0905                 1.1004
 Frc consts  --      1.4618                 1.4791                 1.4979
 IR Inten    --      1.0967                 5.9263                10.3300

                     73                     74                     75
                      A                      A                      A
 Frequencies --   1520.5420              1531.3380              1538.3985
 Red. masses --      1.1608                 1.0645                 1.0959
 Frc consts  --      1.5813                 1.4708                 1.5282
 IR Inten    --      8.7069                 4.4015                12.3846

                     76                     77                     78
                      A                      A                      A
 Frequencies --   1540.4005              1543.5134              1666.6312
 Red. masses --      1.1148                 1.1111                 1.2647
 Frc consts  --      1.5585                 1.5596                 2.0697
 IR Inten    --     26.9342                11.2209               146.8818

                     79                     80                     81
                      A                      A                      A
 Frequencies --   1738.1806              3035.5593              3053.6141
 Red. masses --      9.3014                 1.0676                 1.0578
 Frc consts  --     16.5572                 5.7962                 5.8116
 IR Inten    --    250.2948                34.8733                 6.7196

                     82                     83                     84
                      A                      A                      A
 Frequencies --   3058.4163              3059.3920              3069.0078
 Red. masses --      1.0713                 1.0367                 1.0663
 Frc consts  --      5.9041                 5.7173                 5.9174
 IR Inten    --     25.8451                27.3822                15.5709

                     85                     86                     87
                      A                      A                      A
 Frequencies --   3073.6374              3082.9843              3083.3830
 Red. masses --      1.0626                 1.0692                 1.0684
 Frc consts  --      5.9143                 5.9875                 5.9849
 IR Inten    --     47.8268                14.7148                24.1546

                     88                     89                     90
                      A                      A                      A
 Frequencies --   3095.8341              3102.3449              3119.3846
 Red. masses --      1.0936                 1.1012                 1.0979
 Frc consts  --      6.1753                 6.2442                 6.2942
 IR Inten    --     40.6766                25.1969                 3.1475

                     91                     92                     93
                      A                      A                      A
 Frequencies --   3120.1139              3123.8959              3127.3847
 Red. masses --      1.0883                 1.1021                 1.1022
 Frc consts  --      6.2423                 6.3369                 6.3512
 IR Inten    --      3.9576                19.8136                28.3860

                     94                     95                     96
                      A                      A                      A
 Frequencies --   3139.7404              3141.2693              3146.3003
 Red. masses --      1.1011                 1.0991                 1.0987
 Frc consts  --      6.3952                 6.3902                 6.4081
 IR Inten    --     37.5572                 5.7488                46.4711

                     97                     98                     99
                      A                      A                      A
 Frequencies --   3170.8051              3564.1781              3689.4620
 Red. masses --      1.0939                 1.0449                 1.1052
 Frc consts  --      6.4796                 7.8204                 8.8634
 IR Inten    --     18.2562                47.5915                33.2310

 - Thermochemistry -
 -------------------
 Temperature   298.150 Kelvin.  Pressure   1.00000 Atm.
 Atom     1 has atomic number  6 and mass  12.00000

 Molecular mass:   228.12964 amu.
 Principal axes and moments of inertia in atomic units:
                           1         2         3
     Eigenvalues --  3048.199794194.643696016.80619
           X            0.99984   0.01318   0.01182
           Y           -0.01319   0.99991   0.00008
           Z           -0.01182  -0.00023   0.99993
 This molecule is an asymmetric top.
 Rotational symmetry number  1.
 Warning -- assumption of classical behavior for rotation
           may cause significant error
 Rotational temperatures (Kelvin)      0.02841     0.02065     0.01440
 Rotational constants (GHZ):           0.59207     0.43025     0.29995
 Zero-point vibrational energy     812993.3 (Joules/Mol)
                                  194.31007 (Kcal/Mol)
 Warning -- explicit consideration of  24 degrees of freedom as
           vibrations may cause significant error
 Vibrational temperatures:     43.88    59.73    78.31    86.82   117.33
          (Kelvin)            119.39   146.27   212.67   244.84   305.14
                              335.62   343.64   398.63   450.54   517.86
                              524.25   554.21   603.96   635.56   687.08
                              702.15   800.89   834.28   872.15   897.05
                              930.38  1001.58  1027.39  1062.41  1171.31
                             1175.72  1242.25  1254.95  1307.04  1319.61
                             1351.80  1372.36  1406.31  1419.23  1464.83
                             1488.77  1504.30  1516.50  1532.63  1572.30
                             1587.77  1616.35  1721.32  1726.44  1752.59
                             1782.76  1820.56  1828.67  1840.07  1882.00
                             1911.61  1913.57  1943.36  1948.70  1959.90
                             1962.02  1971.41  1977.50  2024.37  2037.35
                             2067.79  2080.10  2148.89  2153.41  2174.18
                             2182.97  2186.94  2187.72  2203.25  2213.41
                             2216.29  2220.77  2397.91  2500.85  4367.49
                             4393.47  4400.38  4401.78  4415.62  4422.28
                             4435.73  4436.30  4454.21  4463.58  4488.10
                             4489.15  4494.59  4499.61  4517.39  4519.59
                             4526.82  4562.08  5128.06  5308.31

 Zero-point correction=                           0.309653 (Hartree/Particle)
 Thermal correction to Energy=                    0.325992
 Thermal correction to Enthalpy=                  0.326936
 Thermal correction to Gibbs Free Energy=         0.264283
 Sum of electronic and zero-point Energies=          -1013.909084
 Sum of electronic and thermal Energies=             -1013.892745
 Sum of electronic and thermal Enthalpies=           -1013.891801
 Sum of electronic and thermal Free Energies=        -1013.954453

                     E (Thermal)             CV                S
                      KCal/Mol        Cal/Mol-Kelvin    Cal/Mol-Kelvin
 Total                  204.563             60.838            131.864
 Electronic               0.000              0.000              0.000
 Translational            0.889              2.981             42.176
 Rotational               0.889              2.981             32.709
 Vibrational            202.785             54.876             56.978
 Vibration     1          0.594              1.984              5.797
 Vibration     2          0.594              1.981              5.185
 Vibration     3          0.596              1.976              4.650
 Vibration     4          0.597              1.973              4.446
 Vibration     5          0.600              1.962              3.853
 Vibration     6          0.600              1.961              3.819
 Vibration     7          0.604              1.948              3.422
 Vibration     8          0.617              1.905              2.700
 Vibration     9          0.625              1.879              2.434
 Vibration    10          0.643              1.822              2.026
 Vibration    11          0.654              1.790              1.854
 Vibration    12          0.657              1.781              1.811
 Vibration    13          0.678              1.716              1.552
 Vibration    14          0.701              1.649              1.346
 Vibration    15          0.734              1.555              1.122
 Vibration    16          0.738              1.546              1.103
 Vibration    17          0.754              1.502              1.019
 Vibration    18          0.782              1.427              0.893
 Vibration    19          0.801              1.379              0.821
 Vibration    20          0.834              1.300              0.717
 Vibration    21          0.844              1.277              0.689
 Vibration    22          0.912              1.125              0.531
 Vibration    23          0.936              1.075              0.486
 Vibration    24          0.965              1.019              0.439

                           ! Non-Optimized Parameters !
 Normal termination of Gaussian 16 at Thu Dec 10 17:43:07 2020.

 ----------------------------------------------------------------------
 # B3LYP/6-311++G(d,p) empiricaldispersion=gd3bj scf=xqc pop=npa geom=c
 heck
 ----------------------------------------------------------------------

 --------------------------------------
 CID_82103869_JID_5834_Energie_neutraal
 --------------------------------------
 Structure from the checkpoint file:  "JID_5834.chk"
 Charge =  0 Multiplicity = 1

 SCF Done:  E(RB3LYP) =  -1014.42316185     A.U. after   16 cycles
 Normal termination of Gaussian 16 at Thu Dec 10 17:48:57 2020.

 ----------------------------------------------------------------------
 # B3LYP/6-311++G(d,p) empiricaldispersion=gd3bj scf=xqc pop=npa geom=c
 heck
 ----------------------------------------------------------------------

 ------------------------------------
 CID_82103869_JID_5834_Energie_kation
 ------------------------------------
 Structure from the checkpoint file:  "JID_5834.chk"
 Charge =  1 Multiplicity = 2

 SCF Done:  E(UB3LYP) =  -1014.12878959     A.U. after   31 cycles
 Normal termination of Gaussian 16 at Thu Dec 10 18:04:22 2020.
 Gaussian 16:  ES64L-G16RevA.03 25-Dec-2016

 ----------------------------------------------------------------------
 # B3LYP/6-311++G(d,p) empiricaldispersion=gd3bj scf=xqc pop=npa geom=c
 heck
 ----------------------------------------------------------------------

 -----------------------------------
 CID_82103869_JID_5834_Energie_anion
 -----------------------------------
 Structure from the checkpoint file:  "JID_5834.chk"
 Charge = -1 Multiplicity = 2

                         Standard orientation:
 ---------------------------------------------------------------------
 Center     Atomic      Atomic             Coordinates (Angstroms)
 Number     Number       Type             X           Y           Z
 ---------------------------------------------------------------------
      1          6           0       -1.552936    3.340516    0.785042
      2          6           0       -2.071695    2.506068   -0.395928
      3          6           0       -1.838420    1.005797   -0.213988
      4          8           0       -2.760716    0.303934    0.201004
      5          7           0       -0.607564    0.468353   -0.499545
      6          6           0        0.538467    1.244743   -0.950549
      7          6           0        1.614911    1.480254    0.131785
      8          6           0        2.563738    0.318338    0.367016
      9         16           0        3.429149   -0.405810   -0.857020
     10          7           0        2.688105   -0.053289    1.653141
     11          6           0       -0.421055   -0.990482   -0.358556
     12          6           0       -0.545993   -1.518051    1.094269
     13          6           0       -1.092159   -2.943661    0.930217
     14          6           0       -2.099659   -2.803407   -0.222602
     15          6           0       -1.399970   -1.856152   -1.214632
     16          1           0       -1.937467    2.941166    1.729457
     17          1           0       -1.885976    4.379784    0.696629
     18          1           0       -0.459588    3.346959    0.839075
     19          1           0       -3.157889    2.605299   -0.457231
     20          1           0       -1.659153    2.879596   -1.339636
     21          1           0        1.010492    0.741633   -1.800695
     22          1           0        0.195429    2.216736   -1.300392
     23          1           0        2.237301    2.322281   -0.192973
     24          1           0        1.123060    1.776252    1.065802
     25          1           0        2.111678    0.344585    2.382289
     26          1           0        3.302099   -0.822183    1.888709
     27          1           0        0.594688   -1.175896   -0.709454
     28          1           0        0.412077   -1.481512    1.621890
     29          1           0       -1.269706   -0.907797    1.638738
     30          1           0       -1.540192   -3.333942    1.850408
     31          1           0       -0.282108   -3.628389    0.642771
     32          1           0       -3.011085   -2.325269    0.147474
     33          1           0       -2.371720   -3.764272   -0.672288
     34          1           0       -2.109047   -1.236206   -1.765434
     35          1           0       -0.818714   -2.426569   -1.948455
 ---------------------------------------------------------------------

 SCF Done:  E(UB3LYP) =  -1014.42482122     A.U. after   33 cycles
 SCF Done:  E(UB3LYP) =  -1014.42482122     a.u. after    1 cycles

 The electronic state is 2-A.
 Alpha  occ. eigenvalues --  -88.65390 -18.97881 -14.23556 -14.21709 -10.16381
 Alpha  occ. eigenvalues --  -10.09935 -10.09929 -10.09574 -10.07781 -10.06932
 Alpha  occ. eigenvalues --  -10.06839 -10.06451 -10.06358 -10.06258 -10.05769
 Alpha  occ. eigenvalues --   -7.74150  -5.70492  -5.70025  -5.69731  -0.93233
 Alpha  occ. eigenvalues --   -0.83021  -0.81631  -0.73152  -0.67838  -0.66363
 Alpha  occ. eigenvalues --   -0.61174  -0.61057  -0.59220  -0.54844  -0.53821
 Alpha  occ. eigenvalues --   -0.49338  -0.47537  -0.45384  -0.42106  -0.41435
 Alpha  occ. eigenvalues --   -0.40319  -0.38450  -0.37391  -0.35887  -0.34723
 Alpha  occ. eigenvalues --   -0.33712  -0.32684  -0.32257  -0.32000  -0.29732
 Alpha  occ. eigenvalues --   -0.28878  -0.27569  -0.27027  -0.26097  -0.25364
 Alpha  occ. eigenvalues --   -0.24956  -0.24179  -0.24116  -0.23957  -0.22805
 Alpha  occ. eigenvalues --   -0.22650  -0.21865  -0.21484  -0.14826  -0.13699
 Alpha  occ. eigenvalues --   -0.10257  -0.08025   0.04229
 Alpha virt. eigenvalues --    0.06767   0.07253   0.07805   0.08886   0.09324
 Alpha virt. eigenvalues --    0.09506   0.09824   0.10781   0.11170   0.11648
 Alpha virt. eigenvalues --    0.11923   0.12210   0.12690   0.13012   0.13276

  Beta  occ. eigenvalues --  -88.65377 -18.97870 -14.23556 -14.21596 -10.16377
  Beta  occ. eigenvalues --  -10.09929 -10.09535 -10.09322 -10.07769 -10.06931
  Beta  occ. eigenvalues --  -10.06807 -10.06451 -10.06355 -10.06285 -10.05769
  Beta  occ. eigenvalues --   -7.74139  -5.70506  -5.69961  -5.69726  -0.93216
  Beta  occ. eigenvalues --   -0.82970  -0.81156  -0.73146  -0.67804  -0.66103
  Beta  occ. eigenvalues --   -0.61079  -0.61031  -0.58863  -0.54772  -0.53722
  Beta  occ. eigenvalues --   -0.49292  -0.47533  -0.45032  -0.42012  -0.41381
  Beta  occ. eigenvalues --   -0.40277  -0.38412  -0.37377  -0.35843  -0.34571
  Beta  occ. eigenvalues --   -0.33543  -0.32538  -0.32148  -0.31869  -0.29522
  Beta  occ. eigenvalues --   -0.28737  -0.27400  -0.26979  -0.25948  -0.25297
  Beta  occ. eigenvalues --   -0.24788  -0.24146  -0.24089  -0.23918  -0.22633
  Beta  occ. eigenvalues --   -0.22320  -0.21252  -0.21146  -0.14804  -0.13658
  Beta  occ. eigenvalues --   -0.09436  -0.07974
  Beta virt. eigenvalues --    0.06928   0.07356   0.07908   0.08922   0.09406
  Beta virt. eigenvalues --    0.09491   0.09667   0.10433   0.11142   0.11678
  Beta virt. eigenvalues --    0.11800   0.12281   0.12343   0.12684   0.13046

 Mulliken charges and spin densities:
               1          2
     1  C    0.622278  -1.133011
     2  C   -1.023294   0.742627
     3  C    0.361476  -0.555041
     4  O   -0.260083   0.005313
     5  N    0.378589  -0.027333
     6  C   -0.347591   0.487341
     7  C    0.339839  -1.167339
     8  C    0.394930   0.391618
     9  S   -0.776930   0.034573
    10  N   -0.209357   0.053860
    11  C   -0.064134  -0.005122
    12  C   -0.213566  -0.060987
    13  C   -0.671465   0.016377
    14  C   -0.282925  -0.025316
    15  C   -0.274791  -0.003995
    16  H    0.045094   0.102209
    17  H   -0.381729   0.535384
    18  H   -0.367300   0.518792
    19  H    0.141829   0.037027
    20  H   -0.094441   0.252090
    21  H    0.139384   0.005588
    22  H    0.111527   0.030716
    23  H   -0.539998   0.779453
    24  H    0.397534  -0.299158
    25  H   -0.004018   0.235093
    26  H    0.193505   0.049643
    27  H    0.166524  -0.021204
    28  H    0.198000  -0.041714
    29  H    0.172515   0.028622
    30  H    0.139158  -0.000557
    31  H    0.121529   0.004507
    32  H    0.169903  -0.000875
    33  H    0.134845   0.000490
    34  H    0.167613   0.000570
    35  H    0.115547   0.029760
 Sum of Mulliken charges =  -1.00000   1.00000

 Dipole moment (field-independent basis, Debye):
    X=             -5.6889    Y=             -5.1171    Z=              1.1977  Tot=              7.7448
 Quadrupole moment (field-independent basis, Debye-Ang):
   XX=           -167.9392   YY=           -146.8821   ZZ=           -117.7138
   XY=             -1.2049   XZ=              9.5994   YZ=             -4.2338

 Summary of Natural Population Analysis:

                                       Natural Population
                Natural  -----------------------------------------------
    Atom  No    Charge         Core      Valence    Rydberg      Total
 -----------------------------------------------------------------------
      C    1   -0.28312      0.99965     2.27838    0.00509     3.28312
      C    2   -0.22999      0.99960     2.22195    0.00843     3.22999
      C    3    0.34669      0.99964     1.62992    0.02376     2.65331
      O    4   -0.33995      0.99988     3.33446    0.00561     4.33995
      N    5   -0.25161      0.99962     2.74111    0.01088     3.75161
      C    6   -0.08095      0.99959     2.07036    0.01100     3.08095
      C    7   -0.22827      0.99955     2.21742    0.01129     3.22827
      C    8    0.15549      0.99965     1.82490    0.01996     2.84451
      S    9   -0.15556      4.99954     3.14234    0.01368     8.15556
      N   10   -0.36934      0.99966     2.85847    0.01122     3.86934
      C   11   -0.01431      0.99958     2.00093    0.01381     3.01431
      C   12   -0.20005      0.99962     2.19185    0.00858     3.20005
      C   13   -0.18937      0.99964     2.18391    0.00581     3.18937
      C   14   -0.19309      0.99964     2.18713    0.00632     3.19309
      C   15   -0.19125      0.99963     2.18490    0.00673     3.19125
      H   16    0.09821      0.00000     0.40080    0.00100     0.40179
      H   17    0.09954      0.00000     0.39938    0.00107     0.40046
      H   18    0.10184      0.00000     0.39656    0.00160     0.39816
      H   19    0.10703      0.00000     0.39186    0.00111     0.39297
      H   20    0.10150      0.00000     0.39738    0.00111     0.39850
      H   21    0.10841      0.00000     0.39035    0.00124     0.39159
      H   22    0.10096      0.00000     0.39776    0.00129     0.39904
      H   23    0.12352      0.00000     0.37289    0.00359     0.37648
      H   24    0.09494      0.00000     0.40333    0.00173     0.40506
      H   25    0.18845      0.00000     0.30983    0.00171     0.31155
      H   26    0.19372      0.00000     0.30470    0.00159     0.30628
      H   27    0.11585      0.00000     0.38269    0.00146     0.38415
      H   28    0.10261      0.00000     0.39628    0.00111     0.39739
      H   29    0.10651      0.00000     0.39238    0.00111     0.39349
      H   30    0.09538      0.00000     0.40378    0.00084     0.40462
      H   31    0.09125      0.00000     0.40769    0.00105     0.40875
      H   32    0.10460      0.00000     0.39432    0.00108     0.39540
      H   33    0.09072      0.00000     0.40826    0.00102     0.40928
      H   34    0.10580      0.00000     0.39338    0.00082     0.39420
      H   35    0.09382      0.00000     0.40526    0.00092     0.40618
 =======================================================================
   * Total *   -0.00000     18.99449    42.81687    0.18863    62.00000

 Normal termination of Gaussian 16 at Thu Dec 10 18:20:04 2020.
