 Gaussian 16, Revision A.03,

 -----------------------------------------------------------
 # opt freq B3LYP/6-31G(d) empiricaldispersion=gd3bj scf=xqc
 -----------------------------------------------------------

 -------------------------------
 CID_112407148_JID_7154_neutraal
 -------------------------------
 Symbolic Z-matrix:
 Charge =  0 Multiplicity = 1

 SCF Done:  E(RB3LYP) =  -1200.42809221     A.U. after   15 cycles
 SCF Done:  E(RB3LYP) =  -1200.43265077     A.U. after   13 cycles
 SCF Done:  E(RB3LYP) =  -1200.43159180     A.U. after   13 cycles
 SCF Done:  E(RB3LYP) =  -1200.43315781     A.U. after   12 cycles
 SCF Done:  E(RB3LYP) =  -1200.43376015     A.U. after   13 cycles
 SCF Done:  E(RB3LYP) =  -1200.43414175     A.U. after   12 cycles
 SCF Done:  E(RB3LYP) =  -1200.43481297     A.U. after   12 cycles
 SCF Done:  E(RB3LYP) =  -1200.43494229     A.U. after   11 cycles
 SCF Done:  E(RB3LYP) =  -1200.43497304     A.U. after   11 cycles
 SCF Done:  E(RB3LYP) =  -1200.43498838     A.U. after   10 cycles
 SCF Done:  E(RB3LYP) =  -1200.43500878     A.U. after    8 cycles
 SCF Done:  E(RB3LYP) =  -1200.43500917     A.U. after    8 cycles
 SCF Done:  E(RB3LYP) =  -1200.43500935     A.U. after    8 cycles
 SCF Done:  E(RB3LYP) =  -1200.43500942     A.U. after    7 cycles
 SCF Done:  E(RB3LYP) =  -1200.43500945     A.U. after    7 cycles
 Optimization completed.
    -- Stationary point found.
 Normal termination of Gaussian 16 at Mon Dec 14 13:22:36 2020.

 --------------------------------------------------------------------
 #N Geom=AllCheck Guess=TCheck SCRF=Check GenChk RB3LYP/6-31G(d) Freq
 --------------------------------------------------------------------

 Structure from the checkpoint file:  "JID_7154.chk"
 -------------------------------
 CID_112407148_JID_7154_neutraal
 -------------------------------
 Charge =  0 Multiplicity = 1

 SCF Done:  E(RB3LYP) =  -1200.43500945     A.U. after    1 cycles

  Exact polarizability: 155.608   0.393 146.591 -10.636   7.155 120.458
 Approx polarizability: 199.562   6.850 232.071 -25.051  11.495 202.056

                      1                      2                      3
                      A                      A                      A
 Frequencies --     25.6516                33.5056                59.4208
 Red. masses --      4.0722                 4.3706                 3.6707
 Frc consts  --      0.0016                 0.0029                 0.0076
 IR Inten    --      2.4624                 2.7399                 0.1875

                      4                      5                      6
                      A                      A                      A
 Frequencies --     75.1102                82.2496                92.4340
 Red. masses --      4.1775                 5.8850                 6.5388
 Frc consts  --      0.0139                 0.0235                 0.0329
 IR Inten    --      0.5953                11.4126                 3.5742

                      7                      8                      9
                      A                      A                      A
 Frequencies --    115.6762               126.8495               185.7958
 Red. masses --      5.3013                 4.4344                 3.9888
 Frc consts  --      0.0418                 0.0420                 0.0811
 IR Inten    --      5.0834                 4.9731                 1.2834

                     10                     11                     12
                      A                      A                      A
 Frequencies --    227.6929               246.7128               256.2087
 Red. masses --      1.2978                 2.1311                 3.1385
 Frc consts  --      0.0396                 0.0764                 0.1214
 IR Inten    --      0.5737                 2.7909                 1.1466

                     13                     14                     15
                      A                      A                      A
 Frequencies --    266.2337               276.6394               283.6069
 Red. masses --      1.8596                 2.5683                 1.6304
 Frc consts  --      0.0777                 0.1158                 0.0773
 IR Inten    --      2.1705                 2.3037                 4.3310

                     16                     17                     18
                      A                      A                      A
 Frequencies --    314.4676               322.7152               339.5307
 Red. masses --      4.3507                 2.4787                 2.0895
 Frc consts  --      0.2535                 0.1521                 0.1419
 IR Inten    --      4.0130                25.6206                 0.4513

                     19                     20                     21
                      A                      A                      A
 Frequencies --    352.8291               369.0965               372.9941
 Red. masses --      2.3158                 2.7272                 1.4191
 Frc consts  --      0.1699                 0.2189                 0.1163
 IR Inten    --      0.8568                 1.8107                38.7950

                     22                     23                     24
                      A                      A                      A
 Frequencies --    392.7234               436.0148               451.7274
 Red. masses --      2.2000                 2.3357                 1.9818
 Frc consts  --      0.1999                 0.2616                 0.2383
 IR Inten    --      1.7093                21.2947                38.2545

                     25                     26                     27
                      A                      A                      A
 Frequencies --    466.8581               499.8204               526.9393
 Red. masses --      2.2269                 2.6205                 7.8415
 Frc consts  --      0.2860                 0.3857                 1.2828
 IR Inten    --     90.9081                24.4324                61.6279

                     28                     29                     30
                      A                      A                      A
 Frequencies --    547.7053               612.6358               649.4951
 Red. masses --      2.2594                 4.7915                 6.1713
 Frc consts  --      0.3993                 1.0596                 1.5338
 IR Inten    --     21.5783                 1.2538                 6.3287

                     31                     32                     33
                      A                      A                      A
 Frequencies --    675.7429               730.6512               755.7865
 Red. masses --      4.2341                 3.5178                 4.2150
 Frc consts  --      1.1391                 1.1065                 1.4186
 IR Inten    --     15.1533                 0.9791                21.4935

                     34                     35                     36
                      A                      A                      A
 Frequencies --    769.5697               803.3804               865.2227
 Red. masses --      2.3883                 1.7715                 2.3679
 Frc consts  --      0.8334                 0.6737                 1.0444
 IR Inten    --      4.6131                41.2629                 4.3429

                     37                     38                     39
                      A                      A                      A
 Frequencies --    875.6225               887.6512               898.7459
 Red. masses --      1.3816                 2.7979                 2.7408
 Frc consts  --      0.6241                 1.2989                 1.3044
 IR Inten    --      0.7576                57.4253                23.7952

                     40                     41                     42
                      A                      A                      A
 Frequencies --    931.6210               948.6022               952.3139
 Red. masses --      3.3738                 1.9582                 1.8125
 Frc consts  --      1.7252                 1.0382                 0.9685
 IR Inten    --     14.6492                12.8024                35.6662

                     43                     44                     45
                      A                      A                      A
 Frequencies --    955.8341               968.0759               976.8034
 Red. masses --      2.0785                 8.3401                 1.2040
 Frc consts  --      1.1188                 4.6051                 0.6768
 IR Inten    --     59.7973                18.6242                 0.4959

                     46                     47                     48
                      A                      A                      A
 Frequencies --   1020.4487              1027.5843              1051.0305
 Red. masses --      1.7161                 3.6802                 1.4909
 Frc consts  --      1.0529                 2.2896                 0.9703
 IR Inten    --     10.5527                 1.2964                18.0277

                     49                     50                     51
                      A                      A                      A
 Frequencies --   1072.7153              1088.0243              1110.3516
 Red. masses --      1.5710                 1.5796                 3.1597
 Frc consts  --      1.0651                 1.1018                 2.2951
 IR Inten    --      1.0379                 3.0230                34.1741

                     52                     53                     54
                      A                      A                      A
 Frequencies --   1118.7147              1147.9616              1155.1484
 Red. masses --      5.3436                 4.0217                 1.9743
 Frc consts  --      3.9403                 3.1226                 1.5522
 IR Inten    --    141.8963                55.4165                 4.3046

                     55                     56                     57
                      A                      A                      A
 Frequencies --   1178.8897              1234.8336              1255.4094
 Red. masses --      1.3804                 1.9666                 1.7373
 Frc consts  --      1.1304                 1.7668                 1.6133
 IR Inten    --     41.7144                28.5376                31.2171

                     58                     59                     60
                      A                      A                      A
 Frequencies --   1265.4628              1278.7537              1288.2033
 Red. masses --      1.6672                 1.4168                 1.8977
 Frc consts  --      1.5730                 1.3650                 1.8555
 IR Inten    --      5.1930                16.7578                12.1087

                     61                     62                     63
                      A                      A                      A
 Frequencies --   1319.1054              1337.6382              1352.9585
 Red. masses --      2.2707                 2.6809                 1.5665
 Frc consts  --      2.3280                 2.8262                 1.6894
 IR Inten    --     23.0547                76.9270                84.3177

                     64                     65                     66
                      A                      A                      A
 Frequencies --   1362.1245              1398.2661              1418.2501
 Red. masses --      1.4555                 1.2596                 1.2651
 Frc consts  --      1.5911                 1.4509                 1.4993
 IR Inten    --     20.9772                 9.4750                 5.3981

                     67                     68                     69
                      A                      A                      A
 Frequencies --   1427.9134              1443.5726              1452.6688
 Red. masses --      1.2456                 1.3453                 1.2894
 Frc consts  --      1.4964                 1.6517                 1.6031
 IR Inten    --      3.5882                25.9478                42.1609

                     70                     71                     72
                      A                      A                      A
 Frequencies --   1470.4951              1472.2827              1474.9517
 Red. masses --      2.8490                 1.4405                 1.5535
 Frc consts  --      3.6296                 1.8397                 1.9912
 IR Inten    --     45.2868                29.8797                 8.8234

                     73                     74                     75
                      A                      A                      A
 Frequencies --   1505.1916              1513.4988              1519.7676
 Red. masses --      3.1276                 1.0512                 1.0463
 Frc consts  --      4.1748                 1.4187                 1.4238
 IR Inten    --     13.1328                 0.6719                 1.5552

                     76                     77                     78
                      A                      A                      A
 Frequencies --   1527.7154              1533.1383              1542.8377
 Red. masses --      1.0529                 1.0641                 1.0580
 Frc consts  --      1.4478                 1.4737                 1.4838
 IR Inten    --      2.9331                10.5855                 3.7003

                     79                     80                     81
                      A                      A                      A
 Frequencies --   1549.1163              1560.3262              1616.5303
 Red. masses --      1.0648                 1.0621                 5.7639
 Frc consts  --      1.5055                 1.5235                 8.8743
 IR Inten    --     23.4970                14.5088                21.1231

                     82                     83                     84
                      A                      A                      A
 Frequencies --   2950.1691              3036.7523              3042.9233
 Red. masses --      1.0829                 1.0391                 1.0367
 Frc consts  --      5.5532                 5.6457                 5.6554
 IR Inten    --     68.8268                35.3012                21.5865

                     85                     86                     87
                      A                      A                      A
 Frequencies --   3050.3176              3068.7854              3098.6532
 Red. masses --      1.0391                 1.0587                 1.0970
 Frc consts  --      5.6964                 5.8745                 6.2059
 IR Inten    --     19.6901                27.9527                24.1567

                     88                     89                     90
                      A                      A                      A
 Frequencies --   3101.2983              3105.0901              3108.4826
 Red. masses --      1.1043                 1.1017                 1.0608
 Frc consts  --      6.2581                 6.2585                 6.0395
 IR Inten    --     37.6260                12.1649                 2.2780

                     91                     92                     93
                      A                      A                      A
 Frequencies --   3112.0052              3116.5240              3129.2269
 Red. masses --      1.1009                 1.1008                 1.1022
 Frc consts  --      6.2819                 6.2992                 6.3589
 IR Inten    --     59.5934                38.1244                19.0759

                     94                     95                     96
                      A                      A                      A
 Frequencies --   3153.7673              3167.4470              3291.1089
 Red. masses --      1.0987                 1.1071                 1.0925
 Frc consts  --      6.4383                 6.5444                 6.9722
 IR Inten    --     16.6444                 0.1221                 0.3497

                     97                     98                     99
                      A                      A                      A
 Frequencies --   3313.5444              3603.4787              3644.4100
 Red. masses --      1.1074                 1.0757                 1.0677
 Frc consts  --      7.1636                 8.2297                 8.3549
 IR Inten    --      1.4989                65.1968               336.6677

 - Thermochemistry -
 -------------------
 Temperature   298.150 Kelvin.  Pressure   1.00000 Atm.
 Atom     1 has atomic number  6 and mass  12.00000

 Molecular mass:   262.09873 amu.
 Principal axes and moments of inertia in atomic units:
                           1         2         3
     Eigenvalues --  3063.649895881.017827756.69973
           X            1.00000   0.00065   0.00299
           Y           -0.00070   0.99984   0.01808
           Z           -0.00298  -0.01808   0.99983
 This molecule is an asymmetric top.
 Rotational symmetry number  1.
 Warning -- assumption of classical behavior for rotation
           may cause significant error
 Rotational temperatures (Kelvin)      0.02827     0.01473     0.01117
 Rotational constants (GHZ):           0.58908     0.30688     0.23267
 Zero-point vibrational energy     760770.1 (Joules/Mol)
                                  181.82842 (Kcal/Mol)
 Warning -- explicit consideration of  29 degrees of freedom as
           vibrations may cause significant error
 Vibrational temperatures:     36.91    48.21    85.49   108.07   118.34
          (Kelvin)            132.99   166.43   182.51   267.32   327.60
                              354.96   368.63   383.05   398.02   408.05
                              452.45   464.32   488.51   507.64   531.05
                              536.66   565.04   627.33   649.94   671.70
                              719.13   758.15   788.03   881.45   934.48
                              972.24  1051.24  1087.41  1107.24  1155.89
                             1244.86  1259.83  1277.13  1293.09  1340.39
                             1364.83  1370.17  1375.23  1392.85  1405.40
                             1468.20  1478.46  1512.20  1543.40  1565.42
                             1597.55  1609.58  1651.66  1662.00  1696.16
                             1776.65  1806.25  1820.72  1839.84  1853.44
                             1897.90  1924.56  1946.61  1959.79  2011.79
                             2040.55  2054.45  2076.98  2090.07  2115.71
                             2118.29  2122.13  2165.63  2177.59  2186.61
                             2198.04  2205.84  2219.80  2228.83  2244.96
                             2325.83  4244.64  4369.21  4378.09  4388.73
                             4415.30  4458.27  4462.08  4467.53  4472.41
                             4477.48  4483.98  4502.26  4537.57  4557.25
                             4735.17  4767.45  5184.60  5243.49

 Zero-point correction=                           0.289762 (Hartree/Particle)
 Thermal correction to Energy=                    0.307923
 Thermal correction to Enthalpy=                  0.308867
 Thermal correction to Gibbs Free Energy=         0.242904
 Sum of electronic and zero-point Energies=          -1200.145247
 Sum of electronic and thermal Energies=             -1200.127087
 Sum of electronic and thermal Enthalpies=           -1200.126143
 Sum of electronic and thermal Free Energies=        -1200.192105

                     E (Thermal)             CV                S
                      KCal/Mol        Cal/Mol-Kelvin    Cal/Mol-Kelvin
 Total                  193.224             68.481            138.829
 Electronic               0.000              0.000              0.000
 Translational            0.889              2.981             42.590
 Rotational               0.889              2.981             33.302
 Vibrational            191.447             62.519             62.937
 Vibration     1          0.593              1.985              6.140
 Vibration     2          0.594              1.983              5.610
 Vibration     3          0.597              1.974              4.476
 Vibration     4          0.599              1.966              4.015
 Vibration     5          0.600              1.961              3.836
 Vibration     6          0.602              1.955              3.608
 Vibration     7          0.608              1.936              3.171
 Vibration     8          0.611              1.926              2.993
 Vibration     9          0.632              1.859              2.269
 Vibration    10          0.651              1.799              1.897
 Vibration    11          0.661              1.768              1.754
 Vibration    12          0.666              1.752              1.687
 Vibration    13          0.672              1.735              1.621
 Vibration    14          0.678              1.717              1.554
 Vibration    15          0.682              1.704              1.512
 Vibration    16          0.702              1.646              1.339
 Vibration    17          0.708              1.630              1.296
 Vibration    18          0.719              1.597              1.214
 Vibration    19          0.729              1.569              1.154
 Vibration    20          0.741              1.536              1.084
 Vibration    21          0.744              1.528              1.067
 Vibration    22          0.760              1.486              0.990
 Vibration    23          0.796              1.392              0.839
 Vibration    24          0.810              1.357              0.791
 Vibration    25          0.824              1.324              0.746
 Vibration    26          0.855              1.250              0.659
 Vibration    27          0.882              1.190              0.594
 Vibration    28          0.903              1.145              0.549
 Vibration    29          0.972              1.005              0.428

 Optimization completed.
    -- Stationary point found.
 Normal termination of Gaussian 16 at Mon Dec 14 13:36:25 2020.

 ----------------------------------------------------------------------
 # B3LYP/6-311++G(d,p) empiricaldispersion=gd3bj scf=xqc pop=npa geom=c
 heck
 ----------------------------------------------------------------------

 ---------------------------------------
 CID_112407148_JID_7154_Energie_neutraal
 ---------------------------------------
 Structure from the checkpoint file:  "JID_7154.chk"
 Charge =  0 Multiplicity = 1

 SCF Done:  E(RB3LYP) =  -1200.70295792     A.U. after   15 cycles
 Normal termination of Gaussian 16 at Mon Dec 14 13:43:24 2020.

 ----------------------------------------------------------------------
 # B3LYP/6-311++G(d,p) empiricaldispersion=gd3bj scf=xqc pop=npa geom=c
 heck
 ----------------------------------------------------------------------

 -------------------------------------
 CID_112407148_JID_7154_Energie_kation
 -------------------------------------
 Structure from the checkpoint file:  "JID_7154.chk"
 Charge =  1 Multiplicity = 2

 SCF Done:  E(UB3LYP) =  -1200.36108404     A.U. after   27 cycles
 Normal termination of Gaussian 16 at Mon Dec 14 14:01:38 2020.
 Gaussian 16:  ES64L-G16RevA.03 25-Dec-2016

 ----------------------------------------------------------------------
 # B3LYP/6-311++G(d,p) empiricaldispersion=gd3bj scf=xqc pop=npa geom=c
 heck
 ----------------------------------------------------------------------

 ------------------------------------
 CID_112407148_JID_7154_Energie_anion
 ------------------------------------
 Structure from the checkpoint file:  "JID_7154.chk"
 Charge = -1 Multiplicity = 2

                         Standard orientation:
 ---------------------------------------------------------------------
 Center     Atomic      Atomic             Coordinates (Angstroms)
 Number     Number       Type             X           Y           Z
 ---------------------------------------------------------------------
      1          6           0        2.733773    0.091588    1.641078
      2          6           0        3.188211    0.288178    0.184456
      3          6           0        3.958435    1.617655    0.074740
      4          6           0        4.124074   -0.859761   -0.228219
      5          6           0        1.979787    0.365956   -0.788363
      6          6           0        1.063060   -0.877430   -0.825945
      7          7           0        0.060543   -0.840661    0.240704
      8         16           0       -1.303821   -1.778941    0.135618
      9          8           0       -1.065079   -3.016874   -0.611382
     10          8           0       -1.887911   -1.792109    1.480281
     11          6           0       -2.361945   -0.744549   -0.942069
     12          6           0       -2.480189    0.643197   -0.421714
     13          7           0       -1.739362    1.597944   -0.949683
     14          8           0       -2.026954    2.747855   -0.219171
     15          6           0       -2.929399    2.442537    0.731957
     16          6           0       -3.262901    1.126292    0.664653
     17          8           0        1.248763    1.536948   -0.482124
     18          1           0        3.578812    0.219881    2.326580
     19          1           0        2.343615   -0.920174    1.813030
     20          1           0        1.967950    0.826837    1.907658
     21          1           0        4.848142    1.594298    0.714680
     22          1           0        4.289181    1.793726   -0.956075
     23          1           0        3.330715    2.459345    0.374918
     24          1           0        3.660586   -1.844240   -0.100682
     25          1           0        4.434121   -0.763759   -1.275954
     26          1           0        5.029896   -0.845705    0.388112
     27          1           0        2.413221    0.438185   -1.802480
     28          1           0        0.513298   -0.867718   -1.773106
     29          1           0        1.647644   -1.803377   -0.814721
     30          1           0        0.386486   -0.764787    1.197297
     31          1           0       -1.911356   -0.757690   -1.936526
     32          1           0       -3.321946   -1.265666   -0.980089
     33          1           0       -3.233191    3.260270    1.368976
     34          1           0       -3.934838    0.563824    1.293415
     35          1           0        0.342534    1.470285   -0.836346
 ---------------------------------------------------------------------

 SCF Done:  E(UB3LYP) =  -1200.69954333     A.U. after   33 cycles
 SCF Done:  E(UB3LYP) =  -1200.69954333     a.u. after    1 cycles

 The electronic state is 2-A.
 Alpha  occ. eigenvalues --  -88.95553 -19.07251 -19.01570 -19.01514 -19.00153
 Alpha  occ. eigenvalues --  -14.23846 -14.22059 -10.12421 -10.11590 -10.11235
 Alpha  occ. eigenvalues --  -10.10609 -10.08768 -10.08635 -10.06232 -10.06116
 Alpha  occ. eigenvalues --  -10.05990 -10.05348  -8.01817  -5.98097  -5.98058
 Alpha  occ. eigenvalues --   -5.97872  -1.01821  -1.01657  -0.91288  -0.90838
 Alpha  occ. eigenvalues --   -0.82739  -0.75893  -0.72244  -0.67873  -0.65944
 Alpha  occ. eigenvalues --   -0.63562  -0.59186  -0.58627  -0.54654  -0.52438
 Alpha  occ. eigenvalues --   -0.50085  -0.46293  -0.44078  -0.43025  -0.42144
 Alpha  occ. eigenvalues --   -0.40618  -0.40154  -0.38028  -0.36789  -0.36138
 Alpha  occ. eigenvalues --   -0.35074  -0.34754  -0.34328  -0.33382  -0.32635
 Alpha  occ. eigenvalues --   -0.31729  -0.31504  -0.29246  -0.28659  -0.27794
 Alpha  occ. eigenvalues --   -0.26985  -0.26699  -0.26004  -0.24822  -0.23481
 Alpha  occ. eigenvalues --   -0.23077  -0.22569  -0.21985  -0.21505  -0.20946
 Alpha  occ. eigenvalues --   -0.19126  -0.17711  -0.16818  -0.16412  -0.15208
 Alpha  occ. eigenvalues --    0.04656
 Alpha virt. eigenvalues --    0.06170   0.07825   0.07951   0.08699   0.08940
 Alpha virt. eigenvalues --    0.09473   0.10242   0.10732   0.11435   0.11667
 Alpha virt. eigenvalues --    0.12217   0.12555   0.13035   0.13335   0.13930

  Beta  occ. eigenvalues --  -88.95520 -19.06899 -19.01566 -19.01485 -19.00134
  Beta  occ. eigenvalues --  -14.23830 -14.21579 -10.12414 -10.11583 -10.11224
  Beta  occ. eigenvalues --  -10.10367 -10.08635 -10.08618 -10.06204 -10.06197
  Beta  occ. eigenvalues --  -10.05963 -10.05328  -8.01778  -5.98069  -5.98030
  Beta  occ. eigenvalues --   -5.97815  -1.01704  -1.01083  -0.91251  -0.90787
  Beta  occ. eigenvalues --   -0.82698  -0.75356  -0.72220  -0.67404  -0.65802
  Beta  occ. eigenvalues --   -0.63506  -0.59134  -0.58581  -0.54590  -0.52316
  Beta  occ. eigenvalues --   -0.49841  -0.45809  -0.44033  -0.42903  -0.42073
  Beta  occ. eigenvalues --   -0.40484  -0.40035  -0.37956  -0.36720  -0.36076
  Beta  occ. eigenvalues --   -0.34997  -0.34380  -0.33462  -0.33172  -0.32341
  Beta  occ. eigenvalues --   -0.31697  -0.31458  -0.29108  -0.28621  -0.27766
  Beta  occ. eigenvalues --   -0.26956  -0.26427  -0.25975  -0.24771  -0.23442
  Beta  occ. eigenvalues --   -0.23037  -0.22539  -0.21746  -0.21385  -0.20770
  Beta  occ. eigenvalues --   -0.18569  -0.17273  -0.16413  -0.16030  -0.13514
  Beta virt. eigenvalues --    0.06765   0.07840   0.08212   0.08897   0.09075
  Beta virt. eigenvalues --    0.09658   0.09920   0.10599   0.10822   0.11449
  Beta virt. eigenvalues --    0.11875   0.12390   0.12553   0.13259   0.13527

 Mulliken charges and spin densities:
               1          2
     1  C    0.214198  -0.879496
     2  C   -1.239674   1.926712
     3  C   -0.019087  -0.457658
     4  C    0.428575  -1.119487
     5  C    0.564660  -1.072490
     6  C   -0.332563  -0.171040
     7  N   -0.379609   0.103618
     8  S    0.401431   0.033422
     9  O   -0.071535  -0.008262
    10  O   -0.247215   0.002486
    11  C   -1.072375   0.013470
    12  C    0.286408   0.037977
    13  N   -0.437594   0.252116
    14  O    0.180185   0.052518
    15  C   -0.321484   0.254008
    16  C   -0.001509  -0.093011
    17  O   -0.297001   0.040492
    18  H   -0.209188   0.381762
    19  H   -0.012560   0.154861
    20  H    0.112958   0.059543
    21  H   -0.152753   0.288079
    22  H   -0.037884   0.169910
    23  H    0.117840   0.047320
    24  H   -0.046297   0.171789
    25  H   -0.179106   0.319129
    26  H   -0.248844   0.404850
    27  H    0.125189   0.067890
    28  H    0.224611  -0.028996
    29  H    0.181631   0.033579
    30  H    0.271747   0.004993
    31  H    0.245105   0.004730
    32  H    0.237177   0.012958
    33  H    0.111870   0.021676
    34  H    0.135498   0.017729
    35  H    0.467195  -0.047176
 Sum of Mulliken charges =  -1.00000   1.00000

 Dipole moment (field-independent basis, Debye):
    X=             -3.9768    Y=             -0.3258    Z=             -1.4284  Tot=              4.2381
 Quadrupole moment (field-independent basis, Debye-Ang):
   XX=           -174.5664   YY=           -154.5594   ZZ=           -132.7457
   XY=             -1.0445   XZ=             -3.1014   YZ=              5.7328

 Summary of Natural Population Analysis:

                                       Natural Population
                Natural  -----------------------------------------------
    Atom  No    Charge         Core      Valence    Rydberg      Total
 -----------------------------------------------------------------------
      C    1   -0.29430      0.99962     2.28690    0.00778     3.29430
      C    2   -0.05414      0.99957     2.04174    0.01283     3.05414
      C    3   -0.28459      0.99963     2.27711    0.00785     3.28459
      C    4   -0.28699      0.99962     2.27949    0.00787     3.28699
      C    5    0.06959      0.99950     1.91484    0.01607     2.93041
      C    6   -0.10435      0.99960     2.09189    0.01287     3.10435
      N    7   -0.44500      0.99974     2.93270    0.01256     3.94500
      S    8    1.10865      4.99930     1.79182    0.10023     6.89135
      O    9   -0.46804      0.99991     3.46266    0.00547     4.46804
      O   10   -0.46720      0.99991     3.46144    0.00586     4.46720
      C   11   -0.29315      0.99953     2.28155    0.01207     3.29315
      C   12    0.07318      0.99959     1.91180    0.01543     2.92682
      N   13   -0.04448      0.99964     2.52917    0.01568     3.54448
      O   14   -0.13451      0.99987     3.12547    0.00916     4.13451
      C   15    0.11805      0.99956     1.86773    0.01466     2.88195
      C   16   -0.19091      0.99950     2.18282    0.00858     3.19091
      O   17   -0.38244      0.99988     3.37595    0.00661     4.38244
      H   18    0.10282      0.00000     0.39629    0.00089     0.39718
      H   19    0.09372      0.00000     0.40502    0.00125     0.40628
      H   20    0.10986      0.00000     0.38891    0.00122     0.39014
      H   21    0.09670      0.00000     0.40242    0.00089     0.40330
      H   22    0.09782      0.00000     0.40140    0.00078     0.40218
      H   23    0.11047      0.00000     0.38833    0.00120     0.38953
      H   24    0.09818      0.00000     0.40075    0.00107     0.40182
      H   25    0.09954      0.00000     0.39931    0.00115     0.40046
      H   26    0.10271      0.00000     0.39621    0.00108     0.39729
      H   27    0.07825      0.00000     0.42037    0.00138     0.42175
      H   28    0.09888      0.00000     0.39996    0.00117     0.40112
      H   29    0.09921      0.00000     0.39950    0.00129     0.40079
      H   30    0.20689      0.00000     0.29033    0.00278     0.29311
      H   31    0.11841      0.00000     0.38044    0.00115     0.38159
      H   32    0.11705      0.00000     0.38205    0.00090     0.38295
      H   33    0.08988      0.00000     0.40920    0.00092     0.41012
      H   34    0.11133      0.00000     0.38765    0.00102     0.38867
      H   35    0.24889      0.00000     0.24755    0.00356     0.25111
 =======================================================================
   * Total *   -0.00000     20.99396    48.71077    0.29527    70.00000

 Normal termination of Gaussian 16 at Mon Dec 14 14:23:04 2020.
