 Gaussian 16, Revision A.03,

 -----------------------------------------------------------
 # opt freq B3LYP/6-31G(d) empiricaldispersion=gd3bj scf=xqc
 -----------------------------------------------------------

 ------------------------------
 CID_78973963_JID_7517_neutraal
 ------------------------------
 Symbolic Z-matrix:
 Charge =  0 Multiplicity = 1

 SCF Done:  E(RB3LYP) =  -1090.64966637     A.U. after   16 cycles
 SCF Done:  E(RB3LYP) =  -1090.65350016     A.U. after   12 cycles
 SCF Done:  E(RB3LYP) =  -1090.65381167     A.U. after   12 cycles
 SCF Done:  E(RB3LYP) =  -1090.65388329     A.U. after   12 cycles
 SCF Done:  E(RB3LYP) =  -1090.65403845     A.U. after   11 cycles
 SCF Done:  E(RB3LYP) =  -1090.65429223     A.U. after   12 cycles
 SCF Done:  E(RB3LYP) =  -1090.65428049     A.U. after   12 cycles
 SCF Done:  E(RB3LYP) =  -1090.65443860     A.U. after   12 cycles
 SCF Done:  E(RB3LYP) =  -1090.65435921     A.U. after   12 cycles
 SCF Done:  E(RB3LYP) =  -1090.65447407     A.U. after   12 cycles
 SCF Done:  E(RB3LYP) =  -1090.65457317     A.U. after   10 cycles
 SCF Done:  E(RB3LYP) =  -1090.65457352     A.U. after    9 cycles
 SCF Done:  E(RB3LYP) =  -1090.65457370     A.U. after    8 cycles
 SCF Done:  E(RB3LYP) =  -1090.65457374     A.U. after    8 cycles
 SCF Done:  E(RB3LYP) =  -1090.65457376     A.U. after    8 cycles
 SCF Done:  E(RB3LYP) =  -1090.65457376     A.U. after    6 cycles
 Optimization completed.
    -- Stationary point found.
 Normal termination of Gaussian 16 at Fri Dec 11 12:38:44 2020.

 --------------------------------------------------------------------
 #N Geom=AllCheck Guess=TCheck SCRF=Check GenChk RB3LYP/6-31G(d) Freq
 --------------------------------------------------------------------

 Structure from the checkpoint file:  "JID_7517.chk"
 ------------------------------
 CID_78973963_JID_7517_neutraal
 ------------------------------
 Charge =  0 Multiplicity = 1

 SCF Done:  E(RB3LYP) =  -1090.65457376     A.U. after    1 cycles

  Exact polarizability: 248.998   4.486 164.166   6.626   0.608 108.436
 Approx polarizability: 362.349   8.018 274.068  18.393   9.092 177.207

                      1                      2                      3
                      A                      A                      A
 Frequencies --     16.7169                30.1832                52.9713
 Red. masses --      1.0288                 3.7984                 8.5274
 Frc consts  --      0.0002                 0.0020                 0.0141
 IR Inten    --      0.1682                 0.0194                 0.1743

                      4                      5                      6
                      A                      A                      A
 Frequencies --     69.3865                81.0135               113.1211
 Red. masses --      6.0407                 4.6122                 1.4384
 Frc consts  --      0.0171                 0.0178                 0.0108
 IR Inten    --      0.5058                 1.4510                 0.6030

                      7                      8                      9
                      A                      A                      A
 Frequencies --    138.4377               148.2761               162.4034
 Red. masses --      3.1638                 3.5235                 2.0235
 Frc consts  --      0.0357                 0.0456                 0.0314
 IR Inten    --      0.6299                 0.3362                 0.5489

                     10                     11                     12
                      A                      A                      A
 Frequencies --    169.3987               204.6553               225.8782
 Red. masses --      1.3694                 3.4069                 4.7883
 Frc consts  --      0.0232                 0.0841                 0.1439
 IR Inten    --      0.3675                 0.2775                 0.2183

                     13                     14                     15
                      A                      A                      A
 Frequencies --    243.5431               315.1995               317.2430
 Red. masses --      3.3305                 3.7053                 3.0693
 Frc consts  --      0.1164                 0.2169                 0.1820
 IR Inten    --      0.8563                 0.3963                 1.0770

                     16                     17                     18
                      A                      A                      A
 Frequencies --    342.8054               350.0296               430.6527
 Red. masses --      4.4668                 4.2724                 4.8947
 Frc consts  --      0.3093                 0.3084                 0.5348
 IR Inten    --      2.8203                 0.2229                 6.9047

                     19                     20                     21
                      A                      A                      A
 Frequencies --    449.2536               461.0251               476.7199
 Red. masses --      4.8218                 3.8834                 4.3298
 Frc consts  --      0.5734                 0.4863                 0.5797
 IR Inten    --      8.7250                 6.2398                 3.2242

                     22                     23                     24
                      A                      A                      A
 Frequencies --    490.0798               520.8153               556.3932
 Red. masses --      4.0099                 3.3131                 5.8440
 Frc consts  --      0.5674                 0.5295                 1.0659
 IR Inten    --      1.9501                15.7316                 3.8709

                     25                     26                     27
                      A                      A                      A
 Frequencies --    582.7608               599.2195               651.6369
 Red. masses --      3.8314                 1.2886                 4.4812
 Frc consts  --      0.7666                 0.2726                 1.1211
 IR Inten    --      5.9161                68.5176                12.9145

                     28                     29                     30
                      A                      A                      A
 Frequencies --    659.0952               700.9203               739.2779
 Red. masses --      4.4681                 5.7767                 3.7652
 Frc consts  --      1.1436                 1.6721                 1.2124
 IR Inten    --     34.0799                 6.2820                 7.1461

                     31                     32                     33
                      A                      A                      A
 Frequencies --    751.7688               756.7834               764.2320
 Red. masses --      5.5499                 6.1076                 4.6979
 Frc consts  --      1.8480                 2.0609                 1.6166
 IR Inten    --     11.8283                35.1147                 7.6520

                     34                     35                     36
                      A                      A                      A
 Frequencies --    832.8434               874.9930               898.7704
 Red. masses --      1.2877                 5.5168                 1.4019
 Frc consts  --      0.5263                 2.4885                 0.6672
 IR Inten    --     17.8908                 1.5495                 6.2428

                     37                     38                     39
                      A                      A                      A
 Frequencies --    908.5890               958.7446               966.4526
 Red. masses --      1.4151                 1.8040                 2.1140
 Frc consts  --      0.6883                 0.9770                 1.1634
 IR Inten    --      2.8813                 1.5152                 2.2311

                     40                     41                     42
                      A                      A                      A
 Frequencies --   1001.6813              1026.3093              1039.8860
 Red. masses --      1.7629                 1.7132                 1.5148
 Frc consts  --      1.0422                 1.0632                 0.9651
 IR Inten    --      0.8982                24.3902                 2.0391

                     43                     44                     45
                      A                      A                      A
 Frequencies --   1053.4588              1073.6025              1076.5219
 Red. masses --      2.1930                 1.5182                 1.4964
 Frc consts  --      1.4339                 1.0310                 1.0218
 IR Inten    --      2.8910                 0.9768                 2.3565

                     46                     47                     48
                      A                      A                      A
 Frequencies --   1079.6234              1093.6814              1171.8317
 Red. masses --      1.5121                 3.8742                 1.6957
 Frc consts  --      1.0385                 2.7303                 1.3720
 IR Inten    --      9.9607                19.9930                28.5810

                     49                     50                     51
                      A                      A                      A
 Frequencies --   1190.6010              1212.0088              1228.1423
 Red. masses --      2.0825                 2.5351                 1.6969
 Frc consts  --      1.7393                 2.1941                 1.5080
 IR Inten    --    438.3021                 2.5460                19.9316

                     52                     53                     54
                      A                      A                      A
 Frequencies --   1245.3096              1296.3182              1319.3081
 Red. masses --      1.8460                 4.9967                 1.5480
 Frc consts  --      1.6867                 4.9472                 1.5875
 IR Inten    --      0.3450                 2.6994                 1.1119

                     55                     56                     57
                      A                      A                      A
 Frequencies --   1348.9235              1371.6184              1427.0315
 Red. masses --      5.3646                 2.8340                 2.5536
 Frc consts  --      5.7513                 3.1413                 3.0639
 IR Inten    --      1.2038                44.8532                50.3689

                     58                     59                     60
                      A                      A                      A
 Frequencies --   1437.8444              1443.8198              1446.6037
 Red. masses --      2.2518                 1.2552                 1.3544
 Frc consts  --      2.7429                 1.5417                 1.6699
 IR Inten    --     16.4996                 1.2988                 7.8726

                     61                     62                     63
                      A                      A                      A
 Frequencies --   1447.8415              1504.5384              1511.8835
 Red. masses --      1.6923                 1.9674                 1.0796
 Frc consts  --      2.0901                 2.6239                 1.4540
 IR Inten    --     17.7878                70.1670                 4.0884

                     64                     65                     66
                      A                      A                      A
 Frequencies --   1515.6010              1521.1059              1524.3340
 Red. masses --      1.0444                 1.2090                 1.1551
 Frc consts  --      1.4135                 1.6482                 1.5814
 IR Inten    --      4.6890                43.7846                36.4260

                     67                     68                     69
                      A                      A                      A
 Frequencies --   1526.2476              1534.1836              1552.1451
 Red. masses --      1.1321                 1.3972                 2.6566
 Frc consts  --      1.5538                 1.9376                 3.7708
 IR Inten    --     49.2198                39.5109                10.6874

                     70                     71                     72
                      A                      A                      A
 Frequencies --   1615.4584              1624.8247              1672.2165
 Red. masses --      6.1093                 5.2349                 5.8424
 Frc consts  --      9.3936                 8.1428                 9.6257
 IR Inten    --     35.0677                 0.8188                 4.8256

                     73                     74                     75
                      A                      A                      A
 Frequencies --   1813.4800              3045.2576              3047.0585
 Red. masses --      9.7695                 1.0375                 1.0399
 Frc consts  --     18.9298                 5.6689                 5.6886
 IR Inten    --    442.7792                37.0424                18.9426

                     76                     77                     78
                      A                      A                      A
 Frequencies --   3052.0928              3097.4279              3101.0644
 Red. masses --      1.0394                 1.1009                 1.0987
 Frc consts  --      5.7049                 6.2230                 6.2249
 IR Inten    --     30.1716                18.4414                22.1499

                     79                     80                     81
                      A                      A                      A
 Frequencies --   3108.2952              3128.9112              3136.9158
 Red. masses --      1.0964                 1.1009                 1.1024
 Frc consts  --      6.2414                 6.3502                 6.3915
 IR Inten    --     14.4715                14.9165                13.8099

                     82                     83                     84
                      A                      A                      A
 Frequencies --   3141.4353              3173.3013              3188.4242
 Red. masses --      1.1004                 1.0867                 1.0907
 Frc consts  --      6.3982                 6.4476                 6.5327
 IR Inten    --      9.6198                10.2028                20.7381

                     85                     86                     87
                      A                      A                      A
 Frequencies --   3191.5384              3231.5199              3704.1943
 Red. masses --      1.0941                 1.0932                 1.0641
 Frc consts  --      6.5661                 6.7260                 8.6026
 IR Inten    --     19.7130                 0.8430                92.4853

 - Thermochemistry -
 -------------------
 Temperature   298.150 Kelvin.  Pressure   1.00000 Atm.
 Atom     1 has atomic number  6 and mass  12.00000

 Molecular mass:   246.07145 amu.
 Principal axes and moments of inertia in atomic units:
                           1         2         3
     Eigenvalues --  2146.118017640.232828725.02526
           X            0.99994   0.01077  -0.00077
           Y           -0.01078   0.99972  -0.02095
           Z            0.00054   0.02096   0.99978
 This molecule is an asymmetric top.
 Rotational symmetry number  1.
 Warning -- assumption of classical behavior for rotation
           may cause significant error
 Rotational temperatures (Kelvin)      0.04036     0.01134     0.00993
 Rotational constants (GHZ):           0.84093     0.23622     0.20685
 Zero-point vibrational energy     647824.0 (Joules/Mol)
                                  154.83365 (Kcal/Mol)
 Warning -- explicit consideration of  26 degrees of freedom as
           vibrations may cause significant error
 Vibrational temperatures:     24.05    43.43    76.21    99.83   116.56
          (Kelvin)            162.76   199.18   213.34   233.66   243.73
                              294.45   324.99   350.40   453.50   456.44
                              493.22   503.61   619.61   646.38   663.31
                              685.89   705.12   749.34   800.53   838.46
                              862.14   937.56   948.29  1008.47  1063.66
                             1081.63  1088.84  1099.56  1198.28  1258.92
                             1293.13  1307.26  1379.42  1390.51  1441.20
                             1476.63  1496.16  1515.69  1544.67  1548.87
                             1553.34  1573.56  1686.00  1713.01  1743.81
                             1767.02  1791.72  1865.11  1898.19  1940.80
                             1973.45  2053.18  2068.74  2077.33  2081.34
                             2083.12  2164.70  2175.26  2180.61  2188.53
                             2193.18  2195.93  2207.35  2233.19  2324.28
                             2337.76  2405.95  2609.19  4381.45  4384.04
                             4391.28  4456.51  4461.74  4472.14  4501.81
                             4513.32  4519.82  4565.67  4587.43  4591.91
                             4649.44  5329.51

 Zero-point correction=                           0.246743 (Hartree/Particle)
 Thermal correction to Energy=                    0.263611
 Thermal correction to Enthalpy=                  0.264556
 Thermal correction to Gibbs Free Energy=         0.200125
 Sum of electronic and zero-point Energies=          -1090.407831
 Sum of electronic and thermal Energies=             -1090.390962
 Sum of electronic and thermal Enthalpies=           -1090.390018
 Sum of electronic and thermal Free Energies=        -1090.454449

                     E (Thermal)             CV                S
                      KCal/Mol        Cal/Mol-Kelvin    Cal/Mol-Kelvin
 Total                  165.419             62.156            135.606
 Electronic               0.000              0.000              0.000
 Translational            0.889              2.981             42.402
 Rotational               0.889              2.981             33.325
 Vibrational            163.641             56.195             59.879
 Vibration     1          0.593              1.986              6.990
 Vibration     2          0.594              1.984              5.817
 Vibration     3          0.596              1.976              4.703
 Vibration     4          0.598              1.969              4.171
 Vibration     5          0.600              1.962              3.866
 Vibration     6          0.607              1.939              3.215
 Vibration     7          0.614              1.915              2.825
 Vibration     8          0.618              1.905              2.694
 Vibration     9          0.623              1.889              2.522
 Vibration    10          0.625              1.880              2.442
 Vibration    11          0.640              1.833              2.091
 Vibration    12          0.650              1.802              1.911
 Vibration    13          0.659              1.773              1.777
 Vibration    14          0.703              1.645              1.335
 Vibration    15          0.704              1.641              1.324
 Vibration    16          0.722              1.590              1.199
 Vibration    17          0.727              1.575              1.166
 Vibration    18          0.792              1.403              0.857
 Vibration    19          0.808              1.363              0.798
 Vibration    20          0.819              1.336              0.763
 Vibration    21          0.833              1.302              0.719
 Vibration    22          0.846              1.272              0.683
 Vibration    23          0.876              1.204              0.608
 Vibration    24          0.912              1.126              0.531
 Vibration    25          0.940              1.069              0.480
 Vibration    26          0.957              1.033              0.451

 Optimization completed.
    -- Stationary point found.
 Normal termination of Gaussian 16 at Fri Dec 11 12:49:30 2020.

 ----------------------------------------------------------------------
 # B3LYP/6-311++G(d,p) empiricaldispersion=gd3bj scf=xqc pop=npa geom=c
 heck
 ----------------------------------------------------------------------

 --------------------------------------
 CID_78973963_JID_7517_Energie_neutraal
 --------------------------------------
 Structure from the checkpoint file:  "JID_7517.chk"
 Charge =  0 Multiplicity = 1

 SCF Done:  E(RB3LYP) =  -1090.87232940     A.U. after   16 cycles
 Normal termination of Gaussian 16 at Fri Dec 11 12:54:16 2020.

 ----------------------------------------------------------------------
 # B3LYP/6-311++G(d,p) empiricaldispersion=gd3bj scf=xqc pop=npa geom=c
 heck
 ----------------------------------------------------------------------

 ------------------------------------
 CID_78973963_JID_7517_Energie_kation
 ------------------------------------
 Structure from the checkpoint file:  "JID_7517.chk"
 Charge =  1 Multiplicity = 2

 SCF Done:  E(UB3LYP) =  -1090.57835019     A.U. after   31 cycles
 Normal termination of Gaussian 16 at Fri Dec 11 13:05:51 2020.
 Gaussian 16:  ES64L-G16RevA.03 25-Dec-2016

 ----------------------------------------------------------------------
 # B3LYP/6-311++G(d,p) empiricaldispersion=gd3bj scf=xqc pop=npa geom=c
 heck
 ----------------------------------------------------------------------

 -----------------------------------
 CID_78973963_JID_7517_Energie_anion
 -----------------------------------
 Structure from the checkpoint file:  "JID_7517.chk"
 Charge = -1 Multiplicity = 2

                         Standard orientation:
 ---------------------------------------------------------------------
 Center     Atomic      Atomic             Coordinates (Angstroms)
 Number     Number       Type             X           Y           Z
 ---------------------------------------------------------------------
      1          6           0       -4.003463   -2.462461    0.923841
      2          6           0       -3.344461   -1.229516    0.355687
      3          6           0       -1.971334   -1.021582    0.476647
      4          6           0       -1.340648    0.120868   -0.043716
      5          6           0       -2.101358    1.086235   -0.734646
      6          6           0       -3.480881    0.872267   -0.849376
      7          6           0       -4.094877   -0.254926   -0.314508
      8          6           0       -1.475056    2.304962   -1.366608
      9          6           0        0.118092    0.266630    0.129136
     10          6           0        0.819171    1.249317    0.806652
     11          6           0        2.223497    1.024981    0.763258
     12          6           0        2.583592   -0.106223    0.070671
     13         16           0        1.184220   -0.933200   -0.556662
     14          6           0        3.956334   -0.572831   -0.121626
     15          8           0        4.947564   -0.010515    0.301625
     16          8           0        4.017670   -1.726751   -0.838962
     17          6           0        0.184075    2.394540    1.545256
     18          1           0       -4.457212   -3.071628    0.132364
     19          1           0       -3.282498   -3.090429    1.455725
     20          1           0       -4.803427   -2.199903    1.626519
     21          1           0       -1.363615   -1.754307    1.000979
     22          1           0       -4.081211    1.604602   -1.383846
     23          1           0       -5.168652   -0.386389   -0.426596
     24          1           0       -1.404015    3.139134   -0.657761
     25          1           0       -0.461573    2.097987   -1.721946
     26          1           0       -2.074926    2.650162   -2.214411
     27          1           0        2.961471    1.663471    1.236110
     28          1           0        4.964551   -1.946822   -0.908858
     29          1           0        0.623513    2.504723    2.542859
     30          1           0        0.333699    3.344969    1.017875
     31          1           0       -0.891603    2.240197    1.662254
 ---------------------------------------------------------------------

 SCF Done:  E(UB3LYP) =  -1090.88449017     A.U. after   26 cycles

 The electronic state is 2-A.
 Alpha  occ. eigenvalues --  -88.71592 -19.02243 -18.94631 -10.13463 -10.07224
 Alpha  occ. eigenvalues --  -10.06642 -10.06124 -10.05828 -10.05769 -10.05476
 Alpha  occ. eigenvalues --  -10.05295 -10.05062 -10.04924 -10.04503 -10.03774
 Alpha  occ. eigenvalues --  -10.03653 -10.01765  -7.80256  -5.76559  -5.76194
 Alpha  occ. eigenvalues --   -5.75860  -0.95685  -0.86237  -0.75251  -0.72976
 Alpha  occ. eigenvalues --   -0.67812  -0.64278  -0.63316  -0.61405  -0.58234
 Alpha  occ. eigenvalues --   -0.55156  -0.54745  -0.51112  -0.48000  -0.46305
 Alpha  occ. eigenvalues --   -0.41327  -0.39150  -0.36753  -0.36335  -0.35323
 Alpha  occ. eigenvalues --   -0.33655  -0.32657  -0.32467  -0.31510  -0.30772
 Alpha  occ. eigenvalues --   -0.30233  -0.29853  -0.29376  -0.29112  -0.28620
 Alpha  occ. eigenvalues --   -0.26826  -0.26022  -0.24787  -0.23914  -0.23312
 Alpha  occ. eigenvalues --   -0.22622  -0.21918  -0.21481  -0.19276  -0.18171
 Alpha  occ. eigenvalues --   -0.14216  -0.13098  -0.12641  -0.10643  -0.09009
 Alpha  occ. eigenvalues --    0.04286
 Alpha virt. eigenvalues --    0.07087   0.08087   0.08894   0.09178   0.09536
 Alpha virt. eigenvalues --    0.09643   0.10176   0.10979   0.11539   0.12025
 Alpha virt. eigenvalues --    0.12322   0.12424   0.13628   0.14536   0.14716

  Beta  occ. eigenvalues --  -88.71525 -19.02183 -18.94355 -10.13214 -10.07224
  Beta  occ. eigenvalues --  -10.06640 -10.06034 -10.05854 -10.05721 -10.05482
  Beta  occ. eigenvalues --  -10.05167 -10.05015 -10.04917 -10.04182 -10.03839
  Beta  occ. eigenvalues --  -10.03464 -10.01567  -7.80197  -5.76527  -5.76164
  Beta  occ. eigenvalues --   -5.75644  -0.95411  -0.85821  -0.75026  -0.72700
  Beta  occ. eigenvalues --   -0.67683  -0.63981  -0.63192  -0.61342  -0.57743
  Beta  occ. eigenvalues --   -0.54915  -0.54542  -0.50694  -0.47848  -0.46169
  Beta  occ. eigenvalues --   -0.40955  -0.38974  -0.36607  -0.36199  -0.35161
  Beta  occ. eigenvalues --   -0.33326  -0.32557  -0.32391  -0.31406  -0.30474
  Beta  occ. eigenvalues --   -0.29795  -0.29310  -0.29290  -0.28951  -0.28517
  Beta  occ. eigenvalues --   -0.26768  -0.25831  -0.24581  -0.23750  -0.23110
  Beta  occ. eigenvalues --   -0.22373  -0.21622  -0.20845  -0.18986  -0.17020
  Beta  occ. eigenvalues --   -0.13700  -0.12812  -0.12105  -0.09552  -0.07424
  Beta virt. eigenvalues --    0.07025   0.08027   0.08809   0.08964   0.09549
  Beta virt. eigenvalues --    0.09635   0.10125   0.10573   0.11016   0.11903
  Beta virt. eigenvalues --    0.12086   0.12319   0.12381   0.13578   0.14588

 Mulliken charges and spin densities:
               1          2
     1  C   -0.535117  -0.002815
     2  C    0.557380   0.025755
     3  C   -0.766562  -0.021254
     4  C    0.383408   0.025281
     5  C    0.559308   0.090568
     6  C   -0.318438  -0.058288
     7  C   -0.387540   0.098968
     8  C   -0.696417  -0.011094
     9  C    0.086647   0.210435
    10  C   -0.510552  -0.023751
    11  C    0.201840   0.218939
    12  C   -0.065054   0.017748
    13  S   -0.563102   0.134920
    14  C    0.430881   0.164533
    15  O   -0.428296   0.099643
    16  O   -0.215985   0.010487
    17  C   -0.762729  -0.014335
    18  H    0.138336   0.000006
    19  H    0.141803   0.000254
    20  H    0.113741   0.019874
    21  H    0.139495   0.004714
    22  H    0.116412   0.003529
    23  H    0.114955  -0.004255
    24  H    0.148344   0.008554
    25  H    0.174959   0.011164
    26  H    0.125073   0.000833
    27  H    0.163369  -0.013732
    28  H    0.255073  -0.001137
    29  H    0.145163  -0.002747
    30  H    0.135519   0.002157
    31  H    0.118085   0.005046
 Sum of Mulliken charges =  -1.00000   1.00000

 Dipole moment (field-independent basis, Debye):
    X=             -6.5397    Y=              0.2005    Z=             -0.2130  Tot=              6.5462
 Quadrupole moment (field-independent basis, Debye-Ang):
   XX=           -169.8638   YY=           -117.4689   ZZ=           -118.2870
   XY=             -3.5855   XZ=             -4.0272   YZ=             -1.8838

 Summary of Natural Population Analysis:

                                       Natural Population
                Natural  -----------------------------------------------
    Atom  No    Charge         Core      Valence    Rydberg      Total
 -----------------------------------------------------------------------
      C    1   -0.28948      0.99964     2.28519    0.00465     3.28948
      C    2   -0.02855      0.99951     2.02092    0.00811     3.02855
      C    3   -0.09907      0.99953     2.08474    0.01480     3.09907
      C    4    0.03972      0.99945     1.95008    0.01076     2.96028
      C    5   -0.01623      0.99953     2.00344    0.01326     3.01623
      C    6   -0.10842      0.99953     2.10016    0.00873     3.10842
      C    7   -0.08496      0.99952     2.07616    0.00928     3.08496
      C    8   -0.29613      0.99964     2.29169    0.00480     3.29613
      C    9   -0.06283      0.99944     2.04416    0.01923     3.06283
      C   10   -0.06509      0.99943     2.05642    0.00923     3.06509
      C   11   -0.06307      0.99946     2.05389    0.00972     3.06307
      C   12   -0.12746      0.99942     2.11574    0.01229     3.12746
      S   13    0.23079      4.99941     2.74807    0.02174     7.76921
      C   14    0.41199      0.99960     1.56363    0.02477     2.58801
      O   15   -0.30845      0.99987     3.30077    0.00781     4.30845
      O   16   -0.35253      0.99988     3.34677    0.00588     4.35253
      C   17   -0.28857      0.99964     2.28427    0.00466     3.28857
      H   18    0.09796      0.00000     0.40103    0.00101     0.40204
      H   19    0.09966      0.00000     0.39942    0.00091     0.40034
      H   20    0.09763      0.00000     0.40135    0.00102     0.40237
      H   21    0.09929      0.00000     0.39896    0.00175     0.40071
      H   22    0.09099      0.00000     0.40752    0.00149     0.40901
      H   23    0.08926      0.00000     0.40921    0.00152     0.41074
      H   24    0.10099      0.00000     0.39794    0.00106     0.39901
      H   25    0.11274      0.00000     0.38626    0.00100     0.38726
      H   26    0.09418      0.00000     0.40477    0.00105     0.40582
      H   27    0.10265      0.00000     0.39619    0.00117     0.39735
      H   28    0.22967      0.00000     0.26700    0.00333     0.27033
      H   29    0.09738      0.00000     0.40156    0.00105     0.40262
      H   30    0.09482      0.00000     0.40401    0.00117     0.40518
      H   31    0.10247      0.00000     0.39665    0.00088     0.39753
 =======================================================================
   * Total *    0.00136     20.99251    43.79799    0.20815    64.99864

 Normal termination of Gaussian 16 at Fri Dec 11 13:15:36 2020.
