 Gaussian 16, Revision A.03,

 -----------------------------------------------------------
 # opt freq B3LYP/6-31G(d) empiricaldispersion=gd3bj scf=xqc
 -----------------------------------------------------------

 ------------------------------
 CID_80742277_JID_9134_neutraal
 ------------------------------
 Symbolic Z-matrix:
 Charge =  0 Multiplicity = 1

 SCF Done:  E(RB3LYP) =  -848.720792128     A.U. after   15 cycles
 SCF Done:  E(RB3LYP) =  -848.724590135     A.U. after   12 cycles
 SCF Done:  E(RB3LYP) =  -848.725064889     A.U. after   13 cycles
 SCF Done:  E(RB3LYP) =  -848.725003665     A.U. after   12 cycles
 SCF Done:  E(RB3LYP) =  -848.725443660     A.U. after   12 cycles
 SCF Done:  E(RB3LYP) =  -848.725454468     A.U. after   12 cycles
 SCF Done:  E(RB3LYP) =  -848.725456744     A.U. after   11 cycles
 SCF Done:  E(RB3LYP) =  -848.725501547     A.U. after   10 cycles
 SCF Done:  E(RB3LYP) =  -848.725503083     A.U. after    9 cycles
 SCF Done:  E(RB3LYP) =  -848.725503425     A.U. after    8 cycles
 SCF Done:  E(RB3LYP) =  -848.725503614     A.U. after    8 cycles
 SCF Done:  E(RB3LYP) =  -848.725503742     A.U. after    8 cycles
 SCF Done:  E(RB3LYP) =  -848.725503818     A.U. after    7 cycles
 SCF Done:  E(RB3LYP) =  -848.725503882     A.U. after    7 cycles
 SCF Done:  E(RB3LYP) =  -848.725503928     A.U. after    6 cycles
 Optimization completed.
    -- Stationary point found.
 Normal termination of Gaussian 16 at Sun Dec 13 16:18:00 2020.

 --------------------------------------------------------------------
 #N Geom=AllCheck Guess=TCheck SCRF=Check GenChk RB3LYP/6-31G(d) Freq
 --------------------------------------------------------------------

 Structure from the checkpoint file:  "JID_9134.chk"
 ------------------------------
 CID_80742277_JID_9134_neutraal
 ------------------------------
 Charge =  0 Multiplicity = 1

 SCF Done:  E(RB3LYP) =  -848.725503928     A.U. after    1 cycles

  Exact polarizability: 183.577  -4.702 173.989  21.236   5.415 145.613
 Approx polarizability: 239.352 -12.755 265.012  47.578  12.995 242.058

                      1                      2                      3
                      A                      A                      A
 Frequencies --     14.0871                30.4603                42.3421
 Red. masses --      4.1256                 8.2068                 4.6535
 Frc consts  --      0.0005                 0.0045                 0.0049
 IR Inten    --      0.1005                 1.5952                 1.6803

                      4                      5                      6
                      A                      A                      A
 Frequencies --     51.8504                65.6807               103.7020
 Red. masses --      4.0520                 5.2755                 3.8185
 Frc consts  --      0.0064                 0.0134                 0.0242
 IR Inten    --      0.0340                 0.0774                 0.2331

                      7                      8                      9
                      A                      A                      A
 Frequencies --    126.0442               150.0180               177.8707
 Red. masses --      4.6259                 2.2861                 2.7494
 Frc consts  --      0.0433                 0.0303                 0.0513
 IR Inten    --      1.1627                 0.2042                 0.1192

                     10                     11                     12
                      A                      A                      A
 Frequencies --    201.0049               212.1895               245.1405
 Red. masses --      4.6775                 1.2432                 1.6847
 Frc consts  --      0.1113                 0.0330                 0.0596
 IR Inten    --      0.0986                 0.1425                 0.1251

                     13                     14                     15
                      A                      A                      A
 Frequencies --    257.9681               270.4456               291.5825
 Red. masses --      1.8049                 3.4805                 1.8402
 Frc consts  --      0.0708                 0.1500                 0.0922
 IR Inten    --      0.4514                 1.7913                 0.1731

                     16                     17                     18
                      A                      A                      A
 Frequencies --    313.8269               358.6237               399.4076
 Red. masses --      4.3718                 2.6093                 2.1760
 Frc consts  --      0.2537                 0.1977                 0.2045
 IR Inten    --      2.7179                 1.0568                 0.3784

                     19                     20                     21
                      A                      A                      A
 Frequencies --    413.1921               424.0004               436.0961
 Red. masses --      3.4461                 2.4265                 3.0728
 Frc consts  --      0.3466                 0.2570                 0.3443
 IR Inten    --      1.1208                 5.1674                 1.9504

                     22                     23                     24
                      A                      A                      A
 Frequencies --    450.7580               475.0070               505.1085
 Red. masses --      3.6209                 3.0645                 3.5389
 Frc consts  --      0.4335                 0.4074                 0.5320
 IR Inten    --      0.6512                 1.4301                 2.1117

                     25                     26                     27
                      A                      A                      A
 Frequencies --    517.1215               537.8747               567.5650
 Red. masses --      3.4378                 3.1476                 3.9702
 Frc consts  --      0.5416                 0.5365                 0.7535
 IR Inten    --      3.1059                 7.7721                17.8708

                     28                     29                     30
                      A                      A                      A
 Frequencies --    600.8816               609.1136               645.5718
 Red. masses --      3.9400                 2.9453                 2.8376
 Frc consts  --      0.8382                 0.6438                 0.6968
 IR Inten    --     45.9886                 8.9087                10.4370

                     31                     32                     33
                      A                      A                      A
 Frequencies --    657.1095               731.8901               745.2546
 Red. masses --      1.6782                 3.5698                 2.4215
 Frc consts  --      0.4269                 1.1266                 0.7924
 IR Inten    --     74.0662                18.8943                28.6901

                     34                     35                     36
                      A                      A                      A
 Frequencies --    765.8910               792.7811               807.5154
 Red. masses --      2.0407                 1.8206                 3.0530
 Frc consts  --      0.7053                 0.6742                 1.1729
 IR Inten    --      1.2442                25.9734                10.0265

                     37                     38                     39
                      A                      A                      A
 Frequencies --    836.1602               856.2268               867.9768
 Red. masses --      2.1568                 3.4512                 2.5471
 Frc consts  --      0.8885                 1.4907                 1.1306
 IR Inten    --      7.8745                 5.5697                 2.3322

                     40                     41                     42
                      A                      A                      A
 Frequencies --    884.6727               905.9296               916.4591
 Red. masses --      1.6061                 1.6643                 2.9391
 Frc consts  --      0.7406                 0.8048                 1.4544
 IR Inten    --      0.6007                 0.8644                 6.0192

                     43                     44                     45
                      A                      A                      A
 Frequencies --    943.7439               957.5831               964.1142
 Red. masses --      1.8852                 1.6225                 1.6847
 Frc consts  --      0.9893                 0.8766                 0.9226
 IR Inten    --      1.1027                 6.6020                11.8985

                     46                     47                     48
                      A                      A                      A
 Frequencies --    972.2566               986.1489               992.7000
 Red. masses --      1.7212                 1.2901                 2.1596
 Frc consts  --      0.9586                 0.7392                 1.2539
 IR Inten    --      9.3600                 0.9239                25.8302

                     49                     50                     51
                      A                      A                      A
 Frequencies --   1010.4465              1024.9419              1030.1298
 Red. masses --      1.4852                 1.5600                 2.7155
 Frc consts  --      0.8935                 0.9656                 1.6978
 IR Inten    --      0.5257                10.7576                80.4298

                     52                     53                     54
                      A                      A                      A
 Frequencies --   1048.2377              1078.2175              1097.0245
 Red. masses --      1.6317                 2.1263                 1.6663
 Frc consts  --      1.0563                 1.4565                 1.1815
 IR Inten    --      8.3219                10.5838                 4.0631

                     55                     56                     57
                      A                      A                      A
 Frequencies --   1114.9155              1116.8254              1127.8291
 Red. masses --      2.0088                 1.5734                 2.6284
 Frc consts  --      1.4712                 1.1563                 1.9698
 IR Inten    --     27.3759                20.1339                53.7632

                     58                     59                     60
                      A                      A                      A
 Frequencies --   1164.8966              1177.6406              1193.5770
 Red. masses --      1.5710                 1.7679                 1.1390
 Frc consts  --      1.2560                 1.4445                 0.9561
 IR Inten    --    123.5491                 6.0067                 3.4624

                     61                     62                     63
                      A                      A                      A
 Frequencies --   1195.0759              1210.2464              1214.3799
 Red. masses --      2.2431                 2.0113                 1.9413
 Frc consts  --      1.8875                 1.7357                 1.6868
 IR Inten    --      1.7217                20.4990                 2.0013

                     64                     65                     66
                      A                      A                      A
 Frequencies --   1252.8688              1256.8702              1261.4300
 Red. masses --      1.6361                 2.0942                 1.4212
 Frc consts  --      1.5132                 1.9492                 1.3324
 IR Inten    --     87.6121               138.1878                29.5637

                     67                     68                     69
                      A                      A                      A
 Frequencies --   1293.5352              1311.8297              1317.1636
 Red. masses --      1.3943                 1.6037                 1.7383
 Frc consts  --      1.3746                 1.6260                 1.7768
 IR Inten    --      2.1547                11.1487                 3.3720

                     70                     71                     72
                      A                      A                      A
 Frequencies --   1321.9215              1347.7633              1353.9218
 Red. masses --      1.2782                 1.3186                 3.3837
 Frc consts  --      1.3161                 1.4112                 3.6545
 IR Inten    --     12.3765                 0.5415                 2.4944

                     73                     74                     75
                      A                      A                      A
 Frequencies --   1364.6295              1375.9451              1387.1670
 Red. masses --      1.3915                 1.4314                 1.4358
 Frc consts  --      1.5267                 1.5967                 1.6278
 IR Inten    --     10.3821                 1.9347                 4.4358

                     76                     77                     78
                      A                      A                      A
 Frequencies --   1399.9557              1406.5504              1407.4751
 Red. masses --      2.2218                 1.4395                 1.4643
 Frc consts  --      2.5655                 1.6779                 1.7091
 IR Inten    --    104.1642                 3.3618                 5.9748

                     79                     80                     81
                      A                      A                      A
 Frequencies --   1412.1470              1428.6209              1440.2474
 Red. masses --      1.3241                 1.4165                 1.2742
 Frc consts  --      1.5557                 1.7034                 1.5573
 IR Inten    --     12.0239                13.2440                 5.1686

                     82                     83                     84
                      A                      A                      A
 Frequencies --   1447.8250              1498.4267              1510.1488
 Red. masses --      1.2621                 2.3260                 1.1213
 Frc consts  --      1.5588                 3.0770                 1.5066
 IR Inten    --      8.6347                14.5094                14.9785

                     85                     86                     87
                      A                      A                      A
 Frequencies --   1516.9482              1517.7596              1527.1054
 Red. masses --      1.0794                 1.0746                 1.0487
 Frc consts  --      1.4635                 1.4585                 1.4409
 IR Inten    --      2.3712                 1.7824                 7.4122

                     88                     89                     90
                      A                      A                      A
 Frequencies --   1527.9475              1539.3215              1541.0444
 Red. masses --      1.0683                 1.1358                 2.1261
 Frc consts  --      1.4694                 1.5857                 2.9748
 IR Inten    --      5.4287                 3.0461                61.8896

                     91                     92                     93
                      A                      A                      A
 Frequencies --   1541.8191              1547.5924              1638.6241
 Red. masses --      1.0767                 1.0721                 6.2687
 Frc consts  --      1.5080                 1.5129                 9.9171
 IR Inten    --      4.4913                 1.5273                 5.6012

                     94                     95                     96
                      A                      A                      A
 Frequencies --   1659.3400              1839.3091              2997.2316
 Red. masses --      5.7602                 9.3966                 1.0828
 Frc consts  --      9.3446                18.7296                 5.7311
 IR Inten    --     12.2333               265.8232                19.2784

                     97                     98                     99
                      A                      A                      A
 Frequencies --   3018.4265              3034.1852              3044.4975
 Red. masses --      1.0778                 1.0707                 1.0367
 Frc consts  --      5.7857                 5.8078                 5.6613
 IR Inten    --     14.6096                72.3455                25.9746

                    100                    101                    102
                      A                      A                      A
 Frequencies --   3051.1849              3056.2183              3059.9096
 Red. masses --      1.0550                 1.0494                 1.0746
 Frc consts  --      5.7870                 5.7751                 5.9280
 IR Inten    --     13.4362                12.8356                24.3550

                    103                    104                    105
                      A                      A                      A
 Frequencies --   3061.4096              3075.8871              3081.9504
 Red. masses --      1.0695                 1.0932                 1.0663
 Frc consts  --      5.9056                 6.0939                 5.9674
 IR Inten    --     26.7688                42.4111                 7.7807

                    106                    107                    108
                      A                      A                      A
 Frequencies --   3098.4309              3108.4191              3109.8102
 Red. masses --      1.1017                 1.1027                 1.1022
 Frc consts  --      6.2316                 6.2776                 6.2803
 IR Inten    --     19.6655                32.8694                44.3542

                    109                    110                    111
                      A                      A                      A
 Frequencies --   3112.8786              3119.1197              3129.1446
 Red. masses --      1.1019                 1.0999                 1.1011
 Frc consts  --      6.2910                 6.3049                 6.3525
 IR Inten    --     40.8757                58.1172                29.4387

                    112                    113                    114
                      A                      A                      A
 Frequencies --   3164.1007              3188.2118              3199.9703
 Red. masses --      1.0977                 1.0857                 1.0903
 Frc consts  --      6.4748                 6.5024                 6.5780
 IR Inten    --      1.8550                 2.2200                11.7162

                    115                    116                    117
                      A                      A                      A
 Frequencies --   3211.8858              3228.5410              3681.6513
 Red. masses --      1.0956                 1.0934                 1.0638
 Frc consts  --      6.6591                 6.7147                 8.4959
 IR Inten    --     20.9953                 9.0994                47.9349

 - Thermochemistry -
 -------------------
 Temperature   298.150 Kelvin.  Pressure   1.00000 Atm.
 Atom     1 has atomic number  6 and mass  12.00000

 Molecular mass:   262.15689 amu.
 Principal axes and moments of inertia in atomic units:
                           1         2         3
     Eigenvalues --  3125.987417973.607889065.74808
           X            0.99992   0.01154  -0.00462
           Y           -0.01159   0.99987  -0.01138
           Z            0.00449   0.01143   0.99992
 This molecule is an asymmetric top.
 Rotational symmetry number  1.
 Warning -- assumption of classical behavior for rotation
           may cause significant error
 Rotational temperatures (Kelvin)      0.02771     0.01086     0.00955
 Rotational constants (GHZ):           0.57733     0.22634     0.19907
 Zero-point vibrational energy     938528.1 (Joules/Mol)
                                  224.31361 (Kcal/Mol)
 Warning -- explicit consideration of  29 degrees of freedom as
           vibrations may cause significant error
 Vibrational temperatures:     20.27    43.83    60.92    74.60    94.50
          (Kelvin)            149.20   181.35   215.84   255.92   289.20
                              305.29   352.70   371.16   389.11   419.52
                              451.53   515.98   574.66   594.49   610.04
                              627.45   648.54   683.43   726.74   744.02
                              773.88   816.60   864.53   876.38   928.83
                              945.43  1053.03  1072.26  1101.95  1140.64
                             1161.83  1203.05  1231.92  1248.82  1272.85
                             1303.43  1318.58  1357.84  1377.75  1387.15
                             1398.86  1418.85  1428.27  1453.81  1474.66
                             1482.13  1508.18  1551.31  1578.37  1604.11
                             1606.86  1622.69  1676.03  1694.36  1717.29
                             1719.45  1741.27  1747.22  1802.60  1808.36
                             1814.92  1861.11  1887.43  1895.10  1901.95
                             1939.13  1947.99  1963.40  1979.68  1995.82
                             2014.22  2023.71  2025.04  2031.76  2055.47
                             2072.19  2083.10  2155.90  2172.77  2182.55
                             2183.72  2197.16  2198.38  2214.74  2217.22
                             2218.33  2226.64  2357.61  2387.42  2646.36
                             4312.35  4342.84  4365.52  4380.35  4389.97
                             4397.22  4402.53  4404.69  4425.52  4434.24
                             4457.95  4472.32  4474.32  4478.74  4487.72
                             4502.14  4552.44  4587.13  4604.04  4621.19
                             4645.15  5297.08

 Zero-point correction=                           0.357466 (Hartree/Particle)
 Thermal correction to Energy=                    0.375632
 Thermal correction to Enthalpy=                  0.376576
 Thermal correction to Gibbs Free Energy=         0.309370
 Sum of electronic and zero-point Energies=           -848.368037
 Sum of electronic and thermal Energies=              -848.349872
 Sum of electronic and thermal Enthalpies=            -848.348928
 Sum of electronic and thermal Free Energies=         -848.416134

                     E (Thermal)             CV                S
                      KCal/Mol        Cal/Mol-Kelvin    Cal/Mol-Kelvin
 Total                  235.713             70.682            141.448
 Electronic               0.000              0.000              0.000
 Translational            0.889              2.981             42.591
 Rotational               0.889              2.981             33.779
 Vibrational            233.935             64.721             65.078
 Vibration     1          0.593              1.986              7.330
 Vibration     2          0.594              1.984              5.799
 Vibration     3          0.595              1.980              5.146
 Vibration     4          0.596              1.977              4.746
 Vibration     5          0.597              1.971              4.279
 Vibration     6          0.605              1.946              3.384
 Vibration     7          0.611              1.927              3.006
 Vibration     8          0.618              1.903              2.672
 Vibration     9          0.628              1.870              2.351
 Vibration    10          0.638              1.838              2.124
 Vibration    11          0.643              1.822              2.025
 Vibration    12          0.660              1.771              1.765
 Vibration    13          0.667              1.749              1.675
 Vibration    14          0.674              1.728              1.593
 Vibration    15          0.687              1.689              1.465
 Vibration    16          0.702              1.647              1.342
 Vibration    17          0.733              1.558              1.128
 Vibration    18          0.765              1.471              0.965
 Vibration    19          0.777              1.442              0.915
 Vibration    20          0.786              1.418              0.878
 Vibration    21          0.797              1.392              0.839
 Vibration    22          0.810              1.359              0.793
 Vibration    23          0.832              1.305              0.724
 Vibration    24          0.860              1.239              0.645
 Vibration    25          0.872              1.212              0.617
 Vibration    26          0.893              1.166              0.570
 Vibration    27          0.924              1.101              0.509
 Vibration    28          0.959              1.030              0.448
 Vibration    29          0.968              1.013              0.434

                           ! Non-Optimized Parameters !
 Normal termination of Gaussian 16 at Sun Dec 13 16:41:09 2020.

 ----------------------------------------------------------------------
 # B3LYP/6-311++G(d,p) empiricaldispersion=gd3bj scf=xqc pop=npa geom=c
 heck
 ----------------------------------------------------------------------

 --------------------------------------
 CID_80742277_JID_9134_Energie_neutraal
 --------------------------------------
 Structure from the checkpoint file:  "JID_9134.chk"
 Charge =  0 Multiplicity = 1

 SCF Done:  E(RB3LYP) =  -848.966133770     A.U. after   16 cycles
 Normal termination of Gaussian 16 at Sun Dec 13 16:52:44 2020.

 ----------------------------------------------------------------------
 # B3LYP/6-311++G(d,p) empiricaldispersion=gd3bj scf=xqc pop=npa geom=c
 heck
 ----------------------------------------------------------------------

 ------------------------------------
 CID_80742277_JID_9134_Energie_kation
 ------------------------------------
 Structure from the checkpoint file:  "JID_9134.chk"
 Charge =  1 Multiplicity = 2

 SCF Done:  E(UB3LYP) =  -848.658199662     A.U. after   26 cycles
 Normal termination of Gaussian 16 at Sun Dec 13 17:19:22 2020.
 Gaussian 16:  ES64L-G16RevA.03 25-Dec-2016

 ----------------------------------------------------------------------
 # B3LYP/6-311++G(d,p) empiricaldispersion=gd3bj scf=xqc pop=npa geom=c
 heck
 ----------------------------------------------------------------------

 -----------------------------------
 CID_80742277_JID_9134_Energie_anion
 -----------------------------------
 Structure from the checkpoint file:  "JID_9134.chk"
 Charge = -1 Multiplicity = 2

                         Standard orientation:
 ---------------------------------------------------------------------
 Center     Atomic      Atomic             Coordinates (Angstroms)
 Number     Number       Type             X           Y           Z
 ---------------------------------------------------------------------
      1          6           0       -3.717801    0.596898    1.425020
      2          6           0       -3.804299   -0.304467    0.183855
      3          6           0       -3.628273    0.498237   -1.119711
      4          6           0       -2.190467    1.006131   -1.300439
      5          6           0       -1.206147   -0.164096   -1.283580
      6          6           0       -1.351092   -0.992123   -0.005535
      7          6           0       -2.797607   -1.480195    0.196855
      8          6           0       -2.908257   -2.359284    1.446252
      9          8           0        0.162767    0.242318   -1.539015
     10          6           0        0.836519    0.932753   -0.554722
     11          6           0        0.639038    2.309250   -0.395316
     12          6           0        1.343495    3.015083    0.577409
     13          6           0        2.262331    2.350941    1.390575
     14          6           0        2.485494    0.988053    1.208172
     15          6           0        1.786606    0.263376    0.235672
     16          6           0        2.066090   -1.215039    0.024993
     17          6           0        3.553025   -1.465255   -0.095326
     18          8           0        4.307616   -1.682744    0.828553
     19          8           0        3.977024   -1.381320   -1.378440
     20          1           0       -4.418871    1.434721    1.335403
     21          1           0       -2.717811    1.020166    1.566284
     22          1           0       -3.974552    0.048456    2.336569
     23          1           0       -4.812680   -0.742223    0.171154
     24          1           0       -3.892326   -0.143397   -1.972328
     25          1           0       -4.326027    1.344388   -1.137922
     26          1           0       -1.943392    1.703496   -0.493366
     27          1           0       -2.087519    1.553916   -2.244295
     28          1           0       -1.420380   -0.807631   -2.144863
     29          1           0       -1.034317   -0.391327    0.856236
     30          1           0       -0.680389   -1.857072   -0.051652
     31          1           0       -3.050487   -2.108732   -0.671410
     32          1           0       -3.941763   -2.686691    1.610537
     33          1           0       -2.283457   -3.254441    1.348585
     34          1           0       -2.578510   -1.824705    2.344035
     35          1           0       -0.053665    2.817255   -1.056211
     36          1           0        1.179362    4.082788    0.692356
     37          1           0        2.814896    2.893246    2.152078
     38          1           0        3.220245    0.468692    1.816569
     39          1           0        1.707153   -1.799691    0.878109
     40          1           0        1.559032   -1.550773   -0.879492
     41          1           0        4.944266   -1.508054   -1.350200
 ---------------------------------------------------------------------

 SCF Done:  E(UB3LYP) =  -848.955449181     A.U. after   33 cycles
 SCF Done:  E(UB3LYP) =  -848.955449181     a.u. after    1 cycles

 The electronic state is 2-A.
 Alpha  occ. eigenvalues --  -19.08539 -19.04169 -19.02769 -10.21741 -10.13799
 Alpha  occ. eigenvalues --  -10.13112 -10.09813 -10.09586 -10.08780 -10.08634
 Alpha  occ. eigenvalues --  -10.08572 -10.08484 -10.07907 -10.07656 -10.07100
 Alpha  occ. eigenvalues --  -10.07054 -10.06972 -10.06314 -10.06273  -1.02467
 Alpha  occ. eigenvalues --   -0.95703  -0.93434  -0.77189  -0.74855  -0.70369
 Alpha  occ. eigenvalues --   -0.67852  -0.66804  -0.64865  -0.62824  -0.60196
 Alpha  occ. eigenvalues --   -0.57254  -0.53885  -0.53519  -0.50829  -0.50414
 Alpha  occ. eigenvalues --   -0.48209  -0.44640  -0.42557  -0.41575  -0.40317
 Alpha  occ. eigenvalues --   -0.39740  -0.38448  -0.37767  -0.37382  -0.36961
 Alpha  occ. eigenvalues --   -0.36336  -0.34958  -0.33477  -0.32578  -0.32233
 Alpha  occ. eigenvalues --   -0.31927  -0.31206  -0.30459  -0.30244  -0.29132
 Alpha  occ. eigenvalues --   -0.28597  -0.27845  -0.27784  -0.27198  -0.26888
 Alpha  occ. eigenvalues --   -0.26021  -0.24594  -0.24128  -0.23179  -0.22038
 Alpha  occ. eigenvalues --   -0.21541  -0.21296  -0.19745  -0.17893  -0.16453
 Alpha  occ. eigenvalues --   -0.15089   0.04009
 Alpha virt. eigenvalues --    0.05662   0.06127   0.06211   0.06826   0.07258
 Alpha virt. eigenvalues --    0.07583   0.08159   0.08609   0.09125   0.09275
 Alpha virt. eigenvalues --    0.09414   0.10468   0.10596   0.10859   0.11981

  Beta  occ. eigenvalues --  -19.08509 -19.04171 -19.02739 -10.21687 -10.13765
  Beta  occ. eigenvalues --  -10.13098 -10.09782 -10.09582 -10.08742 -10.08631
  Beta  occ. eigenvalues --  -10.08562 -10.08489 -10.07895 -10.07646 -10.07081
  Beta  occ. eigenvalues --  -10.07043 -10.06959 -10.06287 -10.06249  -1.02396
  Beta  occ. eigenvalues --   -0.95685  -0.93376  -0.77142  -0.74825  -0.70303
  Beta  occ. eigenvalues --   -0.67815  -0.66769  -0.64832  -0.62747  -0.60153
  Beta  occ. eigenvalues --   -0.57205  -0.53801  -0.53482  -0.50779  -0.50363
  Beta  occ. eigenvalues --   -0.48145  -0.44592  -0.42514  -0.41518  -0.40267
  Beta  occ. eigenvalues --   -0.39685  -0.38399  -0.37695  -0.37344  -0.36877
  Beta  occ. eigenvalues --   -0.36276  -0.34923  -0.33454  -0.32522  -0.32194
  Beta  occ. eigenvalues --   -0.31869  -0.31164  -0.30427  -0.30210  -0.29100
  Beta  occ. eigenvalues --   -0.28560  -0.27818  -0.27747  -0.27169  -0.26809
  Beta  occ. eigenvalues --   -0.25991  -0.24558  -0.24001  -0.23142  -0.21998
  Beta  occ. eigenvalues --   -0.21499  -0.21265  -0.19695  -0.17874  -0.16348
  Beta  occ. eigenvalues --   -0.14935
  Beta virt. eigenvalues --    0.05915   0.06328   0.06556   0.06690   0.07105
  Beta virt. eigenvalues --    0.07647   0.07991   0.08482   0.08967   0.09461
  Beta virt. eigenvalues --    0.09526   0.09804   0.10725   0.10845   0.11108

 Mulliken charges and spin densities:
               1          2
     1  C    0.273351  -1.005589
     2  C   -0.307869   0.612821
     3  C    0.567445  -1.378576
     4  C   -0.207106   0.160209
     5  C   -0.472642  -0.141193
     6  C    0.463679  -0.498563
     7  C   -0.782539   0.838524
     8  C    0.507156  -1.203028
     9  O   -0.044197   0.012704
    10  C   -0.758335   0.381221
    11  C    0.325559  -0.266537
    12  C   -0.072438  -0.246647
    13  C   -0.194653  -0.231062
    14  C   -0.334261   0.028483
    15  C    0.145960   1.165907
    16  C    0.895015  -1.466218
    17  C    0.084647  -0.389417
    18  O   -0.266940   0.023733
    19  O   -0.160135   0.040745
    20  H   -0.089834   0.234877
    21  H    0.046629   0.108472
    22  H   -0.000189   0.144525
    23  H   -0.374260   0.596084
    24  H    0.018398   0.126615
    25  H   -0.295528   0.470155
    26  H    0.257928  -0.126373
    27  H   -0.105300   0.306827
    28  H   -0.074368   0.283143
    29  H    0.028995   0.129116
    30  H    0.552513  -0.419441
    31  H   -0.357861   0.561588
    32  H   -0.179321   0.330872
    33  H   -0.193746   0.331448
    34  H    0.035379   0.108592
    35  H   -0.012414   0.207860
    36  H   -0.098961   0.255560
    37  H    0.034592   0.121413
    38  H    0.160122   0.043618
    39  H   -0.071191   0.316446
    40  H    0.035879   0.178313
    41  H    0.020844   0.252776
 Sum of Mulliken charges =  -1.00000   1.00000

 Dipole moment (field-independent basis, Debye):
    X=              3.7717    Y=              2.4713    Z=              0.4077  Tot=              4.5276
 Quadrupole moment (field-independent basis, Debye-Ang):
   XX=           -208.9914   YY=           -161.9938   ZZ=           -153.5250
   XY=              0.6005   XZ=             -1.8939   YZ=              4.5525

 Summary of Natural Population Analysis:

                                       Natural Population
                Natural  -----------------------------------------------
    Atom  No    Charge         Core      Valence    Rydberg      Total
 -----------------------------------------------------------------------
      C    1   -0.29072      0.99964     2.28443    0.00665     3.29072
      C    2   -0.10808      0.99958     2.09724    0.01126     3.10808
      C    3   -0.18590      0.99961     2.17666    0.00963     3.18590
      C    4   -0.20731      0.99960     2.19816    0.00955     3.20731
      C    5    0.07705      0.99948     1.91032    0.01316     2.92295
      C    6   -0.20762      0.99959     2.19890    0.00914     3.20762
      C    7   -0.10678      0.99958     2.09664    0.01055     3.10678
      C    8   -0.28350      0.99965     2.27754    0.00631     3.28350
      O    9   -0.29688      0.99986     3.28757    0.00945     4.29688
      C   10    0.16269      0.99931     1.82444    0.01357     2.83731
      C   11   -0.12192      0.99951     2.11259    0.00982     3.12192
      C   12   -0.09434      0.99957     2.08582    0.00895     3.09434
      C   13   -0.10611      0.99957     2.09705    0.00950     3.10611
      C   14   -0.09850      0.99952     2.09099    0.00800     3.09850
      C   15   -0.02640      0.99945     2.01713    0.00983     3.02640
      C   16   -0.25025      0.99954     2.24050    0.01021     3.25025
      C   17    0.41874      0.99973     1.55699    0.02454     2.58126
      O   18   -0.31107      0.99987     3.30505    0.00616     4.31107
      O   19   -0.34150      0.99988     3.33550    0.00613     4.34150
      H   20    0.10028      0.00000     0.39880    0.00093     0.39972
      H   21    0.09685      0.00000     0.40212    0.00103     0.40315
      H   22    0.10109      0.00000     0.39812    0.00080     0.39891
      H   23    0.09909      0.00000     0.39893    0.00198     0.40091
      H   24    0.09752      0.00000     0.40106    0.00143     0.40248
      H   25    0.10052      0.00000     0.39845    0.00103     0.39948
      H   26    0.09913      0.00000     0.39907    0.00180     0.40087
      H   27    0.10292      0.00000     0.39593    0.00115     0.39708
      H   28    0.09010      0.00000     0.40825    0.00164     0.40990
      H   29    0.09974      0.00000     0.39829    0.00197     0.40026
      H   30    0.10391      0.00000     0.39452    0.00157     0.39609
      H   31    0.09627      0.00000     0.40180    0.00193     0.40373
      H   32    0.10019      0.00000     0.39883    0.00098     0.39981
      H   33    0.10071      0.00000     0.39837    0.00092     0.39929
      H   34    0.09679      0.00000     0.40230    0.00091     0.40321
      H   35    0.10683      0.00000     0.39181    0.00136     0.39317
      H   36    0.09948      0.00000     0.39969    0.00083     0.40052
      H   37    0.09910      0.00000     0.40017    0.00074     0.40090
      H   38    0.10771      0.00000     0.39089    0.00140     0.39229
      H   39    0.11822      0.00000     0.38048    0.00130     0.38178
      H   40    0.12381      0.00000     0.37442    0.00177     0.37619
      H   41    0.23816      0.00000     0.25767    0.00417     0.26184
 =======================================================================
   * Total *   -0.00000     18.99252    51.78345    0.22403    71.00000

 Normal termination of Gaussian 16 at Sun Dec 13 17:54:04 2020.
