 Gaussian 16, Revision A.03,

 -----------------------------------------------------------
 # opt freq B3LYP/6-31G(d) empiricaldispersion=gd3bj scf=xqc
 -----------------------------------------------------------

 ------------------------------
 CID_62021924_JID_5269_neutraal
 ------------------------------
 Symbolic Z-matrix:
 Charge =  0 Multiplicity = 1

 SCF Done:  E(RB3LYP) =  -996.863976245     A.U. after   15 cycles
 SCF Done:  E(RB3LYP) =  -996.869781484     A.U. after   12 cycles
 SCF Done:  E(RB3LYP) =  -996.871436199     A.U. after   12 cycles
 SCF Done:  E(RB3LYP) =  -996.872737890     A.U. after   12 cycles
 SCF Done:  E(RB3LYP) =  -996.873346056     A.U. after   12 cycles
 SCF Done:  E(RB3LYP) =  -996.873628942     A.U. after   12 cycles
 SCF Done:  E(RB3LYP) =  -996.874099429     A.U. after   12 cycles
 SCF Done:  E(RB3LYP) =  -996.874430252     A.U. after   11 cycles
 SCF Done:  E(RB3LYP) =  -996.874772903     A.U. after   12 cycles
 SCF Done:  E(RB3LYP) =  -996.874967573     A.U. after   11 cycles
 SCF Done:  E(RB3LYP) =  -996.875086877     A.U. after    8 cycles
 SCF Done:  E(RB3LYP) =  -996.875087395     A.U. after    8 cycles
 SCF Done:  E(RB3LYP) =  -996.875087496     A.U. after    7 cycles
 SCF Done:  E(RB3LYP) =  -996.875087551     A.U. after    7 cycles
 SCF Done:  E(RB3LYP) =  -996.875087571     A.U. after    6 cycles
 Optimization completed.
    -- Stationary point found.
 Normal termination of Gaussian 16 at Thu Dec 10 15:26:10 2020.

 --------------------------------------------------------------------
 #N Geom=AllCheck Guess=TCheck SCRF=Check GenChk RB3LYP/6-31G(d) Freq
 --------------------------------------------------------------------

 Structure from the checkpoint file:  "JID_5269.chk"
 ------------------------------
 CID_62021924_JID_5269_neutraal
 ------------------------------
 Charge =  0 Multiplicity = 1

 SCF Done:  E(RB3LYP) =  -996.875087571     A.U. after    1 cycles

  Exact polarizability: 189.628   6.356 118.818   0.267  -1.377 138.160
 Approx polarizability: 249.439   7.968 170.851   3.109  -2.679 240.230

                      1                      2                      3
                      A                      A                      A
 Frequencies --     30.7199                38.1604                41.9109
 Red. masses --      3.5312                 2.9892                 3.7664
 Frc consts  --      0.0020                 0.0026                 0.0039
 IR Inten    --      0.0787                 0.4962                 0.1258

                      4                      5                      6
                      A                      A                      A
 Frequencies --     60.4431                72.7416                97.0788
 Red. masses --      5.1137                 3.8117                 2.7607
 Frc consts  --      0.0110                 0.0119                 0.0153
 IR Inten    --      0.7031                 0.3087                 3.2558

                      7                      8                      9
                      A                      A                      A
 Frequencies --    124.5932               166.0371               172.3707
 Red. masses --      3.4030                 3.3800                 3.6345
 Frc consts  --      0.0311                 0.0549                 0.0636
 IR Inten    --      1.3411                 0.7765                 2.3727

                     10                     11                     12
                      A                      A                      A
 Frequencies --    204.6951               221.3165               246.5680
 Red. masses --      1.9288                 2.8631                 2.3740
 Frc consts  --      0.0476                 0.0826                 0.0850
 IR Inten    --      0.8628                 0.8566                 0.9805

                     13                     14                     15
                      A                      A                      A
 Frequencies --    281.5223               317.6193               349.5137
 Red. masses --      2.2877                 2.4413                 3.1252
 Frc consts  --      0.1068                 0.1451                 0.2249
 IR Inten    --      1.5640                 2.2594                 1.7308

                     16                     17                     18
                      A                      A                      A
 Frequencies --    391.3037               399.1971               431.9011
 Red. masses --      2.6927                 1.1744                 3.0640
 Frc consts  --      0.2429                 0.1103                 0.3368
 IR Inten    --      1.9100                91.0607                 2.4470

                     19                     20                     21
                      A                      A                      A
 Frequencies --    450.6076               475.4546               511.4094
 Red. masses --      2.3334                 2.8131                 3.4584
 Frc consts  --      0.2791                 0.3747                 0.5329
 IR Inten    --     13.1470                14.0140                 5.4272

                     22                     23                     24
                      A                      A                      A
 Frequencies --    550.9551               584.3933               609.8011
 Red. masses --      2.8642                 3.0084                 3.1631
 Frc consts  --      0.5123                 0.6053                 0.6930
 IR Inten    --      2.9692                 0.4356                 2.1576

                     25                     26                     27
                      A                      A                      A
 Frequencies --    660.9724               674.2451               741.0811
 Red. masses --      5.1352                 5.2215                 2.2884
 Frc consts  --      1.3218                 1.3986                 0.7405
 IR Inten    --      0.1845                 6.4451                 2.0684

                     28                     29                     30
                      A                      A                      A
 Frequencies --    758.4282               800.7409               807.3467
 Red. masses --      4.4721                 1.2363                 1.1991
 Frc consts  --      1.5156                 0.4671                 0.4605
 IR Inten    --      0.5640                 6.4139                 7.4285

                     31                     32                     33
                      A                      A                      A
 Frequencies --    809.8159               814.8935               864.6162
 Red. masses --      1.4062                 1.3444                 2.3704
 Frc consts  --      0.5434                 0.5260                 1.0441
 IR Inten    --     17.4073                13.5417                11.8253

                     34                     35                     36
                      A                      A                      A
 Frequencies --    877.8174               890.5651               901.8998
 Red. masses --      1.4242                 2.2377                 2.6123
 Frc consts  --      0.6466                 1.0457                 1.2519
 IR Inten    --      0.1910                16.2920                14.4642

                     37                     38                     39
                      A                      A                      A
 Frequencies --    959.5797               979.1063               994.8338
 Red. masses --      2.1262                 2.3886                 1.9882
 Frc consts  --      1.1535                 1.3491                 1.1593
 IR Inten    --      1.9681                20.5462                 9.8333

                     40                     41                     42
                      A                      A                      A
 Frequencies --   1038.9904              1045.7538              1062.4588
 Red. masses --      1.4452                 1.6923                 2.1064
 Frc consts  --      0.9192                 1.0904                 1.4009
 IR Inten    --      9.3673                21.1510                24.5314

                     43                     44                     45
                      A                      A                      A
 Frequencies --   1086.6744              1090.7106              1097.4700
 Red. masses --      1.5951                 2.5854                 1.3740
 Frc consts  --      1.1098                 1.8121                 0.9750
 IR Inten    --      3.3222                64.4668                 1.9315

                     46                     47                     48
                      A                      A                      A
 Frequencies --   1101.5963              1119.6993              1148.5472
 Red. masses --      1.5020                 1.9794                 1.2089
 Frc consts  --      1.0739                 1.4621                 0.9396
 IR Inten    --      1.4311                36.2448                 0.4386

                     49                     50                     51
                      A                      A                      A
 Frequencies --   1161.5077              1190.2190              1201.2369
 Red. masses --      2.7413                 3.4443                 3.9260
 Frc consts  --      2.1790                 2.8748                 3.3378
 IR Inten    --     30.0675                 7.2988                 1.9518

                     52                     53                     54
                      A                      A                      A
 Frequencies --   1210.9129              1222.1162              1238.1311
 Red. masses --      1.3830                 1.5224                 1.3759
 Frc consts  --      1.1948                 1.3397                 1.2427
 IR Inten    --     10.9515                15.0160                10.3470

                     55                     56                     57
                      A                      A                      A
 Frequencies --   1248.6099              1260.7992              1291.0726
 Red. masses --      1.4654                 1.6335                 1.4005
 Frc consts  --      1.3460                 1.5299                 1.3755
 IR Inten    --      5.2013                 3.7160                 0.8187

                     58                     59                     60
                      A                      A                      A
 Frequencies --   1311.2506              1359.2141              1371.8031
 Red. masses --      1.2570                 1.6131                 1.5012
 Frc consts  --      1.2734                 1.7558                 1.6644
 IR Inten    --      2.5033                22.6799                60.1719

                     61                     62                     63
                      A                      A                      A
 Frequencies --   1386.8509              1401.2140              1408.0722
 Red. masses --      1.6431                 1.4293                 1.4703
 Frc consts  --      1.8620                 1.6534                 1.7175
 IR Inten    --     10.6909                39.1529                11.6669

                     64                     65                     66
                      A                      A                      A
 Frequencies --   1419.1715              1437.1533              1448.0831
 Red. masses --      1.2247                 1.2254                 1.3785
 Frc consts  --      1.4533                 1.4912                 1.7032
 IR Inten    --     14.0586                 1.9147                21.1963

                     67                     68                     69
                      A                      A                      A
 Frequencies --   1449.4912              1489.5498              1495.9109
 Red. masses --      1.2752                 1.0952                 1.0926
 Frc consts  --      1.5786                 1.4316                 1.4405
 IR Inten    --     44.9822                 0.2864                 3.8123

                     70                     71                     72
                      A                      A                      A
 Frequencies --   1511.9174              1525.7229              1525.8938
 Red. masses --      1.0688                 1.0927                 1.0621
 Frc consts  --      1.4395                 1.4987                 1.4570
 IR Inten    --      2.3900                 9.2923                 3.2093

                     73                     74                     75
                      A                      A                      A
 Frequencies --   1531.4341              1534.3341              1537.1345
 Red. masses --      1.1095                 1.0954                 1.3599
 Frc consts  --      1.5331                 1.5194                 1.8932
 IR Inten    --      2.8040                 1.5376                21.9012

                     76                     77                     78
                      A                      A                      A
 Frequencies --   1554.7643              1623.7134              2967.0091
 Red. masses --      5.5464                 5.7839                 1.0718
 Frc consts  --      7.8994                 8.9844                 5.5591
 IR Inten    --      8.0472                 0.3513                26.1215

                     79                     80                     81
                      A                      A                      A
 Frequencies --   2982.8129              3038.4042              3042.0114
 Red. masses --      1.0718                 1.0628                 1.0625
 Frc consts  --      5.6186                 5.7807                 5.7932
 IR Inten    --     70.5581                34.4053                19.6380

                     82                     83                     84
                      A                      A                      A
 Frequencies --   3052.3845              3057.4349              3078.2872
 Red. masses --      1.0347                 1.0860                 1.1004
 Frc consts  --      5.6800                 5.9814                 6.1434
 IR Inten    --     30.3172                23.9134                10.6550

                     85                     86                     87
                      A                      A                      A
 Frequencies --   3085.9054              3090.2640              3122.3015
 Red. masses --      1.0916                 1.1047                 1.1026
 Frc consts  --      6.1247                 6.2157                 6.3333
 IR Inten    --     72.6374                34.8969                48.7099

                     88                     89                     90
                      A                      A                      A
 Frequencies --   3128.6978              3135.3062              3158.4568
 Red. masses --      1.1036                 1.0533                 1.0805
 Frc consts  --      6.3647                 6.1006                 6.3508
 IR Inten    --     29.5612                10.4166                13.1860

                     91                     92                     93
                      A                      A                      A
 Frequencies --   3164.1837              3200.0769              3214.9411
 Red. masses --      1.0665                 1.0888                 1.0968
 Frc consts  --      6.2913                 6.5693                 6.6791
 IR Inten    --     11.4953                15.3962                12.5308

                     94                     95                     96
                      A                      A                      A
 Frequencies --   3215.8318              3251.2559              3741.0177
 Red. masses --      1.1173                 1.1143                 1.0652
 Frc consts  --      6.8075                 6.9397                 8.7833
 IR Inten    --     10.9718                 5.5136               106.2446

 - Thermochemistry -
 -------------------
 Temperature   298.150 Kelvin.  Pressure   1.00000 Atm.
 Atom     1 has atomic number  6 and mass  12.00000

 Molecular mass:   225.11874 amu.
 Principal axes and moments of inertia in atomic units:
                           1         2         3
     Eigenvalues --  1539.866306901.338017074.99537
           X            0.99993   0.00949  -0.00639
           Y           -0.00968   0.99949  -0.03047
           Z            0.00610   0.03053   0.99952
 This molecule is an asymmetric top.
 Rotational symmetry number  1.
 Warning -- assumption of classical behavior for rotation
           may cause significant error
 Rotational temperatures (Kelvin)      0.05625     0.01255     0.01224
 Rotational constants (GHZ):           1.17201     0.26151     0.25509
 Zero-point vibrational energy     772979.2 (Joules/Mol)
                                  184.74645 (Kcal/Mol)
 Warning -- explicit consideration of  24 degrees of freedom as
           vibrations may cause significant error
 Vibrational temperatures:     44.20    54.90    60.30    86.96   104.66
          (Kelvin)            139.67   179.26   238.89   248.00   294.51
                              318.43   354.76   405.05   456.98   502.87
                              563.00   574.36   621.41   648.32   684.07
                              735.80   792.70   840.81   877.37   950.99
                              970.09  1066.25  1091.21  1152.09  1161.59
                             1165.14  1172.45  1243.99  1262.98  1281.32
                             1297.63  1380.62  1408.72  1431.34  1494.88
                             1504.61  1528.64  1563.48  1569.29  1579.01
                             1584.95  1611.00  1652.50  1671.15  1712.46
                             1728.31  1742.23  1758.35  1781.39  1796.47
                             1814.01  1857.57  1886.60  1955.61  1973.72
                             1995.37  2016.03  2025.90  2041.87  2067.74
                             2083.47  2085.49  2143.13  2152.28  2175.31
                             2195.17  2195.42  2203.39  2207.56  2211.59
                             2236.96  2336.16  4268.86  4291.60  4371.59
                             4376.78  4391.70  4398.97  4428.97  4439.93
                             4446.20  4492.30  4501.50  4511.01  4544.31
                             4552.55  4604.20  4625.58  4626.86  4677.83
                             5382.49

 Zero-point correction=                           0.294412 (Hartree/Particle)
 Thermal correction to Energy=                    0.310593
 Thermal correction to Enthalpy=                  0.311537
 Thermal correction to Gibbs Free Energy=         0.249095
 Sum of electronic and zero-point Energies=           -996.580675
 Sum of electronic and thermal Energies=              -996.564494
 Sum of electronic and thermal Enthalpies=            -996.563550
 Sum of electronic and thermal Free Energies=         -996.625993

                     E (Thermal)             CV                S
                      KCal/Mol        Cal/Mol-Kelvin    Cal/Mol-Kelvin
 Total                  194.900             60.476            131.422
 Electronic               0.000              0.000              0.000
 Translational            0.889              2.981             42.137
 Rotational               0.889              2.981             32.686
 Vibrational            193.123             54.515             56.599
 Vibration     1          0.594              1.984              5.782
 Vibration     2          0.594              1.982              5.352
 Vibration     3          0.595              1.980              5.167
 Vibration     4          0.597              1.973              4.443
 Vibration     5          0.599              1.967              4.078
 Vibration     6          0.603              1.951              3.512
 Vibration     7          0.610              1.928              3.028
 Vibration     8          0.624              1.884              2.480
 Vibration     9          0.626              1.876              2.409
 Vibration    10          0.640              1.833              2.090
 Vibration    11          0.648              1.809              1.948
 Vibration    12          0.661              1.768              1.755
 Vibration    13          0.681              1.708              1.524
 Vibration    14          0.704              1.640              1.322
 Vibration    15          0.727              1.576              1.168
 Vibration    16          0.759              1.489              0.995
 Vibration    17          0.765              1.472              0.966
 Vibration    18          0.793              1.401              0.852
 Vibration    19          0.809              1.360              0.794
 Vibration    20          0.832              1.305              0.722
 Vibration    21          0.867              1.225              0.630
 Vibration    22          0.906              1.138              0.542
 Vibration    23          0.941              1.065              0.477
 Vibration    24          0.969              1.011              0.433

 Optimization completed.
    -- Stationary point found.
 Normal termination of Gaussian 16 at Thu Dec 10 15:36:57 2020.

 ----------------------------------------------------------------------
 # B3LYP/6-311++G(d,p) empiricaldispersion=gd3bj scf=xqc pop=npa geom=c
 heck
 ----------------------------------------------------------------------

 --------------------------------------
 CID_62021924_JID_5269_Energie_neutraal
 --------------------------------------
 Structure from the checkpoint file:  "JID_5269.chk"
 Charge =  0 Multiplicity = 1

 SCF Done:  E(RB3LYP) =  -997.074955017     A.U. after   15 cycles
 Normal termination of Gaussian 16 at Thu Dec 10 15:42:42 2020.

 ----------------------------------------------------------------------
 # B3LYP/6-311++G(d,p) empiricaldispersion=gd3bj scf=xqc pop=npa geom=c
 heck
 ----------------------------------------------------------------------

 ------------------------------------
 CID_62021924_JID_5269_Energie_kation
 ------------------------------------
 Structure from the checkpoint file:  "JID_5269.chk"
 Charge =  1 Multiplicity = 2

 SCF Done:  E(UB3LYP) =  -996.801955752     A.U. after   24 cycles
 Normal termination of Gaussian 16 at Thu Dec 10 15:55:48 2020.
 Gaussian 16:  ES64L-G16RevA.03 25-Dec-2016

 ----------------------------------------------------------------------
 # B3LYP/6-311++G(d,p) empiricaldispersion=gd3bj scf=xqc pop=npa geom=c
 heck
 ----------------------------------------------------------------------

 -----------------------------------
 CID_62021924_JID_5269_Energie_anion
 -----------------------------------
 Structure from the checkpoint file:  "JID_5269.chk"
 Charge = -1 Multiplicity = 2

                         Standard orientation:
 ---------------------------------------------------------------------
 Center     Atomic      Atomic             Coordinates (Angstroms)
 Number     Number       Type             X           Y           Z
 ---------------------------------------------------------------------
      1          6           0        4.427957    1.198970   -1.191672
      2          6           0        4.316687   -0.195161   -0.553132
      3          6           0        3.013337   -0.425632    0.155192
      4          6           0        2.788869   -0.539128    1.500598
      5          6           0        1.407577   -0.697736    1.836385
      6          6           0        0.586933   -0.706752    0.742450
      7         16           0        1.502168   -0.506375   -0.730018
      8          6           0       -0.899531   -0.917147    0.673641
      9          7           0       -1.509617   -0.237079   -0.463402
     10          6           0       -2.589828   -0.979584   -1.116635
     11          6           0       -3.907748   -1.119600   -0.344246
     12          8           0       -4.676853    0.072408   -0.321406
     13          6           0       -1.751676    1.180008   -0.339995
     14          6           0       -2.366048    1.871782    0.882951
     15          6           0       -0.914472    2.089926    0.500058
     16          1           0        3.649796    1.347745   -1.947914
     17          1           0        5.402098    1.329371   -1.676059
     18          1           0        4.310201    1.980679   -0.433894
     19          1           0        4.468670   -0.960585   -1.325821
     20          1           0        5.122629   -0.330581    0.178240
     21          1           0        3.588218   -0.501102    2.234155
     22          1           0        1.039294   -0.802707    2.852221
     23          1           0       -1.106338   -1.987022    0.548606
     24          1           0       -1.340345   -0.642650    1.648008
     25          1           0       -2.808410   -0.486426   -2.071806
     26          1           0       -2.202333   -1.979431   -1.349993
     27          1           0       -4.533008   -1.870552   -0.840623
     28          1           0       -3.706399   -1.490015    0.675805
     29          1           0       -4.127422    0.753718    0.096943
     30          1           0       -2.068388    1.591477   -1.295828
     31          1           0       -3.074367    2.682706    0.727886
     32          1           0       -2.547896    1.287272    1.781341
     33          1           0       -0.162401    1.653867    1.147343
     34          1           0       -0.628494    3.046846    0.073164
 ---------------------------------------------------------------------

 SCF Done:  E(UB3LYP) =  -997.061812558     A.U. after   33 cycles
 SCF Done:  E(UB3LYP) =  -997.061812558     a.u. after    1 cycles

 The electronic state is 2-A.
 Alpha  occ. eigenvalues --  -88.76346 -19.02920 -14.22401 -10.12413 -10.12297
 Alpha  occ. eigenvalues --  -10.11459 -10.10617 -10.09530 -10.09508 -10.08746
 Alpha  occ. eigenvalues --  -10.08451 -10.08225 -10.06910 -10.06778 -10.06656
 Alpha  occ. eigenvalues --   -7.84965  -5.81247  -5.80885  -5.80564  -0.93323
 Alpha  occ. eigenvalues --   -0.84938  -0.77692  -0.75637  -0.69187  -0.65825
 Alpha  occ. eigenvalues --   -0.62692  -0.62382  -0.58194  -0.54192  -0.52737
 Alpha  occ. eigenvalues --   -0.51919  -0.48094  -0.44400  -0.43683  -0.42179
 Alpha  occ. eigenvalues --   -0.41887  -0.40833  -0.38583  -0.37423  -0.35759
 Alpha  occ. eigenvalues --   -0.35192  -0.33068  -0.32692  -0.32025  -0.30843
 Alpha  occ. eigenvalues --   -0.29557  -0.28748  -0.28468  -0.28175  -0.27595
 Alpha  occ. eigenvalues --   -0.25840  -0.25296  -0.25000  -0.24608  -0.23939
 Alpha  occ. eigenvalues --   -0.22834  -0.21835  -0.19203  -0.14877  -0.12428
 Alpha  occ. eigenvalues --   -0.11615   0.04199
 Alpha virt. eigenvalues --    0.05891   0.06344   0.06945   0.07759   0.07885
 Alpha virt. eigenvalues --    0.08364   0.09015   0.09467   0.09813   0.10051
 Alpha virt. eigenvalues --    0.10436   0.10661   0.11800   0.12289   0.12761

  Beta  occ. eigenvalues --  -88.76337 -19.02916 -14.22402 -10.12410 -10.12277
  Beta  occ. eigenvalues --  -10.11438 -10.10602 -10.09475 -10.09474 -10.08728
  Beta  occ. eigenvalues --  -10.08441 -10.08209 -10.06904 -10.06760 -10.06623
  Beta  occ. eigenvalues --   -7.84955  -5.81241  -5.80879  -5.80545  -0.93313
  Beta  occ. eigenvalues --   -0.84927  -0.77634  -0.75624  -0.69119  -0.65779
  Beta  occ. eigenvalues --   -0.62643  -0.62331  -0.58140  -0.54153  -0.52671
  Beta  occ. eigenvalues --   -0.51876  -0.48055  -0.44334  -0.43624  -0.42153
  Beta  occ. eigenvalues --   -0.41855  -0.40793  -0.38522  -0.37389  -0.35715
  Beta  occ. eigenvalues --   -0.35155  -0.33018  -0.32639  -0.31981  -0.30809
  Beta  occ. eigenvalues --   -0.29497  -0.28710  -0.28430  -0.28137  -0.27560
  Beta  occ. eigenvalues --   -0.25794  -0.25252  -0.24978  -0.24535  -0.23912
  Beta  occ. eigenvalues --   -0.22795  -0.21816  -0.19182  -0.14777  -0.12281
  Beta  occ. eigenvalues --   -0.11530
  Beta virt. eigenvalues --    0.06177   0.06712   0.06990   0.07394   0.08050
  Beta virt. eigenvalues --    0.08352   0.08716   0.09267   0.09735   0.10127
  Beta virt. eigenvalues --    0.10446   0.10872   0.10954   0.11907   0.12465

 Mulliken charges and spin densities:
               1          2
     1  C    0.465779  -1.020853
     2  C    0.858615  -1.432375
     3  C   -0.591174   0.871999
     4  C   -0.700080   0.623789
     5  C    0.193609  -0.168025
     6  C    0.705553  -0.745586
     7  S    0.020088  -0.222127
     8  C    0.391331  -0.755252
     9  N    0.229805   0.077312
    10  C   -0.507692   0.532082
    11  C    0.576014  -1.003494
    12  O   -0.286590   0.005924
    13  C   -1.304350   0.850041
    14  C    0.064761  -0.569189
    15  C    0.392660  -0.768673
    16  H    0.034289   0.099064
    17  H   -0.399269   0.536213
    18  H    0.016922   0.119309
    19  H   -0.180608   0.335135
    20  H   -0.263443   0.421271
    21  H   -0.271670   0.430574
    22  H   -0.545077   0.703035
    23  H   -0.175887   0.392495
    24  H    0.408521  -0.292464
    25  H    0.112355   0.061920
    26  H   -0.265207   0.399036
    27  H   -0.181995   0.360255
    28  H   -0.228836   0.387037
    29  H    0.276885   0.021519
    30  H    0.037823   0.177123
    31  H   -0.020724   0.175251
    32  H   -0.194527   0.388740
    33  H    0.418464  -0.237344
    34  H   -0.086344   0.246256
 Sum of Mulliken charges =  -1.00000   1.00000

 Dipole moment (field-independent basis, Debye):
    X=             -2.7735    Y=              2.3067    Z=             -0.7623  Tot=              3.6870
 Quadrupole moment (field-independent basis, Debye-Ang):
   XX=           -206.2913   YY=           -138.6773   ZZ=           -136.6687
   XY=             -5.4086   XZ=              6.4985   YZ=              3.0715

 Summary of Natural Population Analysis:

                                       Natural Population
                Natural  -----------------------------------------------
    Atom  No    Charge         Core      Valence    Rydberg      Total
 -----------------------------------------------------------------------
      C    1   -0.28114      0.99966     2.27573    0.00575     3.28114
      C    2   -0.20596      0.99958     2.19616    0.01021     3.20596
      C    3   -0.08933      0.99949     2.07686    0.01298     3.08933
      C    4   -0.12791      0.99945     2.11800    0.01046     3.12791
      C    5   -0.13338      0.99945     2.12314    0.01079     3.13338
      C    6   -0.09672      0.99950     2.08308    0.01414     3.09672
      S    7    0.21096      4.99935     2.77064    0.01905     7.78904
      C    8   -0.10304      0.99953     2.08940    0.01411     3.10304
      N    9   -0.27833      0.99970     2.76509    0.01353     3.77833
      C   10   -0.09231      0.99960     2.08083    0.01187     3.09231
      C   11   -0.02094      0.99960     2.00910    0.01224     3.02094
      O   12   -0.37484      0.99990     3.36793    0.00701     4.37484
      C   13   -0.00656      0.99956     1.99486    0.01214     3.00656
      C   14   -0.24107      0.99963     2.23334    0.00809     3.24107
      C   15   -0.19803      0.99961     2.18949    0.00892     3.19803
      H   16    0.09775      0.00000     0.40125    0.00100     0.40225
      H   17    0.09877      0.00000     0.39967    0.00157     0.40123
      H   18    0.09773      0.00000     0.40117    0.00111     0.40227
      H   19    0.10245      0.00000     0.39616    0.00139     0.39755
      H   20    0.10427      0.00000     0.39406    0.00167     0.39573
      H   21    0.10407      0.00000     0.39484    0.00109     0.39593
      H   22    0.10579      0.00000     0.39285    0.00136     0.39421
      H   23    0.10964      0.00000     0.38814    0.00222     0.39036
      H   24    0.09339      0.00000     0.40417    0.00244     0.40661
      H   25    0.09543      0.00000     0.40336    0.00120     0.40457
      H   26    0.10005      0.00000     0.39872    0.00124     0.39995
      H   27    0.08600      0.00000     0.41264    0.00136     0.41400
      H   28    0.07785      0.00000     0.42068    0.00147     0.42215
      H   29    0.23535      0.00000     0.26131    0.00334     0.26465
      H   30    0.10178      0.00000     0.39701    0.00121     0.39822
      H   31    0.10321      0.00000     0.39575    0.00104     0.39679
      H   32    0.10659      0.00000     0.39227    0.00114     0.39341
      H   33    0.11501      0.00000     0.38354    0.00144     0.38499
      H   34    0.10347      0.00000     0.39569    0.00085     0.39653
 =======================================================================
   * Total *    0.00000     18.99363    41.80694    0.19943    61.00000

 Normal termination of Gaussian 16 at Thu Dec 10 16:14:09 2020.
