 Gaussian 16, Revision A.03,

 -----------------------------------------------------------
 # opt freq B3LYP/6-31G(d) empiricaldispersion=gd3bj scf=xqc
 -----------------------------------------------------------

 ------------------------------
 CID_84042698_JID_5810_neutraal
 ------------------------------
 Symbolic Z-matrix:
 Charge =  0 Multiplicity = 1

 SCF Done:  E(RB3LYP) =  -1066.33737868     A.U. after   16 cycles
 SCF Done:  E(RB3LYP) =  -1066.34486107     A.U. after   13 cycles
 SCF Done:  E(RB3LYP) =  -1066.34493684     A.U. after   12 cycles
 SCF Done:  E(RB3LYP) =  -1066.34521226     A.U. after   12 cycles
 SCF Done:  E(RB3LYP) =  -1066.34592046     A.U. after   12 cycles
 SCF Done:  E(RB3LYP) =  -1066.34596683     A.U. after   12 cycles
 SCF Done:  E(RB3LYP) =  -1066.34629873     A.U. after   12 cycles
 SCF Done:  E(RB3LYP) =  -1066.34629998     A.U. after   12 cycles
 SCF Done:  E(RB3LYP) =  -1066.34668282     A.U. after   11 cycles
 SCF Done:  E(RB3LYP) =  -1066.34701632     A.U. after   13 cycles
 SCF Done:  E(RB3LYP) =  -1066.34758233     A.U. after   10 cycles
 SCF Done:  E(RB3LYP) =  -1066.34758542     A.U. after    9 cycles
 SCF Done:  E(RB3LYP) =  -1066.34758661     A.U. after    8 cycles
 SCF Done:  E(RB3LYP) =  -1066.34758737     A.U. after    8 cycles
 SCF Done:  E(RB3LYP) =  -1066.34758754     A.U. after    7 cycles
 Optimization completed.
    -- Stationary point found.
 Normal termination of Gaussian 16 at Thu Dec 10 17:18:44 2020.

 --------------------------------------------------------------------
 #N Geom=AllCheck Guess=TCheck SCRF=Check GenChk RB3LYP/6-31G(d) Freq
 --------------------------------------------------------------------

 Structure from the checkpoint file:  "JID_5810.chk"
 ------------------------------
 CID_84042698_JID_5810_neutraal
 ------------------------------
 Charge =  0 Multiplicity = 1

 SCF Done:  E(RB3LYP) =  -1066.34758754     A.U. after    1 cycles

  Exact polarizability: 153.628  -4.224 159.315  -9.212  -7.282  79.352
 Approx polarizability: 236.540  -4.211 269.374 -21.240 -18.515 120.772

                      1                      2                      3
                      A                      A                      A
 Frequencies --     47.3091                79.7901               105.3124
 Red. masses --      5.5351                 6.1511                 7.9365
 Frc consts  --      0.0073                 0.0231                 0.0519
 IR Inten    --      0.8427                 1.1363                 0.8643

                      4                      5                      6
                      A                      A                      A
 Frequencies --    123.5905               152.4351               177.5142
 Red. masses --      5.6234                 3.8433                 2.6201
 Frc consts  --      0.0506                 0.0526                 0.0486
 IR Inten    --      1.3244                 5.7612                18.1911

                      7                      8                      9
                      A                      A                      A
 Frequencies --    192.8712               221.8159               231.1854
 Red. masses --      5.5205                 2.9544                 1.4814
 Frc consts  --      0.1210                 0.0856                 0.0467
 IR Inten    --      4.2654                20.2463                62.8221

                     10                     11                     12
                      A                      A                      A
 Frequencies --    283.6220               310.0100               327.3935
 Red. masses --      5.0903                 2.9268                 5.2875
 Frc consts  --      0.2413                 0.1657                 0.3339
 IR Inten    --      4.0968                 3.2875                 1.6382

                     13                     14                     15
                      A                      A                      A
 Frequencies --    362.3561               412.2301               442.5517
 Red. masses --      3.8280                 4.8036                 1.1506
 Frc consts  --      0.2961                 0.4809                 0.1328
 IR Inten    --      7.7082                 9.9933                54.4518

                     16                     17                     18
                      A                      A                      A
 Frequencies --    450.0627               486.1124               518.6779
 Red. masses --      9.2894                 5.4937                 4.3401
 Frc consts  --      1.1086                 0.7649                 0.6879
 IR Inten    --      3.6198                 1.9757                 1.5476

                     19                     20                     21
                      A                      A                      A
 Frequencies --    540.3680               548.8230               582.0966
 Red. masses --      3.8526                 4.0432                 5.7409
 Frc consts  --      0.6628                 0.7175                 1.1461
 IR Inten    --      5.1017                 1.0945                 4.1352

                     22                     23                     24
                      A                      A                      A
 Frequencies --    629.6693               649.5319               692.1708
 Red. masses --     11.4123                 5.0896                 4.4040
 Frc consts  --      2.6659                 1.2651                 1.2431
 IR Inten    --     13.2949                 1.4036                13.4047

                     25                     26                     27
                      A                      A                      A
 Frequencies --    715.7655               741.3543               783.2726
 Red. masses --      9.2612                 3.2170                 1.6128
 Frc consts  --      2.7955                 1.0417                 0.5830
 IR Inten    --     10.9365                10.5991                15.1386

                     28                     29                     30
                      A                      A                      A
 Frequencies --    809.7012               882.3276               896.6919
 Red. masses --      2.8804                 3.3379                 1.7478
 Frc consts  --      1.1126                 1.5310                 0.8280
 IR Inten    --     29.4447                11.9182                47.9893

                     31                     32                     33
                      A                      A                      A
 Frequencies --    905.2770               907.8264               947.2969
 Red. masses --      1.4362                 6.5847                 2.4255
 Frc consts  --      0.6935                 3.1974                 1.2824
 IR Inten    --     25.8653                24.8128                41.2750

                     34                     35                     36
                      A                      A                      A
 Frequencies --    968.5236              1011.0413              1037.5580
 Red. masses --      1.2796                 2.1338                 1.7960
 Frc consts  --      0.7072                 1.2851                 1.1391
 IR Inten    --      0.7213               135.1279                38.2618

                     37                     38                     39
                      A                      A                      A
 Frequencies --   1053.1216              1096.2925              1101.4971
 Red. masses --      6.9101                 3.0882                 2.2714
 Frc consts  --      4.5154                 2.1868                 1.6237
 IR Inten    --    173.6444                32.9688                33.8128

                     40                     41                     42
                      A                      A                      A
 Frequencies --   1130.1877              1183.6957              1200.6907
 Red. masses --      2.0320                 1.8076                 1.3546
 Frc consts  --      1.5293                 1.4923                 1.1506
 IR Inten    --      0.5405                 5.9585                 5.2780

                     43                     44                     45
                      A                      A                      A
 Frequencies --   1216.8227              1245.1502              1262.1189
 Red. masses --      1.4323                 1.5224                 3.3017
 Frc consts  --      1.2495                 1.3906                 3.0987
 IR Inten    --     22.8681                17.8729                50.2036

                     46                     47                     48
                      A                      A                      A
 Frequencies --   1266.7059              1325.3826              1338.8466
 Red. masses --      1.5350                 1.2958                 1.6325
 Frc consts  --      1.4512                 1.3411                 1.7241
 IR Inten    --     10.2740                 8.2287                10.8359

                     49                     50                     51
                      A                      A                      A
 Frequencies --   1369.3875              1402.6588              1416.2895
 Red. masses --      4.6411                 1.3831                 1.1798
 Frc consts  --      5.1277                 1.6033                 1.3944
 IR Inten    --      1.4383                10.7081                22.0847

                     52                     53                     54
                      A                      A                      A
 Frequencies --   1438.6287              1451.0930              1486.4123
 Red. masses --      1.3230                 1.5191                 2.0872
 Frc consts  --      1.6132                 1.8846                 2.7170
 IR Inten    --      7.0549                17.9789                37.9510

                     55                     56                     57
                      A                      A                      A
 Frequencies --   1496.0218              1520.9222              1536.2361
 Red. masses --      1.1120                 2.6882                 1.0848
 Frc consts  --      1.4663                 3.6637                 1.5084
 IR Inten    --      7.7285                 6.8825                 1.5556

                     58                     59                     60
                      A                      A                      A
 Frequencies --   1634.2675              1660.0109              1720.2962
 Red. masses --      6.1880                 7.2079                 1.0868
 Frc consts  --      9.7374                11.7026                 1.8950
 IR Inten    --      3.3590                 2.9347                20.2694

                     61                     62                     63
                      A                      A                      A
 Frequencies --   1876.0203              3027.6519              3037.8310
 Red. masses --     13.0042                 1.0619                 1.0616
 Frc consts  --     26.9655                 5.7350                 5.7721
 IR Inten    --    587.1395                14.2596                38.4038

                     64                     65                     66
                      A                      A                      A
 Frequencies --   3057.5650              3071.8053              3084.3481
 Red. masses --      1.0846                 1.1013                 1.1056
 Frc consts  --      5.9743                 6.1227                 6.1969
 IR Inten    --     32.0398                33.7366                79.9890

                     67                     68                     69
                      A                      A                      A
 Frequencies --   3189.9212              3208.1091              3223.3220
 Red. masses --      1.0877                 1.0906                 1.0957
 Frc consts  --      6.5213                 6.6133                 6.7075
 IR Inten    --      5.4858                 9.6349                10.0641

                     70                     71                     72
                      A                      A                      A
 Frequencies --   3487.1540              3569.2581              3767.9114
 Red. masses --      1.0508                 1.0908                 1.0660
 Frc consts  --      7.5288                 8.1877                 8.9166
 IR Inten    --      6.3987                14.3214               102.0608

 - Thermochemistry -
 -------------------
 Temperature   298.150 Kelvin.  Pressure   1.00000 Atm.
 Atom     1 has atomic number  6 and mass  12.00000

 Molecular mass:   225.04597 amu.
 Principal axes and moments of inertia in atomic units:
                           1         2         3
     Eigenvalues --  2536.234043384.706635159.31620
           X            0.99948   0.03224   0.00061
           Y           -0.03224   0.99948  -0.00010
           Z           -0.00061   0.00008   1.00000
 This molecule is an asymmetric top.
 Rotational symmetry number  1.
 Warning -- assumption of classical behavior for rotation
           may cause significant error
 Rotational temperatures (Kelvin)      0.03415     0.02559     0.01679
 Rotational constants (GHZ):           0.71158     0.53320     0.34980
 Zero-point vibrational energy     534298.7 (Joules/Mol)
                                  127.70046 (Kcal/Mol)
 Warning -- explicit consideration of  21 degrees of freedom as
           vibrations may cause significant error
 Vibrational temperatures:     68.07   114.80   151.52   177.82   219.32
          (Kelvin)            255.40   277.50   319.14   332.62   408.07
                              446.04   471.05   521.35   593.11   636.73
                              647.54   699.41   746.26   777.47   789.63
                              837.51   905.95   934.53   995.88  1029.83
                             1066.64  1126.95  1164.98  1269.47  1290.14
                             1302.49  1306.16  1362.95  1393.49  1454.66
                             1492.81  1515.21  1577.32  1584.81  1626.09
                             1703.07  1727.53  1750.74  1791.49  1815.91
                             1822.51  1906.93  1926.30  1970.24  2018.11
                             2037.72  2069.87  2087.80  2138.62  2152.44
                             2188.27  2210.30  2351.35  2388.39  2475.12
                             2699.17  4356.12  4370.76  4399.15  4419.64
                             4437.69  4589.59  4615.75  4637.64  5017.24
                             5135.37  5421.18

 Zero-point correction=                           0.203504 (Hartree/Particle)
 Thermal correction to Energy=                    0.217035
 Thermal correction to Enthalpy=                  0.217979
 Thermal correction to Gibbs Free Energy=         0.163384
 Sum of electronic and zero-point Energies=          -1066.144084
 Sum of electronic and thermal Energies=             -1066.130553
 Sum of electronic and thermal Enthalpies=           -1066.129609
 Sum of electronic and thermal Free Energies=        -1066.184204

                     E (Thermal)             CV                S
                      KCal/Mol        Cal/Mol-Kelvin    Cal/Mol-Kelvin
 Total                  136.191             52.213            114.905
 Electronic               0.000              0.000              0.000
 Translational            0.889              2.981             42.136
 Rotational               0.889              2.981             32.160
 Vibrational            134.414             46.251             40.609
 Vibration     1          0.595              1.979              4.927
 Vibration     2          0.600              1.963              3.896
 Vibration     3          0.605              1.945              3.354
 Vibration     4          0.610              1.929              3.043
 Vibration     5          0.619              1.900              2.642
 Vibration     6          0.628              1.870              2.354
 Vibration     7          0.635              1.850              2.200
 Vibration     8          0.648              1.808              1.944
 Vibration     9          0.653              1.793              1.870
 Vibration    10          0.682              1.704              1.512
 Vibration    11          0.699              1.655              1.362
 Vibration    12          0.711              1.621              1.273
 Vibration    13          0.736              1.550              1.112
 Vibration    14          0.776              1.444              0.919
 Vibration    15          0.802              1.377              0.819
 Vibration    16          0.809              1.361              0.796
 Vibration    17          0.842              1.281              0.694
 Vibration    18          0.874              1.209              0.613
 Vibration    19          0.895              1.161              0.564
 Vibration    20          0.904              1.142              0.547
 Vibration    21          0.939              1.070              0.481

 Optimization completed.
    -- Stationary point found.
 Normal termination of Gaussian 16 at Thu Dec 10 17:28:57 2020.

 ----------------------------------------------------------------------
 # B3LYP/6-311++G(d,p) empiricaldispersion=gd3bj scf=xqc pop=npa geom=c
 heck
 ----------------------------------------------------------------------

 --------------------------------------
 CID_84042698_JID_5810_Energie_neutraal
 --------------------------------------
 Structure from the checkpoint file:  "JID_5810.chk"
 Charge =  0 Multiplicity = 1

 SCF Done:  E(RB3LYP) =  -1066.57418899     A.U. after   16 cycles
 Normal termination of Gaussian 16 at Thu Dec 10 17:33:32 2020.

 ----------------------------------------------------------------------
 # B3LYP/6-311++G(d,p) empiricaldispersion=gd3bj scf=xqc pop=npa geom=c
 heck
 ----------------------------------------------------------------------

 ------------------------------------
 CID_84042698_JID_5810_Energie_kation
 ------------------------------------
 Structure from the checkpoint file:  "JID_5810.chk"
 Charge =  1 Multiplicity = 2

 SCF Done:  E(UB3LYP) =  -1066.26208507     A.U. after   30 cycles
 Normal termination of Gaussian 16 at Thu Dec 10 17:48:36 2020.
 Gaussian 16:  ES64L-G16RevA.03 25-Dec-2016

 ----------------------------------------------------------------------
 # B3LYP/6-311++G(d,p) empiricaldispersion=gd3bj scf=xqc pop=npa geom=c
 heck
 ----------------------------------------------------------------------

 -----------------------------------
 CID_84042698_JID_5810_Energie_anion
 -----------------------------------
 Structure from the checkpoint file:  "JID_5810.chk"
 Charge = -1 Multiplicity = 2

                         Standard orientation:
 ---------------------------------------------------------------------
 Center     Atomic      Atomic             Coordinates (Angstroms)
 Number     Number       Type             X           Y           Z
 ---------------------------------------------------------------------
      1          6           0        1.084958    2.965895   -0.262085
      2          6           0       -0.228083    2.590786    0.032163
      3          6           0       -0.595365    1.259375    0.270596
      4          6           0        0.438182    0.330337    0.185324
      5          6           0        1.758946    0.684671   -0.099886
      6          6           0        2.102099    2.013628   -0.327638
      7         16           0        2.794919   -0.746929   -0.131177
      8          6           0        1.375957   -1.795595    0.211009
      9          8           0        1.355398   -2.988827    0.292267
     10          8           0        0.241434   -1.028914    0.360707
     11          6           0       -2.039974    0.901456    0.598597
     12          6           0       -2.830976    0.443360   -0.653553
     13          6           0       -2.314447   -0.802578   -1.377507
     14          8           0       -2.323803   -1.973037   -0.557833
     15          7           0       -2.113769   -0.015040    1.748276
     16          1           0        1.319665    4.011938   -0.432516
     17          1           0       -0.998547    3.354602    0.091911
     18          1           0        3.125591    2.296260   -0.549237
     19          1           0       -2.497611    1.842889    0.923799
     20          1           0       -3.866701    0.260981   -0.338727
     21          1           0       -2.856848    1.265798   -1.382784
     22          1           0       -2.968695   -1.002329   -2.234810
     23          1           0       -1.309734   -0.617661   -1.780111
     24          1           0       -1.411912   -2.137599   -0.274129
     25          1           0       -3.007297    0.130250    2.214128
     26          1           0       -2.142245   -0.970771    1.400128
 ---------------------------------------------------------------------

 SCF Done:  E(UB3LYP) =  -1066.56778940     A.U. after   33 cycles
 SCF Done:  E(UB3LYP) =  -1066.56778940     a.u. after    1 cycles

 The electronic state is 2-A.
 Alpha  occ. eigenvalues --  -88.79318 -19.11392 -19.04296 -19.02805 -14.19197
 Alpha  occ. eigenvalues --  -10.24533 -10.15417 -10.12490 -10.12107 -10.11304
 Alpha  occ. eigenvalues --  -10.09327 -10.08644 -10.08156 -10.07980 -10.07440
 Alpha  occ. eigenvalues --   -7.87896  -5.84213  -5.83895  -5.83385  -1.05015
 Alpha  occ. eigenvalues --   -0.97103  -0.92978  -0.79859  -0.77671  -0.72555
 Alpha  occ. eigenvalues --   -0.67884  -0.66160  -0.64341  -0.57970  -0.55129
 Alpha  occ. eigenvalues --   -0.52496  -0.49794  -0.48521  -0.43992  -0.42596
 Alpha  occ. eigenvalues --   -0.40605  -0.40395  -0.39967  -0.38539  -0.36071
 Alpha  occ. eigenvalues --   -0.35759  -0.34443  -0.33179  -0.32682  -0.30648
 Alpha  occ. eigenvalues --   -0.30284  -0.29322  -0.29017  -0.27517  -0.27158
 Alpha  occ. eigenvalues --   -0.26513  -0.25490  -0.23436  -0.21618  -0.21469
 Alpha  occ. eigenvalues --   -0.18540  -0.15485  -0.14743  -0.14067   0.04082
 Alpha virt. eigenvalues --    0.06153   0.06899   0.07377   0.07513   0.07926
 Alpha virt. eigenvalues --    0.08602   0.08661   0.09266   0.09701   0.11080
 Alpha virt. eigenvalues --    0.11256   0.11983   0.12424   0.12996   0.13360

  Beta  occ. eigenvalues --  -88.79299 -19.11379 -19.04293 -19.02801 -14.19188
  Beta  occ. eigenvalues --  -10.24465 -10.15423 -10.12481 -10.12048 -10.11292
  Beta  occ. eigenvalues --  -10.09276 -10.08567 -10.08146 -10.07936 -10.07415
  Beta  occ. eigenvalues --   -7.87877  -5.84149  -5.83884  -5.83376  -1.04975
  Beta  occ. eigenvalues --   -0.97087  -0.92971  -0.79808  -0.77576  -0.72425
  Beta  occ. eigenvalues --   -0.67806  -0.66093  -0.64219  -0.57898  -0.55051
  Beta  occ. eigenvalues --   -0.52379  -0.49659  -0.48461  -0.43906  -0.42530
  Beta  occ. eigenvalues --   -0.40511  -0.40331  -0.39906  -0.38468  -0.36012
  Beta  occ. eigenvalues --   -0.35706  -0.34380  -0.33103  -0.32621  -0.30555
  Beta  occ. eigenvalues --   -0.30167  -0.29276  -0.28958  -0.27433  -0.27081
  Beta  occ. eigenvalues --   -0.26409  -0.25390  -0.23405  -0.21510  -0.21397
  Beta  occ. eigenvalues --   -0.18516  -0.15274  -0.14716  -0.13925
  Beta virt. eigenvalues --    0.06648   0.07190   0.07397   0.07615   0.08148
  Beta virt. eigenvalues --    0.08474   0.08695   0.08896   0.10061   0.10215
  Beta virt. eigenvalues --    0.11263   0.11638   0.12206   0.12620   0.13117

 Mulliken charges and spin densities:
               1          2
     1  C    1.689896  -2.128329
     2  C   -0.636249   0.393042
     3  C   -0.721986   1.434395
     4  C    0.135932  -0.584144
     5  C    1.432605  -1.106783
     6  C   -0.192235   0.355827
     7  S   -0.607694   0.116215
     8  C    0.314569  -0.045224
     9  O   -0.321184   0.003644
    10  O    0.011345  -0.014638
    11  C    0.051513  -0.255339
    12  C    0.770522  -1.151730
    13  C   -0.286256  -0.210683
    14  O   -0.229058   0.004585
    15  N   -0.298976  -0.035474
    16  H   -0.650547   0.834640
    17  H   -0.385295   0.558010
    18  H   -0.929055   1.133230
    19  H   -0.634513   0.845244
    20  H   -0.064150   0.241763
    21  H   -0.159744   0.313144
    22  H    0.020645   0.157008
    23  H    0.119902   0.019119
    24  H    0.212164   0.029693
    25  H    0.144448   0.113758
    26  H    0.213401  -0.020974
 Sum of Mulliken charges =  -1.00000   1.00000

 Dipole moment (field-independent basis, Debye):
    X=             -0.1831    Y=             -5.2189    Z=             -0.0795  Tot=              5.2227
 Quadrupole moment (field-independent basis, Debye-Ang):
   XX=           -153.2614   YY=           -161.8249   ZZ=           -120.2093
   XY=             -4.4304   XZ=              4.4630   YZ=              1.9477

 Summary of Natural Population Analysis:

                                       Natural Population
                Natural  -----------------------------------------------
    Atom  No    Charge         Core      Valence    Rydberg      Total
 -----------------------------------------------------------------------
      C    1   -0.09496      0.99956     2.08510    0.01029     3.09496
      C    2   -0.08656      0.99953     2.07719    0.00984     3.08656
      C    3   -0.01776      0.99944     2.00553    0.01280     3.01776
      C    4    0.13839      0.99924     1.84913    0.01324     2.86161
      C    5   -0.10322      0.99938     2.09227    0.01157     3.10322
      C    6   -0.09639      0.99950     2.08502    0.01187     3.09639
      S    7    0.15906      4.99946     2.82263    0.01885     7.84094
      C    8    0.32145      0.99976     1.64819    0.03060     2.67855
      O    9   -0.29092      0.99986     3.28356    0.00751     4.29092
      O   10   -0.26989      0.99983     3.25972    0.01034     4.26989
      C   11   -0.02080      0.99956     2.00554    0.01571     3.02080
      C   12   -0.20315      0.99960     2.19411    0.00944     3.20315
      C   13   -0.01592      0.99959     2.00309    0.01325     3.01592
      O   14   -0.38131      0.99990     3.37507    0.00634     4.38131
      N   15   -0.42298      0.99976     2.91347    0.00975     3.92298
      H   16    0.10632      0.00000     0.39105    0.00263     0.39368
      H   17    0.10490      0.00000     0.39290    0.00220     0.39510
      H   18    0.10997      0.00000     0.38584    0.00419     0.39003
      H   19    0.10163      0.00000     0.39529    0.00308     0.39837
      H   20    0.09941      0.00000     0.39906    0.00152     0.40059
      H   21    0.10375      0.00000     0.39495    0.00130     0.39625
      H   22    0.08357      0.00000     0.41533    0.00110     0.41643
      H   23    0.08148      0.00000     0.41728    0.00124     0.41852
      H   24    0.23905      0.00000     0.25800    0.00294     0.26095
      H   25    0.17353      0.00000     0.32503    0.00144     0.32647
      H   26    0.18134      0.00000     0.31620    0.00246     0.31866
 =======================================================================
   * Total *    0.00000     18.99396    39.79052    0.21552    59.00000

 Normal termination of Gaussian 16 at Thu Dec 10 17:57:51 2020.
