 Gaussian 16, Revision A.03,

 -----------------------------------------------------------
 # opt freq B3LYP/6-31G(d) empiricaldispersion=gd3bj scf=xqc
 -----------------------------------------------------------

 ------------------------------
 CID_63821154_JID_9892_neutraal
 ------------------------------
 Symbolic Z-matrix:
 Charge =  0 Multiplicity = 1

 SCF Done:  E(RB3LYP) =  -1649.18198336     A.U. after   15 cycles
 SCF Done:  E(RB3LYP) =  -1649.19374579     A.U. after   13 cycles
 SCF Done:  E(RB3LYP) =  -1649.19506817     A.U. after   13 cycles
 SCF Done:  E(RB3LYP) =  -1649.19530782     A.U. after   12 cycles
 SCF Done:  E(RB3LYP) =  -1649.19548351     A.U. after   12 cycles
 SCF Done:  E(RB3LYP) =  -1649.19574687     A.U. after   13 cycles
 SCF Done:  E(RB3LYP) =  -1649.19547359     A.U. after   15 cycles
 SCF Done:  E(RB3LYP) =  -1649.19638633     A.U. after   13 cycles
 SCF Done:  E(RB3LYP) =  -1649.19692965     A.U. after   13 cycles
 SCF Done:  E(RB3LYP) =  -1649.19577214     A.U. after   13 cycles
 SCF Done:  E(RB3LYP) =  -1649.19787393     A.U. after    9 cycles
 SCF Done:  E(RB3LYP) =  -1649.19787763     A.U. after   11 cycles
 SCF Done:  E(RB3LYP) =  -1649.19787653     A.U. after   11 cycles
 SCF Done:  E(RB3LYP) =  -1649.19787796     A.U. after   10 cycles
 SCF Done:  E(RB3LYP) =  -1649.19787812     A.U. after    7 cycles
 SCF Done:  E(RB3LYP) =  -1649.19787825     A.U. after    7 cycles
 Optimization completed.
    -- Stationary point found.
 Normal termination of Gaussian 16 at Mon Dec 14 14:14:41 2020.

 --------------------------------------------------------------------
 #N Geom=AllCheck Guess=TCheck SCRF=Check GenChk RB3LYP/6-31G(d) Freq
 --------------------------------------------------------------------

 Structure from the checkpoint file:  "JID_9892.chk"
 ------------------------------
 CID_63821154_JID_9892_neutraal
 ------------------------------
 Charge =  0 Multiplicity = 1

 SCF Done:  E(RB3LYP) =  -1649.19787825     A.U. after    1 cycles

  Exact polarizability: 176.840 -20.435 161.720  15.173  21.062 142.208
 Approx polarizability: 270.591 -38.663 254.718  47.098  60.637 280.180

                      1                      2                      3
                      A                      A                      A
 Frequencies --     15.2983                23.2647                36.9751
 Red. masses --      5.3066                 4.8597                 4.6129
 Frc consts  --      0.0007                 0.0015                 0.0037
 IR Inten    --      0.7231                 0.5559                 1.2395

                      4                      5                      6
                      A                      A                      A
 Frequencies --     50.5105                62.7703                73.2847
 Red. masses --      1.1053                 4.6222                 6.0413
 Frc consts  --      0.0017                 0.0107                 0.0191
 IR Inten    --      0.1723                 0.1300                 0.7100

                      7                      8                      9
                      A                      A                      A
 Frequencies --     94.6227               107.0137               116.8151
 Red. masses --      6.9643                10.3996                 1.1167
 Frc consts  --      0.0367                 0.0702                 0.0090
 IR Inten    --      0.7301                 1.3181                 0.0094

                     10                     11                     12
                      A                      A                      A
 Frequencies --    136.5502               194.6964               206.4392
 Red. masses --      7.0087                 6.6463                 3.7449
 Frc consts  --      0.0770                 0.1484                 0.0940
 IR Inten    --      0.2100                 1.5446                 1.5310

                     13                     14                     15
                      A                      A                      A
 Frequencies --    226.5828               247.4510               253.1708
 Red. masses --      4.7426                 4.6983                 7.8311
 Frc consts  --      0.1435                 0.1695                 0.2957
 IR Inten    --      0.4009                 1.8962                 2.1993

                     16                     17                     18
                      A                      A                      A
 Frequencies --    286.9251               311.1541               330.8711
 Red. masses --      5.8859                 5.6541                 5.0364
 Frc consts  --      0.2855                 0.3225                 0.3249
 IR Inten    --      1.8250                 3.6422                 3.5713

                     19                     20                     21
                      A                      A                      A
 Frequencies --    363.6631               390.5547               403.3305
 Red. masses --      5.1516                11.0827                 8.4216
 Frc consts  --      0.4014                 0.9960                 0.8072
 IR Inten    --      0.1799                 4.7292                22.0856

                     22                     23                     24
                      A                      A                      A
 Frequencies --    431.4711               484.0834               487.8161
 Red. masses --      5.1577                 3.8784                 1.5151
 Frc consts  --      0.5657                 0.5355                 0.2124
 IR Inten    --      0.6728                 3.0098                57.5023

                     25                     26                     27
                      A                      A                      A
 Frequencies --    506.2193               534.0710               551.8306
 Red. masses --      5.3809                 3.2104                 5.6625
 Frc consts  --      0.8124                 0.5395                 1.0159
 IR Inten    --      1.6571                16.1684                89.5880

                     28                     29                     30
                      A                      A                      A
 Frequencies --    578.7345               586.5435               619.9987
 Red. masses --      4.7270                 1.8808                 5.4182
 Frc consts  --      0.9328                 0.3812                 1.2271
 IR Inten    --     20.4684                36.4577               160.9875

                     31                     32                     33
                      A                      A                      A
 Frequencies --    637.0486               662.1458               666.8673
 Red. masses --      2.0854                 3.5449                 2.6757
 Frc consts  --      0.4986                 0.9157                 0.7011
 IR Inten    --     68.5491                24.5525                76.9526

                     34                     35                     36
                      A                      A                      A
 Frequencies --    699.0138               714.4557               738.3785
 Red. masses --      3.8306                 3.9802                 7.1521
 Frc consts  --      1.1028                 1.1970                 2.2974
 IR Inten    --    102.0514                 8.3868                 1.3722

                     37                     38                     39
                      A                      A                      A
 Frequencies --    770.3757               784.3362               818.2617
 Red. masses --      7.6062                 1.3800                 5.3882
 Frc consts  --      2.6596                 0.5002                 2.1256
 IR Inten    --     44.6741                61.2128                 7.6000

                     40                     41                     42
                      A                      A                      A
 Frequencies --    852.8264               877.5323               953.6303
 Red. masses --      2.9184                 1.3443                 4.2656
 Frc consts  --      1.2506                 0.6099                 2.2856
 IR Inten    --     52.5015                 8.9154                19.6802

                     43                     44                     45
                      A                      A                      A
 Frequencies --   1001.1834              1026.2587              1034.4495
 Red. masses --      1.5361                 2.9841                 2.3725
 Frc consts  --      0.9072                 1.8517                 1.4958
 IR Inten    --      4.1445                19.7483                40.3729

                     46                     47                     48
                      A                      A                      A
 Frequencies --   1052.0365              1057.6660              1071.7534
 Red. masses --      4.0869                 5.1622                 1.4947
 Frc consts  --      2.6650                 3.4024                 1.0116
 IR Inten    --     85.1437                 0.3757                 3.2575

                     49                     50                     51
                      A                      A                      A
 Frequencies --   1076.8485              1109.3911              1140.4221
 Red. masses --      1.4592                 4.4568                11.9720
 Frc consts  --      0.9970                 3.2318                 9.1738
 IR Inten    --      2.7950                61.3136               341.0485

                     52                     53                     54
                      A                      A                      A
 Frequencies --   1174.0529              1212.2892              1219.0101
 Red. masses --      1.6905                 3.4701                 1.9620
 Frc consts  --      1.3729                 3.0047                 1.7177
 IR Inten    --      1.9070                28.3814               163.6629

                     55                     56                     57
                      A                      A                      A
 Frequencies --   1233.5318              1287.4411              1343.9095
 Red. masses --      1.5599                 2.4472                 3.1643
 Frc consts  --      1.3984                 2.3898                 3.3672
 IR Inten    --     32.5629                15.0045                65.6381

                     58                     59                     60
                      A                      A                      A
 Frequencies --   1376.3353              1396.8255              1417.0329
 Red. masses --      3.0230                 2.3828                 5.4824
 Frc consts  --      3.3739                 2.7392                 6.4860
 IR Inten    --     19.0306                96.2664                74.4996

                     61                     62                     63
                      A                      A                      A
 Frequencies --   1440.0523              1443.2590              1458.0958
 Red. masses --      1.5610                 1.2547                 1.8022
 Frc consts  --      1.9072                 1.5398                 2.2575
 IR Inten    --      8.3321                 9.2214                 3.9939

                     64                     65                     66
                      A                      A                      A
 Frequencies --   1484.0348              1502.6809              1510.5969
 Red. masses --      5.1031                 2.8014                 1.0444
 Frc consts  --      6.6217                 3.7270                 1.4042
 IR Inten    --     87.9447                99.0962                 4.2899

                     67                     68                     69
                      A                      A                      A
 Frequencies --   1512.6057              1514.5772              1521.4851
 Red. masses --      1.2469                 2.1763                 1.1418
 Frc consts  --      1.6809                 2.9413                 1.5573
 IR Inten    --     10.5481                21.4661                 8.2348

                     70                     71                     72
                      A                      A                      A
 Frequencies --   1537.1021              1587.9049              1633.5997
 Red. masses --      1.5056                 6.6412                 4.1423
 Frc consts  --      2.0959                 9.8660                 6.5130
 IR Inten    --     10.1051                14.5178                40.8261

                     73                     74                     75
                      A                      A                      A
 Frequencies --   1806.7769              3048.4703              3067.9948
 Red. masses --      9.7424                 1.0392                 1.0352
 Frc consts  --     18.7381                 5.6900                 5.7409
 IR Inten    --    343.0382                26.1779                14.1110

                     76                     77                     78
                      A                      A                      A
 Frequencies --   3099.6722              3130.5311              3144.4783
 Red. masses --      1.1017                 1.1007                 1.1041
 Frc consts  --      6.2367                 6.3556                 6.4321
 IR Inten    --     15.0239                 7.5530                13.4009

                     79                     80                     81
                      A                      A                      A
 Frequencies --   3148.0030              3248.5824              3275.0863
 Red. masses --      1.0987                 1.0940                 1.0979
 Frc consts  --      6.4148                 6.8020                 6.9382
 IR Inten    --      7.4865                 0.5880                 0.0876

                     82                     83                     84
                      A                      A                      A
 Frequencies --   3556.3353              3660.8151              3690.3597
 Red. masses --      1.0755                 1.0812                 1.0641
 Frc consts  --      8.0145                 8.5370                 8.5380
 IR Inten    --     38.2817                71.5612                90.8699

 - Thermochemistry -
 -------------------
 Temperature   298.150 Kelvin.  Pressure   1.00000 Atm.
 Atom     1 has atomic number  6 and mass  12.00000

 Molecular mass:   301.01910 amu.
 Principal axes and moments of inertia in atomic units:
                           1         2         3
     Eigenvalues --  4461.026166462.692848775.20147
           X            0.99987  -0.00088  -0.01627
           Y            0.00086   1.00000  -0.00142
           Z            0.01627   0.00141   0.99987
 This molecule is an asymmetric top.
 Rotational symmetry number  1.
 Warning -- assumption of classical behavior for rotation
           may cause significant error
 Rotational temperatures (Kelvin)      0.01942     0.01340     0.00987
 Rotational constants (GHZ):           0.40456     0.27926     0.20566
 Zero-point vibrational energy     569070.3 (Joules/Mol)
                                  136.01106 (Kcal/Mol)
 Warning -- explicit consideration of  30 degrees of freedom as
           vibrations may cause significant error
 Vibrational temperatures:     22.01    33.47    53.20    72.67    90.31
          (Kelvin)            105.44   136.14   153.97   168.07   196.47
                              280.12   297.02   326.00   356.03   364.26
                              412.82   447.68   476.05   523.23   561.92
                              580.30   620.79   696.49   701.86   728.34
                              768.41   793.96   832.67   843.91   892.04
                              916.57   952.68   959.47  1005.72  1027.94
                             1062.36  1108.40  1128.48  1177.30  1227.03
                             1262.57  1372.06  1440.48  1476.56  1488.34
                             1513.65  1521.75  1542.01  1549.34  1596.17
                             1640.81  1689.20  1744.21  1753.88  1774.78
                             1852.34  1933.59  1980.24  2009.72  2038.79
                             2071.91  2076.53  2097.87  2135.20  2162.02
                             2173.41  2176.30  2179.14  2189.08  2211.55
                             2284.64  2350.39  2599.55  4386.07  4414.16
                             4459.74  4504.14  4524.20  4529.27  4673.99
                             4712.12  5116.77  5267.10  5309.60

 Zero-point correction=                           0.216747 (Hartree/Particle)
 Thermal correction to Energy=                    0.235720
 Thermal correction to Enthalpy=                  0.236665
 Thermal correction to Gibbs Free Energy=         0.166257
 Sum of electronic and zero-point Energies=          -1648.981131
 Sum of electronic and thermal Energies=             -1648.962158
 Sum of electronic and thermal Enthalpies=           -1648.961214
 Sum of electronic and thermal Free Energies=        -1649.031622

                     E (Thermal)             CV                S
                      KCal/Mol        Cal/Mol-Kelvin    Cal/Mol-Kelvin
 Total                  147.917             68.490            148.186
 Electronic               0.000              0.000              0.000
 Translational            0.889              2.981             43.003
 Rotational               0.889              2.981             33.892
 Vibrational            146.139             62.528             71.292
 Vibration     1          0.593              1.986              7.166
 Vibration     2          0.593              1.985              6.334
 Vibration     3          0.594              1.982              5.415
 Vibration     4          0.595              1.977              4.797
 Vibration     5          0.597              1.972              4.368
 Vibration     6          0.599              1.967              4.063
 Vibration     7          0.603              1.953              3.562
 Vibration     8          0.606              1.944              3.322
 Vibration     9          0.608              1.935              3.152
 Vibration    10          0.614              1.917              2.852
 Vibration    11          0.635              1.847              2.183
 Vibration    12          0.641              1.831              2.075
 Vibration    13          0.650              1.801              1.906
 Vibration    14          0.661              1.767              1.749
 Vibration    15          0.664              1.757              1.708
 Vibration    16          0.684              1.698              1.492
 Vibration    17          0.700              1.652              1.356
 Vibration    18          0.713              1.614              1.256
 Vibration    19          0.737              1.547              1.106
 Vibration    20          0.758              1.490              0.998
 Vibration    21          0.769              1.463              0.950
 Vibration    22          0.793              1.402              0.854
 Vibration    23          0.840              1.285              0.699
 Vibration    24          0.844              1.277              0.689
 Vibration    25          0.861              1.236              0.643
 Vibration    26          0.889              1.175              0.578
 Vibration    27          0.907              1.136              0.540
 Vibration    28          0.935              1.077              0.488
 Vibration    29          0.944              1.060              0.473
 Vibration    30          0.980              0.990              0.417

                           ! Non-Optimized Parameters !
 Normal termination of Gaussian 16 at Mon Dec 14 14:31:00 2020.

 ----------------------------------------------------------------------
 # B3LYP/6-311++G(d,p) empiricaldispersion=gd3bj scf=xqc pop=npa geom=c
 heck
 ----------------------------------------------------------------------

 --------------------------------------
 CID_63821154_JID_9892_Energie_neutraal
 --------------------------------------
 Structure from the checkpoint file:  "JID_9892.chk"
 Charge =  0 Multiplicity = 1

 SCF Done:  E(RB3LYP) =  -1649.50271754     A.U. after   17 cycles
 Normal termination of Gaussian 16 at Mon Dec 14 14:38:37 2020.

 ----------------------------------------------------------------------
 # B3LYP/6-311++G(d,p) empiricaldispersion=gd3bj scf=xqc pop=npa geom=c
 heck
 ----------------------------------------------------------------------

 ------------------------------------
 CID_63821154_JID_9892_Energie_kation
 ------------------------------------
 Structure from the checkpoint file:  "JID_9892.chk"
 Charge =  1 Multiplicity = 2

 SCF Done:  E(UB3LYP) =  -1649.18426465     A.U. after   32 cycles
 Normal termination of Gaussian 16 at Mon Dec 14 14:59:09 2020.
 Gaussian 16:  ES64L-G16RevA.03 25-Dec-2016

 ----------------------------------------------------------------------
 # B3LYP/6-311++G(d,p) empiricaldispersion=gd3bj scf=xqc pop=npa geom=c
 heck
 ----------------------------------------------------------------------

 -----------------------------------
 CID_63821154_JID_9892_Energie_anion
 -----------------------------------
 Structure from the checkpoint file:  "JID_9892.chk"
 Charge = -1 Multiplicity = 2

                         Standard orientation:
 ---------------------------------------------------------------------
 Center     Atomic      Atomic             Coordinates (Angstroms)
 Number     Number       Type             X           Y           Z
 ---------------------------------------------------------------------
      1          6           0        0.584798    4.062705   -0.865658
      2          6           0        1.285491    2.770759   -0.598224
      3          6           0        1.344388    1.588382   -1.313955
      4          6           0        2.180009    0.738566   -0.545349
      5          7           0        2.609115    1.327093    0.568327
      6          7           0        2.039202    2.553899    0.516202
      7          7           0        2.509983   -0.607215   -0.814880
      8         16           0        1.795611   -1.825427    0.152129
      9          8           0        1.759115   -3.001359   -0.717111
     10          8           0        2.434723   -1.825496    1.459119
     11          6           0        0.141854   -1.235085    0.391568
     12          6           0       -0.242653   -0.385870    1.398964
     13          6           0       -1.572572    0.094278    1.237356
     14          6           0       -2.147652   -0.412609    0.080441
     15         16           0       -1.082751   -1.474357   -0.802729
     16          6           0       -3.481983   -0.217999   -0.493113
     17          8           0       -3.863727   -0.729083   -1.528547
     18          8           0       -4.267808    0.606617    0.246004
     19          6           0       -2.223650    1.031114    2.217250
     20          1           0       -0.059720    4.353099   -0.027280
     21          1           0        1.293513    4.881384   -1.040965
     22          1           0       -0.043889    3.969498   -1.754345
     23          1           0        0.843495    1.362942   -2.244149
     24          1           0        2.245133    3.208386    1.256015
     25          1           0        2.388591   -0.871378   -1.788818
     26          1           0        0.416995   -0.108601    2.211866
     27          1           0       -5.116601    0.652922   -0.232821
     28          1           0       -3.115056    0.581490    2.665065
     29          1           0       -1.523367    1.285364    3.017499
     30          1           0       -2.549549    1.954106    1.728594
 ---------------------------------------------------------------------

 SCF Done:  E(UB3LYP) =  -1649.53794635     A.U. after   23 cycles

 The electronic state is 2-A.
 Alpha  occ. eigenvalues --  -88.93734 -88.72561 -19.03240 -18.99400 -18.99198
 Alpha  occ. eigenvalues --  -18.95549 -14.29523 -14.23338 -14.23260 -10.14533
 Alpha  occ. eigenvalues --  -10.13357 -10.13081 -10.10978 -10.07483 -10.06035
 Alpha  occ. eigenvalues --  -10.04814 -10.04750 -10.04347 -10.03767  -7.99825
 Alpha  occ. eigenvalues --   -7.81195  -5.96141  -5.96084  -5.95895  -5.77514
 Alpha  occ. eigenvalues --   -5.77130  -5.76796  -0.99691  -0.96804  -0.95848
 Alpha  occ. eigenvalues --   -0.88909  -0.87270  -0.82554  -0.74556  -0.73436
 Alpha  occ. eigenvalues --   -0.69766  -0.64250  -0.63435  -0.61556  -0.56392
 Alpha  occ. eigenvalues --   -0.55080  -0.51995  -0.51391  -0.47942  -0.44406
 Alpha  occ. eigenvalues --   -0.42590  -0.41959  -0.39061  -0.38521  -0.37519
 Alpha  occ. eigenvalues --   -0.36879  -0.35756  -0.34901  -0.33546  -0.32990
 Alpha  occ. eigenvalues --   -0.32682  -0.32004  -0.31673  -0.31377  -0.30187
 Alpha  occ. eigenvalues --   -0.29242  -0.27874  -0.25370  -0.24390  -0.24045
 Alpha  occ. eigenvalues --   -0.23277  -0.21859  -0.20818  -0.20426  -0.19888
 Alpha  occ. eigenvalues --   -0.19216  -0.18854  -0.18274  -0.15788  -0.14084
 Alpha  occ. eigenvalues --   -0.13886  -0.11763  -0.11069   0.02503
 Alpha virt. eigenvalues --    0.05474   0.07829   0.08084   0.08859   0.09251
 Alpha virt. eigenvalues --    0.09964   0.10593   0.11029   0.12144   0.12900
 Alpha virt. eigenvalues --    0.12987   0.13170   0.13941   0.14248   0.14962

  Beta  occ. eigenvalues --  -88.93725 -88.72471 -19.03152 -18.99386 -18.99168
  Beta  occ. eigenvalues --  -18.95284 -14.29522 -14.23332 -14.23192 -10.14310
  Beta  occ. eigenvalues --  -10.13358 -10.13081 -10.10978 -10.07482 -10.05629
  Beta  occ. eigenvalues --  -10.04831 -10.04520 -10.04177 -10.03770  -7.99815
  Beta  occ. eigenvalues --   -7.81114  -5.96109  -5.96078  -5.95889  -5.77474
  Beta  occ. eigenvalues --   -5.77090  -5.76500  -0.99607  -0.96510  -0.95842
  Beta  occ. eigenvalues --   -0.88864  -0.86853  -0.82432  -0.74127  -0.73410
  Beta  occ. eigenvalues --   -0.69745  -0.63820  -0.63433  -0.60988  -0.56181
  Beta  occ. eigenvalues --   -0.54682  -0.51825  -0.51288  -0.47772  -0.44296
  Beta  occ. eigenvalues --   -0.42420  -0.41655  -0.38908  -0.38305  -0.37452
  Beta  occ. eigenvalues --   -0.36780  -0.35753  -0.34624  -0.33516  -0.32938
  Beta  occ. eigenvalues --   -0.32639  -0.31647  -0.31155  -0.30981  -0.30097
  Beta  occ. eigenvalues --   -0.28734  -0.27624  -0.25190  -0.23857  -0.23642
  Beta  occ. eigenvalues --   -0.23086  -0.21460  -0.20641  -0.20183  -0.19785
  Beta  occ. eigenvalues --   -0.18816  -0.18363  -0.17653  -0.15760  -0.13824
  Beta  occ. eigenvalues --   -0.13705  -0.10403  -0.08962
  Beta virt. eigenvalues --    0.05461   0.07810   0.08078   0.08460   0.08874
  Beta virt. eigenvalues --    0.09323   0.09977   0.10587   0.11016   0.12166
  Beta virt. eigenvalues --    0.12935   0.13036   0.13201   0.14216   0.14592

 Mulliken charges and spin densities:
               1          2
     1  C   -0.635145  -0.013569
     2  C   -0.100157  -0.022469
     3  C    0.058885   0.032830
     4  C   -0.077144  -0.015988
     5  N   -0.147149  -0.002545
     6  N   -0.051913   0.013058
     7  N   -0.223501   0.030113
     8  S    0.537556   0.023456
     9  O   -0.210015  -0.006899
    10  O   -0.134044   0.005385
    11  C   -0.585473   0.194890
    12  C   -0.465311   0.083236
    13  C   -0.141390   0.163415
    14  C   -0.546763   0.087774
    15  S    0.102607   0.141026
    16  C    0.684526   0.146342
    17  O   -0.397762   0.094197
    18  O   -0.233599   0.016115
    19  C   -0.538857  -0.003007
    20  H    0.150524   0.000891
    21  H    0.148792  -0.000640
    22  H    0.166912   0.000357
    23  H    0.157136   0.012704
    24  H    0.296346   0.001708
    25  H    0.293399   0.001385
    26  H    0.174629  -0.002590
    27  H    0.277933  -0.001804
    28  H    0.164254   0.010441
    29  H    0.115151   0.000627
    30  H    0.159574   0.009562
 Sum of Mulliken charges =  -1.00000   1.00000

 Dipole moment (field-independent basis, Debye):
    X=              1.4142    Y=             10.0600    Z=             -0.0990  Tot=             10.1594
 Quadrupole moment (field-independent basis, Debye-Ang):
   XX=           -171.4337   YY=           -139.4428   ZZ=           -137.6981
   XY=              5.6003   XZ=            -12.9849   YZ=             -0.7462

 Summary of Natural Population Analysis:

                                       Natural Population
                Natural  -----------------------------------------------
    Atom  No    Charge         Core      Valence    Rydberg      Total
 -----------------------------------------------------------------------
      C    1   -0.30181      0.99964     2.29767    0.00450     3.30181
      C    2    0.07918      0.99958     1.91120    0.01004     2.92082
      C    3   -0.16037      0.99945     2.15288    0.00804     3.16037
      C    4    0.15524      0.99957     1.82767    0.01753     2.84476
      N    5   -0.15597      0.99969     2.64161    0.01468     3.65597
      N    6   -0.17507      0.99965     2.66305    0.01237     3.67507
      N    7   -0.42194      0.99968     2.90592    0.01634     3.92194
      S    8    1.11815      4.99909     1.78115    0.10161     6.88185
      O    9   -0.46918      0.99991     3.46383    0.00544     4.46918
      O   10   -0.45300      0.99990     3.44722    0.00587     4.45300
      C   11   -0.17833      0.99937     2.16264    0.01632     3.17833
      C   12   -0.12382      0.99942     2.11265    0.01175     3.12382
      C   13    0.00350      0.99946     1.98795    0.00908     2.99650
      C   14   -0.11600      0.99938     2.10259    0.01404     3.11600
      S   15    0.27358      4.99936     2.70433    0.02273     7.72642
      C   16    0.40959      0.99960     1.56709    0.02371     2.59041
      O   17   -0.30517      0.99987     3.29870    0.00659     4.30517
      O   18   -0.34919      0.99988     3.34330    0.00602     4.34919
      C   19   -0.28993      0.99964     2.28533    0.00496     3.28993
      H   20    0.10632      0.00000     0.39271    0.00097     0.39368
      H   21    0.10069      0.00000     0.39825    0.00106     0.39931
      H   22    0.11136      0.00000     0.38790    0.00074     0.38864
      H   23    0.11242      0.00000     0.38656    0.00103     0.38758
      H   24    0.19409      0.00000     0.30437    0.00155     0.30591
      H   25    0.19740      0.00000     0.30072    0.00188     0.30260
      H   26    0.10896      0.00000     0.38979    0.00125     0.39104
      H   27    0.22753      0.00000     0.26691    0.00555     0.27247
      H   28    0.10545      0.00000     0.39353    0.00102     0.39455
      H   29    0.09287      0.00000     0.40615    0.00098     0.40713
      H   30    0.10347      0.00000     0.39550    0.00103     0.39653
 =======================================================================
   * Total *   -0.00000     26.99214    50.67919    0.32867    78.00000

 Normal termination of Gaussian 16 at Mon Dec 14 15:13:57 2020.
