 Gaussian 16, Revision A.03,

 -----------------------------------------------------------
 # opt freq B3LYP/6-31G(d) empiricaldispersion=gd3bj scf=xqc
 -----------------------------------------------------------

 ------------------------------
 CID_64351328_JID_7074_neutraal
 ------------------------------
 Symbolic Z-matrix:
 Charge =  0 Multiplicity = 1

 SCF Done:  E(RB3LYP) =  -800.701408756     A.U. after   15 cycles
 SCF Done:  E(RB3LYP) =  -800.675857493     A.U. after   13 cycles
 SCF Done:  E(RB3LYP) =  -800.707635318     A.U. after   13 cycles
 SCF Done:  E(RB3LYP) =  -800.705612770     A.U. after   14 cycles
 SCF Done:  E(RB3LYP) =  -800.709044262     A.U. after   12 cycles
 SCF Done:  E(RB3LYP) =  -800.710031195     A.U. after   12 cycles
 SCF Done:  E(RB3LYP) =  -800.710324317     A.U. after   11 cycles
 SCF Done:  E(RB3LYP) =  -800.710522347     A.U. after   11 cycles
 SCF Done:  E(RB3LYP) =  -800.710651768     A.U. after   11 cycles
 SCF Done:  E(RB3LYP) =  -800.710732928     A.U. after   11 cycles
 SCF Done:  E(RB3LYP) =  -800.713698410     A.U. after    9 cycles
 SCF Done:  E(RB3LYP) =  -800.713698270     A.U. after    8 cycles
 SCF Done:  E(RB3LYP) =  -800.713698473     A.U. after    7 cycles
 SCF Done:  E(RB3LYP) =  -800.713699068     A.U. after    8 cycles
 Optimization completed.
    -- Stationary point found.
 Normal termination of Gaussian 16 at Fri Dec 11 12:14:41 2020.

 --------------------------------------------------------------------
 #N Geom=AllCheck Guess=TCheck SCRF=Check GenChk RB3LYP/6-31G(d) Freq
 --------------------------------------------------------------------

 Structure from the checkpoint file:  "JID_7074.chk"
 ------------------------------
 CID_64351328_JID_7074_neutraal
 ------------------------------
 Charge =  0 Multiplicity = 1

 SCF Done:  E(RB3LYP) =  -800.713699068     A.U. after    1 cycles

  Exact polarizability: 142.169   4.881 144.518   4.082   0.629 129.202
 Approx polarizability: 203.566   6.082 204.478  20.356  -5.457 209.735

                      1                      2                      3
                      A                      A                      A
 Frequencies --     28.1773                32.9231                54.0647
 Red. masses --      5.1704                 4.1996                 4.9051
 Frc consts  --      0.0024                 0.0027                 0.0084
 IR Inten    --      2.0554                 1.3691                 0.0395

                      4                      5                      6
                      A                      A                      A
 Frequencies --     63.5207                72.0948                81.5340
 Red. masses --      6.0275                 3.6305                 4.3317
 Frc consts  --      0.0143                 0.0111                 0.0170
 IR Inten    --      2.3936                 0.0532                 1.8355

                      7                      8                      9
                      A                      A                      A
 Frequencies --    104.8304               134.4383               164.4575
 Red. masses --      3.4102                 2.6984                 4.0764
 Frc consts  --      0.0221                 0.0287                 0.0650
 IR Inten    --      0.9467                 2.6986                 3.1455

                     10                     11                     12
                      A                      A                      A
 Frequencies --    186.9003               204.0680               213.1135
 Red. masses --      4.0564                 1.1632                 2.6370
 Frc consts  --      0.0835                 0.0285                 0.0706
 IR Inten    --      0.1078                 4.8532                 4.0730

                     13                     14                     15
                      A                      A                      A
 Frequencies --    239.8639               259.5460               264.3792
 Red. masses --      1.2807                 1.2233                 1.6839
 Frc consts  --      0.0434                 0.0486                 0.0693
 IR Inten    --      3.2173                13.5070                 6.0531

                     16                     17                     18
                      A                      A                      A
 Frequencies --    290.3068               310.6349               326.2943
 Red. masses --      2.6136                 2.4632                 2.9293
 Frc consts  --      0.1298                 0.1400                 0.1837
 IR Inten    --      1.3577                 2.3130                 9.4523

                     19                     20                     21
                      A                      A                      A
 Frequencies --    365.1862               372.8968               407.5289
 Red. masses --      2.3413                 2.7912                 2.9585
 Frc consts  --      0.1840                 0.2287                 0.2895
 IR Inten    --      0.3094                 3.7776                 5.1598

                     22                     23                     24
                      A                      A                      A
 Frequencies --    420.1378               442.1622               512.9717
 Red. masses --      2.0759                 4.3248                 2.3074
 Frc consts  --      0.2159                 0.4982                 0.3577
 IR Inten    --      0.4319                 1.6162                 3.5614

                     25                     26                     27
                      A                      A                      A
 Frequencies --    523.4471               555.0852               626.0045
 Red. masses --      2.3246                 3.3485                 2.8766
 Frc consts  --      0.3753                 0.6079                 0.6642
 IR Inten    --     38.2442                17.2206                10.4311

                     28                     29                     30
                      A                      A                      A
 Frequencies --    640.8511               676.5057               706.9793
 Red. masses --      5.7025                 4.3132                 3.0861
 Frc consts  --      1.3798                 1.1630                 0.9088
 IR Inten    --      2.2770                 7.3671                44.3711

                     31                     32                     33
                      A                      A                      A
 Frequencies --    729.8680               773.5241               787.8463
 Red. masses --      1.9305                 2.7845                 3.1027
 Frc consts  --      0.6059                 0.9816                 1.1347
 IR Inten    --     60.4987                 1.6003                 9.9095

                     34                     35                     36
                      A                      A                      A
 Frequencies --    792.4293               862.9707               866.1053
 Red. masses --      3.5470                 1.6579                 1.9161
 Frc consts  --      1.3123                 0.7275                 0.8469
 IR Inten    --     42.8935                86.0712                 2.2645

                     37                     38                     39
                      A                      A                      A
 Frequencies --    890.7832               920.5648               937.0164
 Red. masses --     13.0663                 1.7087                 1.7014
 Frc consts  --      6.1087                 0.8531                 0.8801
 IR Inten    --     10.4561                31.6783                 3.9990

                     40                     41                     42
                      A                      A                      A
 Frequencies --    969.7633               977.0764               991.0471
 Red. masses --      1.9021                 1.9666                 1.3980
 Frc consts  --      1.0540                 1.1062                 0.8090
 IR Inten    --     12.2891                 6.6973                 5.8086

                     43                     44                     45
                      A                      A                      A
 Frequencies --    999.5077              1008.2400              1055.6944
 Red. masses --      1.9743                 3.5650                 2.3910
 Frc consts  --      1.1621                 2.1352                 1.5700
 IR Inten    --      8.7952                 4.9341                 0.0744

                     46                     47                     48
                      A                      A                      A
 Frequencies --   1061.9452              1071.0329              1086.4070
 Red. masses --      2.5322                 3.8770                 1.7067
 Frc consts  --      1.6825                 2.6203                 1.1868
 IR Inten    --      7.4938                 2.4358                 3.6723

                     49                     50                     51
                      A                      A                      A
 Frequencies --   1101.2964              1106.8573              1133.3792
 Red. masses --      1.5454                 2.1454                 2.0934
 Frc consts  --      1.1043                 1.5486                 1.5843
 IR Inten    --     12.6327                 3.0497                 1.7571

                     52                     53                     54
                      A                      A                      A
 Frequencies --   1142.2239              1164.5297              1199.1030
 Red. masses --      2.8133                 1.6970                 1.3754
 Frc consts  --      2.1626                 1.3559                 1.1652
 IR Inten    --     14.0027                19.0778                 0.6184

                     55                     56                     57
                      A                      A                      A
 Frequencies --   1234.0176              1248.2849              1264.0352
 Red. masses --      1.5382                 1.8166                 1.4923
 Frc consts  --      1.3801                 1.6678                 1.4048
 IR Inten    --     29.1722                 5.2993                12.0704

                     58                     59                     60
                      A                      A                      A
 Frequencies --   1282.0579              1299.1324              1327.8472
 Red. masses --      1.9658                 1.3252                 1.7130
 Frc consts  --      1.9038                 1.3178                 1.7795
 IR Inten    --     66.9011                 3.9674                43.7970

                     61                     62                     63
                      A                      A                      A
 Frequencies --   1348.2095              1359.2063              1370.4630
 Red. masses --      1.2804                 1.2205                 1.6270
 Frc consts  --      1.3713                 1.3284                 1.8004
 IR Inten    --      1.1225                17.8229                26.8368

                     64                     65                     66
                      A                      A                      A
 Frequencies --   1378.7183              1412.3230              1416.0133
 Red. masses --      1.7022                 1.5968                 1.4744
 Frc consts  --      1.9064                 1.8766                 1.7418
 IR Inten    --     42.3911                16.1928                 2.5626

                     67                     68                     69
                      A                      A                      A
 Frequencies --   1422.3997              1435.0223              1444.1809
 Red. masses --      1.5683                 1.7089                 1.2690
 Frc consts  --      1.8695                 2.0734                 1.5594
 IR Inten    --      5.1627                41.6491                 5.0820

                     70                     71                     72
                      A                      A                      A
 Frequencies --   1446.0271              1453.3580              1488.4330
 Red. masses --      1.3566                 1.5396                 1.4586
 Frc consts  --      1.6713                 1.9160                 1.9040
 IR Inten    --     12.7490                30.9022                22.5281

                     73                     74                     75
                      A                      A                      A
 Frequencies --   1502.5622              1503.0006              1509.1181
 Red. masses --      1.1128                 1.1023                 1.1148
 Frc consts  --      1.4802                 1.4671                 1.4958
 IR Inten    --     16.8142                 0.7012                20.1861

                     76                     77                     78
                      A                      A                      A
 Frequencies --   1512.8779              1516.5834              1517.9530
 Red. masses --      1.0864                 1.1598                 1.1045
 Frc consts  --      1.4650                 1.5716                 1.4995
 IR Inten    --     12.2930                 9.8683                 6.3498

                     79                     80                     81
                      A                      A                      A
 Frequencies --   1526.6469              1531.7594              1539.8756
 Red. masses --      1.0486                 1.0645                 1.0825
 Frc consts  --      1.4399                 1.4715                 1.5123
 IR Inten    --     12.2466                 7.7358                 4.4665

                     82                     83                     84
                      A                      A                      A
 Frequencies --   1579.3333              1641.1207              1693.4229
 Red. masses --      4.1577                 7.5328                 1.0900
 Frc consts  --      6.1101                11.9532                 1.8416
 IR Inten    --      2.7044                50.6482                24.6020

                     85                     86                     87
                      A                      A                      A
 Frequencies --   1792.4685              2980.8012              3026.4487
 Red. masses --      8.1549                 1.0725                 1.0595
 Frc consts  --     15.4373                 5.6145                 5.7179
 IR Inten    --    242.8809                99.3873                37.2781

                     88                     89                     90
                      A                      A                      A
 Frequencies --   3038.8430              3041.4967              3042.0863
 Red. masses --      1.0428                 1.0662                 1.0417
 Frc consts  --      5.6737                 5.8114                 5.6799
 IR Inten    --     15.3993                33.9463                28.2996

                     91                     92                     93
                      A                      A                      A
 Frequencies --   3052.5123              3057.1851              3070.3819
 Red. masses --      1.0726                 1.0941                 1.0848
 Frc consts  --      5.8887                 6.0251                 6.0255
 IR Inten    --     28.3459                13.0444                29.9256

                     94                     95                     96
                      A                      A                      A
 Frequencies --   3083.3703              3092.6986              3102.8656
 Red. masses --      1.0646                 1.0918                 1.0961
 Frc consts  --      5.9633                 6.1525                 6.2174
 IR Inten    --     12.8602                15.5904                10.7229

                     97                     98                     99
                      A                      A                      A
 Frequencies --   3107.9519              3112.8054              3117.4274
 Red. masses --      1.0968                 1.0984                 1.0962
 Frc consts  --      6.2420                 6.2709                 6.2766
 IR Inten    --     36.4147                10.9469                37.8301

                    100                    101                    102
                      A                      A                      A
 Frequencies --   3120.7266              3135.2992              3159.3116
 Red. masses --      1.1000                 1.0979                 1.1016
 Frc consts  --      6.3121                 6.3590                 6.4780
 IR Inten    --     24.6725                11.5553                 7.9047

                    103                    104                    105
                      A                      A                      A
 Frequencies --   3468.5249              3556.6502              3576.3310
 Red. masses --      1.0504                 1.0923                 1.0755
 Frc consts  --      7.4452                 8.1406                 8.1051
 IR Inten    --      1.0909                 0.0617                22.4474

 - Thermochemistry -
 -------------------
 Temperature   298.150 Kelvin.  Pressure   1.00000 Atm.
 Atom     1 has atomic number  6 and mass  12.00000

 Molecular mass:   240.15863 amu.
 Principal axes and moments of inertia in atomic units:
                           1         2         3
     Eigenvalues --  3554.209474122.105575516.50759
           X            0.99337   0.11468  -0.00811
           Y           -0.11426   0.99261   0.04077
           Z            0.01273  -0.03957   0.99914
 This molecule is an asymmetric top.
 Rotational symmetry number  1.
 Warning -- assumption of classical behavior for rotation
           may cause significant error
 Rotational temperatures (Kelvin)      0.02437     0.02101     0.01570
 Rotational constants (GHZ):           0.50778     0.43782     0.32715
 Zero-point vibrational energy     842471.8 (Joules/Mol)
                                  201.35559 (Kcal/Mol)
 Warning -- explicit consideration of  26 degrees of freedom as
           vibrations may cause significant error
 Vibrational temperatures:     40.54    47.37    77.79    91.39   103.73
          (Kelvin)            117.31   150.83   193.43   236.62   268.91
                              293.61   306.62   345.11   373.43   380.38
                              417.69   446.93   469.46   525.42   536.52
                              586.34   604.48   636.17   738.05   753.12
                              798.64   900.68   922.04   973.34  1017.19
                             1050.12  1112.93  1133.54  1140.13  1241.62
                             1246.13  1281.64  1324.49  1348.16  1395.27
                             1405.80  1425.90  1438.07  1450.63  1518.91
                             1527.90  1540.98  1563.10  1584.52  1592.52
                             1630.68  1643.41  1675.50  1725.24  1775.48
                             1796.00  1818.66  1844.60  1869.16  1910.48
                             1939.77  1955.59  1971.79  1983.67  2032.02
                             2037.33  2046.52  2064.68  2077.85  2080.51
                             2091.06  2141.52  2161.85  2162.48  2171.28
                             2176.69  2182.03  2184.00  2196.50  2203.86
                             2215.54  2272.31  2361.21  2436.46  2578.96
                             4288.71  4354.38  4372.22  4376.04  4376.88
                             4391.88  4398.61  4417.59  4436.28  4449.70
                             4464.33  4471.65  4478.63  4485.28  4490.03
                             4511.00  4545.54  4990.43  5117.23  5145.54

 Zero-point correction=                           0.320881 (Hartree/Particle)
 Thermal correction to Energy=                    0.338959
 Thermal correction to Enthalpy=                  0.339904
 Thermal correction to Gibbs Free Energy=         0.273756
 Sum of electronic and zero-point Energies=           -800.392819
 Sum of electronic and thermal Energies=              -800.374740
 Sum of electronic and thermal Enthalpies=            -800.373795
 Sum of electronic and thermal Free Energies=         -800.439943

                     E (Thermal)             CV                S
                      KCal/Mol        Cal/Mol-Kelvin    Cal/Mol-Kelvin
 Total                  212.700             66.787            139.219
 Electronic               0.000              0.000              0.000
 Translational            0.889              2.981             42.330
 Rotational               0.889              2.981             32.758
 Vibrational            210.923             60.825             64.132
 Vibration     1          0.593              1.984              5.954
 Vibration     2          0.594              1.983              5.645
 Vibration     3          0.596              1.976              4.663
 Vibration     4          0.597              1.972              4.345
 Vibration     5          0.598              1.967              4.095
 Vibration     6          0.600              1.962              3.854
 Vibration     7          0.605              1.945              3.362
 Vibration     8          0.613              1.919              2.882
 Vibration     9          0.623              1.886              2.498
 Vibration    10          0.632              1.858              2.258
 Vibration    11          0.640              1.834              2.096
 Vibration    12          0.644              1.821              2.017
 Vibration    13          0.657              1.779              1.804
 Vibration    14          0.668              1.747              1.665
 Vibration    15          0.671              1.738              1.633
 Vibration    16          0.686              1.692              1.472
 Vibration    17          0.699              1.653              1.359
 Vibration    18          0.710              1.623              1.278
 Vibration    19          0.738              1.544              1.100
 Vibration    20          0.744              1.528              1.068
 Vibration    21          0.772              1.454              0.935
 Vibration    22          0.783              1.426              0.892
 Vibration    23          0.802              1.378              0.820
 Vibration    24          0.868              1.221              0.626
 Vibration    25          0.878              1.198              0.602
 Vibration    26          0.911              1.129              0.534

                           ! Non-Optimized Parameters !
 Normal termination of Gaussian 16 at Fri Dec 11 12:29:34 2020.

 ----------------------------------------------------------------------
 # B3LYP/6-311++G(d,p) empiricaldispersion=gd3bj scf=xqc pop=npa geom=c
 heck
 ----------------------------------------------------------------------

 --------------------------------------
 CID_64351328_JID_7074_Energie_neutraal
 --------------------------------------
 Structure from the checkpoint file:  "JID_7074.chk"
 Charge =  0 Multiplicity = 1

 SCF Done:  E(RB3LYP) =  -800.947377849     A.U. after   15 cycles
 Normal termination of Gaussian 16 at Fri Dec 11 12:36:03 2020.

 ----------------------------------------------------------------------
 # B3LYP/6-311++G(d,p) empiricaldispersion=gd3bj scf=xqc pop=npa geom=c
 heck
 ----------------------------------------------------------------------

 ------------------------------------
 CID_64351328_JID_7074_Energie_kation
 ------------------------------------
 Structure from the checkpoint file:  "JID_7074.chk"
 Charge =  1 Multiplicity = 2

 SCF Done:  E(UB3LYP) =  -800.627852454     A.U. after   33 cycles
 SCF Done:  E(UB3LYP) =  -800.627852454     a.u. after    1 cycles
 Normal termination of Gaussian 16 at Fri Dec 11 12:57:59 2020.
 Gaussian 16:  ES64L-G16RevA.03 25-Dec-2016

 ----------------------------------------------------------------------
 # B3LYP/6-311++G(d,p) empiricaldispersion=gd3bj scf=xqc pop=npa geom=c
 heck
 ----------------------------------------------------------------------

 -----------------------------------
 CID_64351328_JID_7074_Energie_anion
 -----------------------------------
 Structure from the checkpoint file:  "JID_7074.chk"
 Charge = -1 Multiplicity = 2

                         Standard orientation:
 ---------------------------------------------------------------------
 Center     Atomic      Atomic             Coordinates (Angstroms)
 Number     Number       Type             X           Y           Z
 ---------------------------------------------------------------------
      1          6           0        0.562611   -3.143808   -0.866195
      2          6           0        1.362724   -2.020289   -0.309327
      3          7           0        1.941489   -2.062844    0.866345
      4          8           0        2.505741   -0.766608    0.998406
      5          6           0        2.193471   -0.107390   -0.127478
      6          7           0        1.504763   -0.812246   -0.972079
      7          6           0        2.586226    1.338130   -0.263461
      8          7           0        1.591836    2.106576   -0.992753
      9          6           0        0.273871    2.254615   -0.591927
     10          8           0       -0.589481    2.514607   -1.417416
     11          6           0       -0.033146    2.188775    0.902241
     12          6           0       -1.419468    1.586596    1.156074
     13          6           0       -1.455575    0.050586    1.015938
     14          6           0       -0.933219   -0.636167    2.282506
     15          6           0       -2.873727   -0.421884    0.649229
     16          6           0       -3.135633   -0.317157   -0.857743
     17          7           0       -2.443255   -1.411783   -1.561739
     18          1           0        0.534246   -3.979443   -0.163625
     19          1           0       -0.452318   -2.774926   -1.063796
     20          1           0        0.992627   -3.482870   -1.814793
     21          1           0        2.761592    1.760347    0.728824
     22          1           0        3.534101    1.414396   -0.806503
     23          1           0        1.653020    2.037806   -2.002902
     24          1           0        0.732224    1.641835    1.459520
     25          1           0        0.002994    3.225663    1.263671
     26          1           0       -1.759302    1.862802    2.162779
     27          1           0       -2.110003    2.052050    0.446398
     28          1           0       -0.808609   -0.236536    0.178079
     29          1           0       -1.601411   -0.443729    3.132307
     30          1           0       -0.864890   -1.720132    2.143250
     31          1           0        0.067518   -0.284740    2.557929
     32          1           0       -3.016729   -1.467570    0.955444
     33          1           0       -3.618388    0.166895    1.203144
     34          1           0       -4.220313   -0.300476   -1.055070
     35          1           0       -2.726650    0.627175   -1.234312
     36          1           0       -2.357392   -1.192482   -2.551894
     37          1           0       -3.005032   -2.260032   -1.503928
 ---------------------------------------------------------------------

 SCF Done:  E(UB3LYP) =  -800.938108418     A.U. after   33 cycles
 SCF Done:  E(UB3LYP) =  -800.938108418     a.u. after    1 cycles

 The electronic state is 2-A.
 Alpha  occ. eigenvalues --  -19.10167 -18.99328 -14.24882 -14.23681 -14.20397
 Alpha  occ. eigenvalues --  -14.19453 -10.17595 -10.15638 -10.13141 -10.12896
 Alpha  occ. eigenvalues --  -10.08980 -10.08293 -10.07095 -10.06856 -10.06712
 Alpha  occ. eigenvalues --  -10.06342 -10.05662  -1.04878  -0.94377  -0.83533
 Alpha  occ. eigenvalues --   -0.82250  -0.78385  -0.76175  -0.71745  -0.66162
 Alpha  occ. eigenvalues --   -0.63957  -0.62567  -0.61048  -0.56142  -0.51654
 Alpha  occ. eigenvalues --   -0.50924  -0.49052  -0.47504  -0.45162  -0.41312
 Alpha  occ. eigenvalues --   -0.40676  -0.39826  -0.39362  -0.37782  -0.36984
 Alpha  occ. eigenvalues --   -0.35532  -0.34368  -0.33977  -0.33184  -0.32551
 Alpha  occ. eigenvalues --   -0.31724  -0.31249  -0.30485  -0.29682  -0.29016
 Alpha  occ. eigenvalues --   -0.28048  -0.27231  -0.26986  -0.26154  -0.25269
 Alpha  occ. eigenvalues --   -0.23504  -0.22670  -0.22368  -0.21768  -0.20975
 Alpha  occ. eigenvalues --   -0.18976  -0.18295  -0.16690  -0.15847  -0.14639
 Alpha  occ. eigenvalues --    0.04346
 Alpha virt. eigenvalues --    0.05827   0.06929   0.07419   0.08083   0.08410
 Alpha virt. eigenvalues --    0.09171   0.09576   0.10019   0.10362   0.10885
 Alpha virt. eigenvalues --    0.11375   0.11545   0.12240   0.12693   0.13031

  Beta  occ. eigenvalues --  -19.10033 -18.99324 -14.24759 -14.23656 -14.20393
  Beta  occ. eigenvalues --  -14.19423 -10.17588 -10.15425 -10.13126 -10.12886
  Beta  occ. eigenvalues --  -10.08969 -10.08280 -10.07088 -10.06850 -10.06712
  Beta  occ. eigenvalues --  -10.06334 -10.05656  -1.04650  -0.94365  -0.83427
  Beta  occ. eigenvalues --   -0.82161  -0.78335  -0.75952  -0.71731  -0.66132
  Beta  occ. eigenvalues --   -0.63883  -0.62446  -0.61018  -0.56100  -0.51559
  Beta  occ. eigenvalues --   -0.50838  -0.48879  -0.47457  -0.45122  -0.41184
  Beta  occ. eigenvalues --   -0.40459  -0.39696  -0.39317  -0.37504  -0.36936
  Beta  occ. eigenvalues --   -0.35463  -0.34328  -0.33885  -0.33152  -0.32433
  Beta  occ. eigenvalues --   -0.31703  -0.31148  -0.30380  -0.29636  -0.28937
  Beta  occ. eigenvalues --   -0.28026  -0.27209  -0.26949  -0.26133  -0.25247
  Beta  occ. eigenvalues --   -0.23347  -0.22544  -0.22350  -0.21752  -0.20676
  Beta  occ. eigenvalues --   -0.18890  -0.17811  -0.16410  -0.15799  -0.14597
  Beta virt. eigenvalues --    0.06483   0.07027   0.07749   0.08235   0.08487
  Beta virt. eigenvalues --    0.08838   0.09361   0.09746   0.10307   0.10637
  Beta virt. eigenvalues --    0.10923   0.11631   0.11728   0.12395   0.12814

 Mulliken charges and spin densities:
               1          2
     1  C   -0.023766  -0.753209
     2  C   -0.157036   0.717995
     3  N   -0.165083   0.076995
     4  O    0.191451   0.029394
     5  C   -0.709633   0.661698
     6  N    0.020758   0.046373
     7  C    0.839979  -1.801970
     8  N   -0.061130   0.075043
     9  C   -1.028669   0.655178
    10  O   -0.295222   0.008008
    11  C    0.900964  -0.714329
    12  C   -0.552225  -0.158422
    13  C    0.420158   0.473486
    14  C   -0.716468  -0.157620
    15  C   -0.079648  -0.230620
    16  C   -0.092407  -0.483998
    17  N   -0.339405  -0.016001
    18  H    0.047738   0.104475
    19  H    0.422727  -0.189901
    20  H    0.041058   0.116036
    21  H    0.096582   0.122121
    22  H   -1.017452   1.255033
    23  H   -0.042262   0.344233
    24  H    0.344924  -0.227372
    25  H   -0.149264   0.371915
    26  H    0.056881   0.079608
    27  H    0.253273  -0.065609
    28  H    0.579189  -0.652810
    29  H    0.031473   0.095069
    30  H    0.160072   0.008554
    31  H    0.065962   0.062434
    32  H   -0.049194   0.203563
    33  H    0.068786   0.072049
    34  H   -0.249595   0.390706
    35  H    0.200175   0.004843
    36  H    0.100507   0.128344
    37  H   -0.114198   0.348708
 Sum of Mulliken charges =  -1.00000   1.00000

 Dipole moment (field-independent basis, Debye):
    X=             -2.3481    Y=             -0.8215    Z=              3.4881  Tot=              4.2843
 Quadrupole moment (field-independent basis, Debye-Ang):
   XX=           -169.3187   YY=           -148.8925   ZZ=           -136.7638
   XY=            -10.2330   XZ=              1.6200   YZ=              9.3061

 Summary of Natural Population Analysis:

                                       Natural Population
                Natural  -----------------------------------------------
    Atom  No    Charge         Core      Valence    Rydberg      Total
 -----------------------------------------------------------------------
      C    1   -0.31209      0.99960     2.30773    0.00475     3.31209
      C    2    0.17886      0.99966     1.80407    0.01741     2.82114
      N    3   -0.08882      0.99966     2.57722    0.01194     3.58882
      O    4   -0.16557      0.99985     3.15822    0.00751     4.16557
      C    5    0.30505      0.99961     1.67508    0.02026     2.69495
      N    6   -0.27516      0.99966     2.76619    0.00932     3.77516
      C    7   -0.11922      0.99956     2.10737    0.01228     3.11922
      N    8   -0.31651      0.99968     2.80474    0.01209     3.81651
      C    9    0.35458      0.99967     1.62257    0.02318     2.64542
      O   10   -0.32007      0.99987     3.31455    0.00565     4.32007
      C   11   -0.23671      0.99958     2.22946    0.00768     3.23671
      C   12   -0.18657      0.99961     2.17799    0.00897     3.18657
      C   13   -0.13000      0.99959     2.12048    0.00993     3.13000
      C   14   -0.28208      0.99965     2.27744    0.00499     3.28208
      C   15   -0.18717      0.99961     2.17723    0.01033     3.18717
      C   16   -0.09393      0.99963     2.08289    0.01141     3.09393
      N   17   -0.42405      0.99977     2.91384    0.01044     3.92405
      H   18    0.10510      0.00000     0.39386    0.00103     0.39490
      H   19    0.12851      0.00000     0.37007    0.00143     0.37149
      H   20    0.10589      0.00000     0.39308    0.00104     0.39411
      H   21    0.10606      0.00000     0.39261    0.00132     0.39394
      H   22    0.12324      0.00000     0.36666    0.01009     0.37676
      H   23    0.19692      0.00000     0.30023    0.00284     0.30308
      H   24    0.10248      0.00000     0.39598    0.00154     0.39752
      H   25    0.11219      0.00000     0.38687    0.00094     0.38781
      H   26    0.09387      0.00000     0.40525    0.00089     0.40613
      H   27    0.10774      0.00000     0.39093    0.00133     0.39226
      H   28    0.10747      0.00000     0.38844    0.00409     0.39253
      H   29    0.09070      0.00000     0.40849    0.00081     0.40930
      H   30    0.10269      0.00000     0.39642    0.00089     0.39731
      H   31    0.09977      0.00000     0.39931    0.00092     0.40023
      H   32    0.09588      0.00000     0.40305    0.00107     0.40412
      H   33    0.09371      0.00000     0.40527    0.00101     0.40629
      H   34    0.07786      0.00000     0.42087    0.00127     0.42214
      H   35    0.09977      0.00000     0.39885    0.00138     0.40023
      H   36    0.17717      0.00000     0.32135    0.00148     0.32283
      H   37    0.17245      0.00000     0.32502    0.00253     0.32755
 =======================================================================
   * Total *    0.00000     16.99428    47.77968    0.22605    65.00000

 Normal termination of Gaussian 16 at Fri Dec 11 13:16:53 2020.
