 Gaussian 16, Revision A.03,

 -----------------------------------------------------------
 # opt freq B3LYP/6-31G(d) empiricaldispersion=gd3bj scf=xqc
 -----------------------------------------------------------

 -------------------------------
 CID_141513521_JID_9474_neutraal
 -------------------------------
 Symbolic Z-matrix:
 Charge =  0 Multiplicity = 1

 SCF Done:  E(RB3LYP) =  -822.553967475     A.U. after   15 cycles
 SCF Done:  E(RB3LYP) =  -822.559687400     A.U. after   12 cycles
 SCF Done:  E(RB3LYP) =  -822.560550046     A.U. after   12 cycles
 SCF Done:  E(RB3LYP) =  -822.561302013     A.U. after   12 cycles
 SCF Done:  E(RB3LYP) =  -822.561981557     A.U. after   13 cycles
 SCF Done:  E(RB3LYP) =  -822.562514918     A.U. after   11 cycles
 SCF Done:  E(RB3LYP) =  -822.562901692     A.U. after   12 cycles
 SCF Done:  E(RB3LYP) =  -822.562923231     A.U. after   12 cycles
 SCF Done:  E(RB3LYP) =  -822.562987639     A.U. after   11 cycles
 SCF Done:  E(RB3LYP) =  -822.563029321     A.U. after   11 cycles
 SCF Done:  E(RB3LYP) =  -822.568134255     A.U. after   10 cycles
 SCF Done:  E(RB3LYP) =  -822.568135803     A.U. after   10 cycles
 SCF Done:  E(RB3LYP) =  -822.568136188     A.U. after    9 cycles
 SCF Done:  E(RB3LYP) =  -822.568136149     A.U. after    9 cycles
 SCF Done:  E(RB3LYP) =  -822.568136323     A.U. after    8 cycles
 Optimization completed.
    -- Stationary point found.
 Normal termination of Gaussian 16 at Sat Dec 12 10:39:58 2020.

 --------------------------------------------------------------------
 #N Geom=AllCheck Guess=TCheck SCRF=Check GenChk RB3LYP/6-31G(d) Freq
 --------------------------------------------------------------------

 Structure from the checkpoint file:  "JID_9474.chk"
 -------------------------------
 CID_141513521_JID_9474_neutraal
 -------------------------------
 Charge =  0 Multiplicity = 1

 SCF Done:  E(RB3LYP) =  -822.568136323     A.U. after    1 cycles

  Exact polarizability: 240.472  15.660 177.205  21.830 -11.890 124.771
 Approx polarizability: 317.051  33.220 271.133  33.253 -30.005 205.979

                      1                      2                      3
                      A                      A                      A
 Frequencies --     13.9660                18.6134                23.5296
 Red. masses --      3.8590                 3.6736                 1.0257
 Frc consts  --      0.0004                 0.0007                 0.0003
 IR Inten    --      0.5145                 0.3260                 0.2284

                      4                      5                      6
                      A                      A                      A
 Frequencies --     40.7896                56.8804                78.1401
 Red. masses --      4.2042                 4.3645                 3.5054
 Frc consts  --      0.0041                 0.0083                 0.0126
 IR Inten    --      0.6533                 2.0252                 0.1247

                      7                      8                      9
                      A                      A                      A
 Frequencies --    103.4813               111.7208               125.3284
 Red. masses --      2.6464                 1.1685                 3.8214
 Frc consts  --      0.0167                 0.0086                 0.0354
 IR Inten    --      5.8220                 1.1766                 0.5154

                     10                     11                     12
                      A                      A                      A
 Frequencies --    139.4440               159.6829               176.8723
 Red. masses --      1.0805                 3.4398                 1.1239
 Frc consts  --      0.0124                 0.0517                 0.0207
 IR Inten    --      0.3159                 2.2033                 0.0921

                     13                     14                     15
                      A                      A                      A
 Frequencies --    199.8826               219.1282               251.3112
 Red. masses --      2.8617                 3.0832                 3.1269
 Frc consts  --      0.0674                 0.0872                 0.1164
 IR Inten    --      8.4944                 0.6382                 1.0815

                     16                     17                     18
                      A                      A                      A
 Frequencies --    269.7329               276.5720               298.5368
 Red. masses --      2.6351                 3.1625                 3.2109
 Frc consts  --      0.1130                 0.1425                 0.1686
 IR Inten    --      1.7175                 0.9126                 1.8513

                     19                     20                     21
                      A                      A                      A
 Frequencies --    305.7500               350.6039               371.5215
 Red. masses --      3.4073                 3.7976                 4.6696
 Frc consts  --      0.1877                 0.2750                 0.3797
 IR Inten    --      4.0470                 1.4290                 0.5120

                     22                     23                     24
                      A                      A                      A
 Frequencies --    416.0726               451.2356               466.2696
 Red. masses --      3.8285                 4.2237                 3.1035
 Frc consts  --      0.3905                 0.5067                 0.3975
 IR Inten    --      0.4824                 6.6368                 6.7649

                     25                     26                     27
                      A                      A                      A
 Frequencies --    480.2906               529.1351               575.1685
 Red. masses --      3.6437                 5.4301                 4.0169
 Frc consts  --      0.4952                 0.8958                 0.7829
 IR Inten    --      0.3206                 6.3712                 1.1159

                     28                     29                     30
                      A                      A                      A
 Frequencies --    609.2948               623.4390               631.8277
 Red. masses --      4.1269                 3.8391                 4.4977
 Frc consts  --      0.9027                 0.8791                 1.0579
 IR Inten    --      1.5044                 0.8944                10.9589

                     31                     32                     33
                      A                      A                      A
 Frequencies --    646.8588               686.5714               712.3605
 Red. masses --      3.3226                 5.5278                 1.7927
 Frc consts  --      0.8191                 1.5352                 0.5360
 IR Inten    --      6.6618                 2.9562                13.4457

                     34                     35                     36
                      A                      A                      A
 Frequencies --    720.2297               734.7055               748.7937
 Red. masses --      2.3566                 5.1312                 3.9390
 Frc consts  --      0.7202                 1.6319                 1.3013
 IR Inten    --      9.5207                10.1245                 7.7555

                     37                     38                     39
                      A                      A                      A
 Frequencies --    775.6112               819.8047               840.2693
 Red. masses --      4.0874                 1.3361                 2.5016
 Frc consts  --      1.4487                 0.5290                 1.0406
 IR Inten    --      6.9465                 9.1897                 2.3454

                     40                     41                     42
                      A                      A                      A
 Frequencies --    859.7980               899.3690               942.8691
 Red. masses --      1.8747                 1.4104                 3.3169
 Frc consts  --      0.8165                 0.6722                 1.7374
 IR Inten    --     24.0862                 1.1212                 9.2439

                     43                     44                     45
                      A                      A                      A
 Frequencies --    956.1184               997.1811              1016.4481
 Red. masses --      1.3569                 1.8164                 1.8556
 Frc consts  --      0.7308                 1.0642                 1.1296
 IR Inten    --      2.5079                 6.9860                 3.5319

                     46                     47                     48
                      A                      A                      A
 Frequencies --   1029.0655              1035.0414              1040.0433
 Red. masses --      1.6046                 2.4259                 2.0669
 Frc consts  --      1.0012                 1.5312                 1.3173
 IR Inten    --     12.8899                12.9728                 5.6033

                     49                     50                     51
                      A                      A                      A
 Frequencies --   1057.4398              1067.2242              1074.4452
 Red. masses --      3.4497                 3.6419                 1.5163
 Frc consts  --      2.2727                 2.4439                 1.0313
 IR Inten    --     32.7671                40.8317                14.6724

                     52                     53                     54
                      A                      A                      A
 Frequencies --   1074.6978              1080.8246              1147.6888
 Red. masses --      1.4638                 1.4927                 2.2600
 Frc consts  --      0.9961                 1.0274                 1.7539
 IR Inten    --      2.3093                 3.3797                45.6492

                     55                     56                     57
                      A                      A                      A
 Frequencies --   1175.4566              1183.0136              1189.1165
 Red. masses --      2.3181                 1.7250                 1.2567
 Frc consts  --      1.8871                 1.4224                 1.0470
 IR Inten    --      6.6100                17.2793                 1.6943

                     58                     59                     60
                      A                      A                      A
 Frequencies --   1200.0263              1224.5711              1229.7157
 Red. masses --      1.5253                 1.4667                 1.9486
 Frc consts  --      1.2942                 1.2958                 1.7361
 IR Inten    --     16.8360                 8.4964                11.7289

                     61                     62                     63
                      A                      A                      A
 Frequencies --   1264.9829              1284.4381              1307.2031
 Red. masses --      1.7851                 2.3116                 2.1766
 Frc consts  --      1.6830                 2.2470                 2.1914
 IR Inten    --     10.5845                44.0877                27.7002

                     64                     65                     66
                      A                      A                      A
 Frequencies --   1335.8630              1336.3463              1360.4762
 Red. masses --      6.6073                 6.1899                 1.3659
 Frc consts  --      6.9470                 6.5128                 1.4896
 IR Inten    --     12.0145                34.1441                13.6641

                     67                     68                     69
                      A                      A                      A
 Frequencies --   1404.4110              1430.2768              1434.2696
 Red. masses --      3.0840                 1.3494                 1.2502
 Frc consts  --      3.5838                 1.6264                 1.5153
 IR Inten    --      7.5987                12.7954                 1.7235

                     70                     71                     72
                      A                      A                      A
 Frequencies --   1443.1574              1445.0705              1453.7817
 Red. masses --      1.2460                 1.3561                 2.5608
 Frc consts  --      1.5290                 1.6684                 3.1888
 IR Inten    --      1.2208                 4.8428                18.2927

                     73                     74                     75
                      A                      A                      A
 Frequencies --   1468.1165              1491.1288              1502.1010
 Red. masses --      2.8055                 1.0986                 1.2456
 Frc consts  --      3.5627                 1.4392                 1.6558
 IR Inten    --    149.2365                12.3579                 4.4247

                     76                     77                     78
                      A                      A                      A
 Frequencies --   1506.7343              1514.4504              1517.2158
 Red. masses --      1.0442                 1.0462                 1.0538
 Frc consts  --      1.3967                 1.4138                 1.4293
 IR Inten    --      4.3737                 9.6292                 4.2699

                     79                     80                     81
                      A                      A                      A
 Frequencies --   1517.8972              1520.7445              1524.8926
 Red. masses --      1.0496                 1.1762                 1.1667
 Frc consts  --      1.4249                 1.6027                 1.5983
 IR Inten    --      5.1814                 1.9129                12.4026

                     82                     83                     84
                      A                      A                      A
 Frequencies --   1527.0507              1536.8144              1540.5638
 Red. masses --      1.3424                 1.1492                 2.3394
 Frc consts  --      1.8444                 1.5992                 3.2713
 IR Inten    --      1.8813                 1.9752                66.4834

                     85                     86                     87
                      A                      A                      A
 Frequencies --   1575.0946              1618.9647              1624.8278
 Red. masses --      4.5539                 5.8404                 5.2006
 Frc consts  --      6.6565                 9.0191                 8.0894
 IR Inten    --     30.4761                 3.0455                16.4967

                     88                     89                     90
                      A                      A                      A
 Frequencies --   1669.2296              1742.1240              3037.9242
 Red. masses --      6.2286                10.0943                 1.0324
 Frc consts  --     10.2252                18.0503                 5.6140
 IR Inten    --      6.7162               105.9321                55.6125

                     91                     92                     93
                      A                      A                      A
 Frequencies --   3041.0836              3042.2256              3046.8408
 Red. masses --      1.0407                 1.0408                 1.0362
 Frc consts  --      5.6708                 5.6755                 5.6677
 IR Inten    --     33.0620                39.8305                39.4829

                     94                     95                     96
                      A                      A                      A
 Frequencies --   3077.6518              3087.8115              3099.8028
 Red. masses --      1.0634                 1.1010                 1.0953
 Frc consts  --      5.9347                 6.1853                 6.2008
 IR Inten    --      7.4683                16.6395                19.2799

                     97                     98                     99
                      A                      A                      A
 Frequencies --   3100.2114              3105.5259              3116.7242
 Red. masses --      1.1012                 1.1057                 1.0885
 Frc consts  --      6.2361                 6.2830                 6.2299
 IR Inten    --     21.7708                25.3512                27.7151

                    100                    101                    102
                      A                      A                      A
 Frequencies --   3125.3235              3127.3055              3128.9942
 Red. masses --      1.1018                 1.1028                 1.0996
 Frc consts  --      6.3407                 6.3547                 6.3432
 IR Inten    --     20.6609                15.9026                 4.4352

                    103                    104                    105
                      A                      A                      A
 Frequencies --   3153.0470              3162.8454              3185.6912
 Red. masses --      1.1037                 1.0968                 1.0883
 Frc consts  --      6.4646                 6.4648                 6.5072
 IR Inten    --     26.1509                 6.8833                14.1804

                    106                    107                    108
                      A                      A                      A
 Frequencies --   3196.5374              3210.1171              3275.3473
 Red. masses --      1.0906                 1.0936                 1.0978
 Frc consts  --      6.5657                 6.6398                 6.9387
 IR Inten    --      9.0486                 9.8038                 1.3874

 - Thermochemistry -
 -------------------
 Temperature   298.150 Kelvin.  Pressure   1.00000 Atm.
 Atom     1 has atomic number  6 and mass  12.00000

 Molecular mass:   257.15281 amu.
 Principal axes and moments of inertia in atomic units:
                           1         2         3
     Eigenvalues --  2457.46004********************
           X            0.99998  -0.00121   0.00640
           Y            0.00117   0.99998   0.00662
           Z           -0.00641  -0.00661   0.99996
 This molecule is an asymmetric top.
 Rotational symmetry number  1.
 Warning -- assumption of classical behavior for rotation
           may cause significant error
 Rotational temperatures (Kelvin)      0.03525     0.00859     0.00770
 Rotational constants (GHZ):           0.73439     0.17889     0.16050
 Zero-point vibrational energy     835943.4 (Joules/Mol)
                                  199.79526 (Kcal/Mol)
 Warning -- explicit consideration of  28 degrees of freedom as
           vibrations may cause significant error
 Vibrational temperatures:     20.09    26.78    33.85    58.69    81.84
          (Kelvin)            112.43   148.89   160.74   180.32   200.63
                              229.75   254.48   287.59   315.28   361.58
                              388.09   397.93   429.53   439.91   504.44
                              534.54   598.64   649.23   670.86   691.03
                              761.31   827.54   876.64   896.99   909.06
                              930.69   987.82  1024.93  1036.25  1057.08
                             1077.35  1115.93  1179.52  1208.96  1237.06
                             1293.99  1356.58  1375.64  1434.72  1462.44
                             1480.60  1489.19  1496.39  1521.42  1535.50
                             1545.89  1546.25  1555.07  1651.27  1691.22
                             1702.09  1710.87  1726.57  1761.88  1769.29
                             1820.03  1848.02  1880.77  1922.01  1922.70
                             1957.42  2020.63  2057.85  2063.59  2076.38
                             2079.13  2091.67  2112.29  2145.40  2161.19
                             2167.85  2178.96  2182.94  2183.92  2188.01
                             2193.98  2197.09  2211.13  2216.53  2266.21
                             2329.33  2337.76  2401.65  2506.53  4370.90
                             4375.44  4377.08  4383.72  4428.05  4442.67
                             4459.92  4460.51  4468.16  4484.27  4496.64
                             4499.50  4501.92  4536.53  4550.63  4583.50
                             4599.10  4618.64  4712.49

 Zero-point correction=                           0.318394 (Hartree/Particle)
 Thermal correction to Energy=                    0.337984
 Thermal correction to Enthalpy=                  0.338928
 Thermal correction to Gibbs Free Energy=         0.266725
 Sum of electronic and zero-point Energies=           -822.249742
 Sum of electronic and thermal Energies=              -822.230152
 Sum of electronic and thermal Enthalpies=            -822.229208
 Sum of electronic and thermal Free Energies=         -822.301411

                     E (Thermal)             CV                S
                      KCal/Mol        Cal/Mol-Kelvin    Cal/Mol-Kelvin
 Total                  212.088             71.254            151.965
 Electronic               0.000              0.000              0.000
 Translational            0.889              2.981             42.533
 Rotational               0.889              2.981             33.988
 Vibrational            210.311             65.292             75.444
 Vibration     1          0.593              1.986              7.347
 Vibration     2          0.593              1.986              6.777
 Vibration     3          0.593              1.985              6.312
 Vibration     4          0.594              1.981              5.220
 Vibration     5          0.596              1.975              4.563
 Vibration     6          0.599              1.964              3.937
 Vibration     7          0.605              1.946              3.388
 Vibration     8          0.607              1.940              3.239
 Vibration     9          0.610              1.928              3.017
 Vibration    10          0.615              1.914              2.811
 Vibration    11          0.622              1.892              2.554
 Vibration    12          0.628              1.871              2.361
 Vibration    13          0.638              1.840              2.134
 Vibration    14          0.647              1.812              1.966
 Vibration    15          0.663              1.761              1.721
 Vibration    16          0.674              1.729              1.598
 Vibration    17          0.678              1.717              1.555
 Vibration    18          0.692              1.676              1.425
 Vibration    19          0.696              1.663              1.385
 Vibration    20          0.728              1.574              1.163
 Vibration    21          0.743              1.531              1.074
 Vibration    22          0.779              1.435              0.905
 Vibration    23          0.810              1.358              0.792
 Vibration    24          0.824              1.325              0.748
 Vibration    25          0.837              1.294              0.709
 Vibration    26          0.884              1.186              0.589
 Vibration    27          0.932              1.085              0.494
 Vibration    28          0.968              1.012              0.434

 Optimization completed.
    -- Stationary point found.
 Normal termination of Gaussian 16 at Sat Dec 12 10:59:04 2020.

 ----------------------------------------------------------------------
 # B3LYP/6-311++G(d,p) empiricaldispersion=gd3bj scf=xqc pop=npa geom=c
 heck
 ----------------------------------------------------------------------

 ---------------------------------------
 CID_141513521_JID_9474_Energie_neutraal
 ---------------------------------------
 Structure from the checkpoint file:  "JID_9474.chk"
 Charge =  0 Multiplicity = 1

 SCF Done:  E(RB3LYP) =  -822.785693472     A.U. after   15 cycles
 Normal termination of Gaussian 16 at Sat Dec 12 11:07:55 2020.

 ----------------------------------------------------------------------
 # B3LYP/6-311++G(d,p) empiricaldispersion=gd3bj scf=xqc pop=npa geom=c
 heck
 ----------------------------------------------------------------------

 -------------------------------------
 CID_141513521_JID_9474_Energie_kation
 -------------------------------------
 Structure from the checkpoint file:  "JID_9474.chk"
 Charge =  1 Multiplicity = 2

 SCF Done:  E(UB3LYP) =  -822.511301606     A.U. after   22 cycles
 Normal termination of Gaussian 16 at Sat Dec 12 11:26:37 2020.
 Gaussian 16:  ES64L-G16RevA.03 25-Dec-2016

 ----------------------------------------------------------------------
 # B3LYP/6-311++G(d,p) empiricaldispersion=gd3bj scf=xqc pop=npa geom=c
 heck
 ----------------------------------------------------------------------

 ------------------------------------
 CID_141513521_JID_9474_Energie_anion
 ------------------------------------
 Structure from the checkpoint file:  "JID_9474.chk"
 Charge = -1 Multiplicity = 2

                         Standard orientation:
 ---------------------------------------------------------------------
 Center     Atomic      Atomic             Coordinates (Angstroms)
 Number     Number       Type             X           Y           Z
 ---------------------------------------------------------------------
      1          6           0        5.271459    1.250857    1.478815
      2          6           0        4.056820    0.915337    0.648604
      3          6           0        3.384031   -0.298322    0.818920
      4          6           0        2.270145   -0.622985    0.047981
      5          6           0        1.796326    0.265913   -0.936420
      6          6           0        2.494397    1.464883   -1.131774
      7          6           0        3.590436    1.791928   -0.339891
      8          7           0        0.708677   -0.038590   -1.782267
      9          6           0       -0.448556   -0.269228   -1.303700
     10          6           0       -0.880284   -0.212065    0.148034
     11          7           0       -2.294276    0.074306    0.271854
     12          6           0       -2.889675    1.311801    0.071591
     13          6           0       -4.240761    1.106141    0.194047
     14          7           0       -4.488552   -0.229970    0.454162
     15          6           0       -3.311073   -0.824835    0.488828
     16          6           0       -3.085234   -2.280676    0.736026
     17          6           0       -5.352211    2.100260    0.087370
     18          8           0        1.623534   -1.822124    0.282009
     19          6           0        1.914210   -2.830441   -0.690519
     20          1           0        5.234142    0.762248    2.457836
     21          1           0        6.194934    0.921478    0.984437
     22          1           0        5.357751    2.330329    1.641048
     23          1           0        3.707196   -1.013082    1.570694
     24          1           0        2.144399    2.142206   -1.904681
     25          1           0        4.096870    2.740919   -0.496085
     26          1           0       -1.243281   -0.519998   -2.012707
     27          1           0       -0.659802   -1.170826    0.625506
     28          1           0       -0.295121    0.542931    0.684087
     29          1           0       -2.299968    2.195579   -0.123332
     30          1           0       -4.057546   -2.751261    0.892122
     31          1           0       -2.594484   -2.776571   -0.111051
     32          1           0       -2.468474   -2.459769    1.625831
     33          1           0       -6.054374    1.821145   -0.707087
     34          1           0       -5.925976    2.152004    1.020311
     35          1           0       -4.966148    3.100722   -0.132653
     36          1           0        1.627259   -2.503882   -1.696595
     37          1           0        2.982673   -3.079607   -0.679864
     38          1           0        1.330552   -3.709206   -0.407605
 ---------------------------------------------------------------------

 SCF Done:  E(UB3LYP) =  -822.782459339     A.U. after   33 cycles
 SCF Done:  E(UB3LYP) =  -822.782459339     a.u. after    1 cycles

 The electronic state is 2-A.
 Alpha  occ. eigenvalues --  -19.02418 -14.26054 -14.18640 -14.16676 -10.12662
 Alpha  occ. eigenvalues --  -10.10227 -10.10185 -10.09921 -10.09063 -10.08925
 Alpha  occ. eigenvalues --  -10.07934 -10.07861 -10.07235 -10.06890 -10.06552
 Alpha  occ. eigenvalues --  -10.05568 -10.05312 -10.05070 -10.04705  -0.93865
 Alpha  occ. eigenvalues --   -0.91307  -0.80189  -0.77990  -0.73087  -0.68669
 Alpha  occ. eigenvalues --   -0.65582  -0.63760  -0.63246  -0.62186  -0.57990
 Alpha  occ. eigenvalues --   -0.57380  -0.56232  -0.49330  -0.48552  -0.47865
 Alpha  occ. eigenvalues --   -0.45828  -0.44337  -0.41044  -0.39660  -0.38020
 Alpha  occ. eigenvalues --   -0.37182  -0.35473  -0.34945  -0.34503  -0.34324
 Alpha  occ. eigenvalues --   -0.32907  -0.32504  -0.32297  -0.31662  -0.31342
 Alpha  occ. eigenvalues --   -0.31024  -0.30156  -0.29244  -0.29164  -0.28262
 Alpha  occ. eigenvalues --   -0.28051  -0.27248  -0.26551  -0.24446  -0.23755
 Alpha  occ. eigenvalues --   -0.22749  -0.18976  -0.17790  -0.17124  -0.16460
 Alpha  occ. eigenvalues --   -0.14929  -0.13095  -0.12144  -0.09416   0.04720
 Alpha virt. eigenvalues --    0.06872   0.07062   0.07349   0.08599   0.08925
 Alpha virt. eigenvalues --    0.09475   0.09821   0.10119   0.10193   0.10492
 Alpha virt. eigenvalues --    0.10700   0.11293   0.11411   0.11555   0.12290

  Beta  occ. eigenvalues --  -19.02421 -14.26036 -14.18638 -14.16436 -10.12662
  Beta  occ. eigenvalues --  -10.10197 -10.10145 -10.09949 -10.09065 -10.08918
  Beta  occ. eigenvalues --  -10.07935 -10.07846 -10.07128 -10.06560 -10.06528
  Beta  occ. eigenvalues --  -10.05397 -10.05338 -10.05067 -10.04611  -0.93844
  Beta  occ. eigenvalues --   -0.91290  -0.79726  -0.77861  -0.72876  -0.68656
  Beta  occ. eigenvalues --   -0.65326  -0.63715  -0.63133  -0.62071  -0.57877
  Beta  occ. eigenvalues --   -0.57280  -0.56174  -0.48964  -0.48337  -0.47839
  Beta  occ. eigenvalues --   -0.45746  -0.44094  -0.40986  -0.39502  -0.37905
  Beta  occ. eigenvalues --   -0.37040  -0.35433  -0.34856  -0.34395  -0.34235
  Beta  occ. eigenvalues --   -0.32828  -0.32466  -0.32201  -0.31481  -0.31208
  Beta  occ. eigenvalues --   -0.30911  -0.30116  -0.29141  -0.28997  -0.28191
  Beta  occ. eigenvalues --   -0.28030  -0.27136  -0.26397  -0.24358  -0.23582
  Beta  occ. eigenvalues --   -0.22474  -0.17800  -0.17665  -0.17077  -0.16327
  Beta  occ. eigenvalues --   -0.14245  -0.12811  -0.12090  -0.08782
  Beta virt. eigenvalues --    0.06833   0.07059   0.07580   0.08617   0.08859
  Beta virt. eigenvalues --    0.09240   0.09746   0.10125   0.10257   0.10332
  Beta virt. eigenvalues --    0.10642   0.10895   0.11258   0.11374   0.11833

 Mulliken charges and spin densities:
               1          2
     1  C   -0.177689  -0.433580
     2  C    0.641695   0.062031
     3  C   -0.347220   0.204047
     4  C   -1.268997   0.319614
     5  C    0.528811  -0.042987
     6  C   -0.225712   0.141561
     7  C   -0.413577  -0.187246
     8  N    0.030917   0.085898
     9  C   -0.038546   0.270962
    10  C   -0.978603   0.103294
    11  N    0.293812  -0.023082
    12  C   -0.057136  -0.007140
    13  C    0.139168   0.016418
    14  N   -0.098118   0.010392
    15  C   -0.304911   0.177554
    16  C   -0.252461  -0.433493
    17  C   -0.317875  -0.004848
    18  O   -0.066210   0.009370
    19  C    0.580134  -0.821532
    20  H    0.126118   0.006651
    21  H   -0.058348   0.220498
    22  H    0.113766   0.007295
    23  H    0.002623   0.143471
    24  H    0.103799   0.039643
    25  H    0.120772   0.000172
    26  H    0.069737   0.112869
    27  H    0.320639  -0.157983
    28  H    0.156341   0.054927
    29  H    0.134256   0.003499
    30  H    0.156817   0.020975
    31  H   -0.029363   0.207123
    32  H    0.083344   0.074657
    33  H    0.147323  -0.000502
    34  H    0.140205   0.002704
    35  H    0.121454   0.000717
    36  H   -0.004126   0.182687
    37  H   -0.158364   0.279716
    38  H   -0.214475   0.353648
 Sum of Mulliken charges =  -1.00000   1.00000

 Dipole moment (field-independent basis, Debye):
    X=             -2.1983    Y=              3.7468    Z=              2.8573  Tot=              5.1996
 Quadrupole moment (field-independent basis, Debye-Ang):
   XX=           -193.3926   YY=           -140.1178   ZZ=           -137.3171
   XY=             -1.0626   XZ=              4.1914   YZ=             -4.0563

 Summary of Natural Population Analysis:

                                       Natural Population
                Natural  -----------------------------------------------
    Atom  No    Charge         Core      Valence    Rydberg      Total
 -----------------------------------------------------------------------
      C    1   -0.29204      0.99964     2.28710    0.00530     3.29204
      C    2   -0.00016      0.99953     1.99236    0.00828     3.00016
      C    3   -0.12132      0.99947     2.11244    0.00941     3.12132
      C    4    0.14542      0.99931     1.84127    0.01400     2.85458
      C    5    0.05751      0.99939     1.92946    0.01364     2.94249
      C    6   -0.08471      0.99953     2.07605    0.00913     3.08471
      C    7   -0.11819      0.99952     2.10939    0.00928     3.11819
      N    8   -0.20795      0.99965     2.69597    0.01233     3.70795
      C    9    0.13318      0.99961     1.85124    0.01597     2.86682
      C   10   -0.13066      0.99959     2.12018    0.01088     3.13066
      N   11   -0.19879      0.99962     2.69088    0.00829     3.69879
      C   12   -0.03748      0.99949     2.02864    0.00935     3.03748
      C   13    0.04766      0.99956     1.94094    0.01183     2.95234
      N   14   -0.27284      0.99968     2.76361    0.00955     3.77284
      C   15    0.19761      0.99962     1.78514    0.01763     2.80239
      C   16   -0.31023      0.99963     2.30526    0.00535     3.31023
      C   17   -0.29377      0.99964     2.28969    0.00445     3.29377
      O   18   -0.30018      0.99987     3.28917    0.01114     4.30018
      C   19   -0.09637      0.99959     2.08771    0.00907     3.09637
      H   20    0.09831      0.00000     0.40097    0.00071     0.40169
      H   21    0.10278      0.00000     0.39596    0.00126     0.39722
      H   22    0.09685      0.00000     0.40244    0.00071     0.40315
      H   23    0.09924      0.00000     0.39961    0.00115     0.40076
      H   24    0.09931      0.00000     0.39966    0.00104     0.40069
      H   25    0.09254      0.00000     0.40660    0.00085     0.40746
      H   26    0.07609      0.00000     0.42245    0.00147     0.42391
      H   27    0.12121      0.00000     0.37722    0.00157     0.37879
      H   28    0.10884      0.00000     0.39014    0.00101     0.39116
      H   29    0.10302      0.00000     0.39615    0.00082     0.39698
      H   30    0.11116      0.00000     0.38771    0.00113     0.38884
      H   31    0.11123      0.00000     0.38740    0.00136     0.38877
      H   32    0.10448      0.00000     0.39455    0.00097     0.39552
      H   33    0.10131      0.00000     0.39762    0.00107     0.39869
      H   34    0.10027      0.00000     0.39860    0.00112     0.39973
      H   35    0.09806      0.00000     0.40117    0.00077     0.40194
      H   36    0.09158      0.00000     0.40707    0.00135     0.40842
      H   37    0.08000      0.00000     0.41859    0.00141     0.42000
      H   38    0.08704      0.00000     0.41168    0.00128     0.41296
 =======================================================================
   * Total *   -0.00000     18.99194    49.79211    0.21595    69.00000

 Normal termination of Gaussian 16 at Sat Dec 12 11:53:23 2020.
