 Gaussian 16, Revision A.03,

 -----------------------------------------------------------
 # opt freq B3LYP/6-31G(d) empiricaldispersion=gd3bj scf=xqc
 -----------------------------------------------------------

 -------------------------------
 CID_119086846_JID_5255_neutraal
 -------------------------------
 Symbolic Z-matrix:
 Charge =  0 Multiplicity = 1

 SCF Done:  E(RB3LYP) =  -650.488167085     A.U. after   14 cycles
 SCF Done:  E(RB3LYP) =  -650.495029852     A.U. after   12 cycles
 SCF Done:  E(RB3LYP) =  -650.495736221     A.U. after   12 cycles
 SCF Done:  E(RB3LYP) =  -650.495856188     A.U. after   11 cycles
 SCF Done:  E(RB3LYP) =  -650.495898072     A.U. after   11 cycles
 SCF Done:  E(RB3LYP) =  -650.495922136     A.U. after   11 cycles
 SCF Done:  E(RB3LYP) =  -650.495948318     A.U. after   11 cycles
 SCF Done:  E(RB3LYP) =  -650.495959448     A.U. after   10 cycles
 SCF Done:  E(RB3LYP) =  -650.495966728     A.U. after   10 cycles
 SCF Done:  E(RB3LYP) =  -650.495969418     A.U. after   10 cycles
 SCF Done:  E(RB3LYP) =  -650.495969578     A.U. after    7 cycles
 SCF Done:  E(RB3LYP) =  -650.495969638     A.U. after    7 cycles
 SCF Done:  E(RB3LYP) =  -650.495969667     A.U. after    7 cycles
 Optimization completed.
    -- Stationary point found.
 Normal termination of Gaussian 16 at Thu Dec 10 14:59:21 2020.

 --------------------------------------------------------------------
 #N Geom=AllCheck Guess=TCheck SCRF=Check GenChk RB3LYP/6-31G(d) Freq
 --------------------------------------------------------------------

 Structure from the checkpoint file:  "JID_5255.chk"
 -------------------------------
 CID_119086846_JID_5255_neutraal
 -------------------------------
 Charge =  0 Multiplicity = 1

 SCF Done:  E(RB3LYP) =  -650.495969667     A.U. after    1 cycles

  Exact polarizability: 228.464  -7.248 134.680  12.709   2.744  78.004
 Approx polarizability: 327.992 -16.119 246.962  29.488   6.178 114.750

                      1                      2                      3
                      A                      A                      A
 Frequencies --     20.4049                44.7655                70.3829
 Red. masses --      3.4005                 3.9235                 3.2188
 Frc consts  --      0.0008                 0.0046                 0.0094
 IR Inten    --      0.2192                 0.8184                 1.3632

                      4                      5                      6
                      A                      A                      A
 Frequencies --     98.7373               145.4394               175.2411
 Red. masses --      2.2780                 2.7431                 4.8549
 Frc consts  --      0.0131                 0.0342                 0.0878
 IR Inten    --      0.8083                 1.6592                 0.0459

                      7                      8                      9
                      A                      A                      A
 Frequencies --    191.5096               219.8206               252.3121
 Red. masses --      2.8614                 2.1072                 1.5193
 Frc consts  --      0.0618                 0.0600                 0.0570
 IR Inten    --      1.8269                 3.0582                 0.2804

                     10                     11                     12
                      A                      A                      A
 Frequencies --    269.4991               311.4270               359.2237
 Red. masses --      1.4514                 2.9154                 3.8048
 Frc consts  --      0.0621                 0.1666                 0.2893
 IR Inten    --      2.4653                 1.0766                 0.0393

                     13                     14                     15
                      A                      A                      A
 Frequencies --    364.0606               423.7623               450.2255
 Red. masses --      2.7338                 4.0626                 3.8040
 Frc consts  --      0.2135                 0.4298                 0.4543
 IR Inten    --      0.1788                 0.0295                 3.3594

                     16                     17                     18
                      A                      A                      A
 Frequencies --    454.4960               481.9782               527.8983
 Red. masses --      3.5825                 3.1080                 5.2693
 Frc consts  --      0.4360                 0.4254                 0.8652
 IR Inten    --      1.6474                 1.2302                 4.4928

                     19                     20                     21
                      A                      A                      A
 Frequencies --    558.5758               594.1489               622.8279
 Red. masses --      5.2865                 3.3901                 3.8247
 Frc consts  --      0.9718                 0.7051                 0.8742
 IR Inten    --      7.8640                 6.4996                 5.1605

                     22                     23                     24
                      A                      A                      A
 Frequencies --    696.5561               720.8678               775.8005
 Red. masses --      5.7378                 3.4650                 2.6380
 Frc consts  --      1.6403                 1.0609                 0.9355
 IR Inten    --      7.6889                 1.7703                 0.2477

                     25                     26                     27
                      A                      A                      A
 Frequencies --    792.2583               817.2372               846.2504
 Red. masses --      2.4978                 2.6205                 1.9299
 Frc consts  --      0.9237                 1.0312                 0.8143
 IR Inten    --      3.1928                 2.3814                17.3343

                     28                     29                     30
                      A                      A                      A
 Frequencies --    860.0547               874.9566               884.9679
 Red. masses --      2.5539                 1.6508                 2.9548
 Frc consts  --      1.1130                 0.7446                 1.3634
 IR Inten    --     33.5737                 9.0740                 5.5840

                     31                     32                     33
                      A                      A                      A
 Frequencies --    909.1695               947.8432               965.8450
 Red. masses --      1.5370                 3.5920                 1.4063
 Frc consts  --      0.7485                 1.9014                 0.7729
 IR Inten    --      1.7424                 2.2741                 3.6180

                     34                     35                     36
                      A                      A                      A
 Frequencies --    975.7852               976.9262              1060.3576
 Red. masses --      2.3504                 1.7285                 2.0516
 Frc consts  --      1.3185                 0.9719                 1.3591
 IR Inten    --      3.2047                 4.2056                 1.1659

                     37                     38                     39
                      A                      A                      A
 Frequencies --   1080.4173              1098.5403              1125.3505
 Red. masses --      3.5221                 1.8286                 1.6900
 Frc consts  --      2.4224                 1.3002                 1.2610
 IR Inten    --     57.9308                 0.7668                 8.9933

                     40                     41                     42
                      A                      A                      A
 Frequencies --   1170.0300              1184.8271              1203.9635
 Red. masses --      1.4264                 1.2677                 2.0034
 Frc consts  --      1.1505                 1.0485                 1.7110
 IR Inten    --     13.3448                 0.7280                49.2071

                     43                     44                     45
                      A                      A                      A
 Frequencies --   1212.0275              1242.6795              1268.7324
 Red. masses --      1.6554                 1.5784                 2.0279
 Frc consts  --      1.4328                 1.4361                 1.9232
 IR Inten    --     15.5040                77.1923                 8.9606

                     46                     47                     48
                      A                      A                      A
 Frequencies --   1294.2648              1303.9435              1313.5806
 Red. masses --      2.2789                 1.2974                 2.0766
 Frc consts  --      2.2492                 1.2997                 2.1112
 IR Inten    --    150.7220                29.3652                82.1118

                     49                     50                     51
                      A                      A                      A
 Frequencies --   1344.6929              1377.5320              1386.0176
 Red. masses --      2.8041                 1.8826                 1.3981
 Frc consts  --      2.9874                 2.1048                 1.5825
 IR Inten    --     62.0287                71.0797                10.2549

                     52                     53                     54
                      A                      A                      A
 Frequencies --   1405.1020              1418.2197              1443.4031
 Red. masses --      2.4223                 2.8775                 3.3071
 Frc consts  --      2.8177                 3.4100                 4.0595
 IR Inten    --     36.1850                 4.4737                 4.4824

                     55                     56                     57
                      A                      A                      A
 Frequencies --   1446.4254              1492.0897              1504.3041
 Red. masses --      1.3682                 2.5823                 1.2265
 Frc consts  --      1.6865                 3.3872                 1.6353
 IR Inten    --      5.8538                 8.0930                14.6667

                     58                     59                     60
                      A                      A                      A
 Frequencies --   1508.1351              1519.1956              1523.7910
 Red. masses --      1.3538                 1.1015                 1.0477
 Frc consts  --      1.8142                 1.4978                 1.4333
 IR Inten    --     13.3258                 4.0078                 5.8532

                     61                     62                     63
                      A                      A                      A
 Frequencies --   1530.5656              1534.1960              1534.7838
 Red. masses --      1.0451                 1.0797                 1.0775
 Frc consts  --      1.4425                 1.4973                 1.4954
 IR Inten    --      3.0372                 5.3938                71.9064

                     64                     65                     66
                      A                      A                      A
 Frequencies --   1554.4591              1606.5701              1637.5845
 Red. masses --      3.0551                 7.2791                 6.9433
 Frc consts  --      4.3494                11.0695                10.9704
 IR Inten    --     79.8774                70.3121               184.4896

                     67                     68                     69
                      A                      A                      A
 Frequencies --   1687.0596              3028.6656              3044.2690
 Red. masses --      6.3790                 1.0349                 1.0611
 Frc consts  --     10.6970                 5.5929                 5.7937
 IR Inten    --     39.6956                66.5927                36.4571

                     70                     71                     72
                      A                      A                      A
 Frequencies --   3048.8395              3066.6918              3081.5192
 Red. masses --      1.0357                 1.0629                 1.0993
 Frc consts  --      5.6720                 5.8895                 6.1501
 IR Inten    --     24.8144                17.1211                22.2837

                     73                     74                     75
                      A                      A                      A
 Frequencies --   3089.2096              3113.6592              3118.8414
 Red. masses --      1.1070                 1.1033                 1.1027
 Frc consts  --      6.2242                 6.3020                 6.3197
 IR Inten    --     41.5491                23.8825                40.0577

                     76                     77                     78
                      A                      A                      A
 Frequencies --   3122.4042              3144.9645              3162.8689
 Red. masses --      1.1034                 1.0906                 1.0997
 Frc consts  --      6.3382                 6.3553                 6.4817
 IR Inten    --     59.4632                26.6439                26.3374

                     79                     80                     81
                      A                      A                      A
 Frequencies --   3206.2886              3215.2675              3232.8869
 Red. masses --      1.0908                 1.0883                 1.0935
 Frc consts  --      6.6069                 6.6287                 6.7334
 IR Inten    --      7.7191                 2.1094                10.9677

 - Thermochemistry -
 -------------------
 Temperature   298.150 Kelvin.  Pressure   1.00000 Atm.
 Atom     1 has atomic number  6 and mass  12.00000

 Molecular mass:   202.11061 amu.
 Principal axes and moments of inertia in atomic units:
                           1         2         3
     Eigenvalues --  1008.888256424.375556854.54130
           X            0.99998  -0.00303  -0.00602
           Y            0.00307   0.99998   0.00617
           Z            0.00600  -0.00619   0.99996
 This molecule is an asymmetric top.
 Rotational symmetry number  1.
 Warning -- assumption of classical behavior for rotation
           may cause significant error
 Rotational temperatures (Kelvin)      0.08585     0.01348     0.01264
 Rotational constants (GHZ):           1.78884     0.28092     0.26329
 Zero-point vibrational energy     636236.7 (Joules/Mol)
                                  152.06422 (Kcal/Mol)
 Warning -- explicit consideration of  20 degrees of freedom as
           vibrations may cause significant error
 Vibrational temperatures:     29.36    64.41   101.27   142.06   209.25
          (Kelvin)            252.13   275.54   316.27   363.02   387.75
                              448.07   516.84   523.80   609.70   647.77
                              653.92   693.46   759.53   803.67   854.85
                              896.11  1002.19  1037.17  1116.20  1139.88
                             1175.82  1217.57  1237.43  1258.87  1273.27
                             1308.09  1363.73  1389.64  1403.94  1405.58
                             1525.62  1554.48  1580.55  1619.13  1683.41
                             1704.70  1732.23  1743.84  1787.94  1825.42
                             1862.16  1876.08  1889.95  1934.71  1981.96
                             1994.17  2021.63  2040.50  2076.74  2081.08
                             2146.78  2164.36  2169.87  2185.78  2192.40
                             2202.14  2207.37  2208.21  2236.52  2311.50
                             2356.12  2427.30  4357.57  4380.02  4386.60
                             4412.29  4433.62  4444.68  4479.86  4487.32
                             4492.44  4524.90  4550.66  4613.13  4626.05
                             4651.40

 Zero-point correction=                           0.242330 (Hartree/Particle)
 Thermal correction to Energy=                    0.255844
 Thermal correction to Enthalpy=                  0.256788
 Thermal correction to Gibbs Free Energy=         0.200811
 Sum of electronic and zero-point Energies=           -650.253640
 Sum of electronic and thermal Energies=              -650.240126
 Sum of electronic and thermal Enthalpies=            -650.239182
 Sum of electronic and thermal Free Energies=         -650.295158

                     E (Thermal)             CV                S
                      KCal/Mol        Cal/Mol-Kelvin    Cal/Mol-Kelvin
 Total                  160.545             51.504            117.813
 Electronic               0.000              0.000              0.000
 Translational            0.889              2.981             41.815
 Rotational               0.889              2.981             32.163
 Vibrational            158.767             45.543             43.834
 Vibration     1          0.593              1.986              6.594
 Vibration     2          0.595              1.979              5.036
 Vibration     3          0.598              1.968              4.143
 Vibration     4          0.604              1.950              3.479
 Vibration     5          0.617              1.908              2.731
 Vibration     6          0.627              1.873              2.379
 Vibration     7          0.634              1.852              2.213
 Vibration     8          0.647              1.811              1.961
 Vibration     9          0.664              1.759              1.714
 Vibration    10          0.674              1.729              1.599
 Vibration    11          0.700              1.652              1.355
 Vibration    12          0.734              1.556              1.125
 Vibration    13          0.738              1.546              1.105
 Vibration    14          0.786              1.419              0.879
 Vibration    15          0.809              1.360              0.795
 Vibration    16          0.813              1.351              0.782
 Vibration    17          0.838              1.290              0.705
 Vibration    18          0.883              1.188              0.592
 Vibration    19          0.914              1.121              0.527
 Vibration    20          0.952              1.044              0.460

                           ! Non-Optimized Parameters !
 Normal termination of Gaussian 16 at Thu Dec 10 15:07:03 2020.

 ----------------------------------------------------------------------
 # B3LYP/6-311++G(d,p) empiricaldispersion=gd3bj scf=xqc pop=npa geom=c
 heck
 ----------------------------------------------------------------------

 ---------------------------------------
 CID_119086846_JID_5255_Energie_neutraal
 ---------------------------------------
 Structure from the checkpoint file:  "JID_5255.chk"
 Charge =  0 Multiplicity = 1

 SCF Done:  E(RB3LYP) =  -650.665124823     A.U. after   14 cycles
 Normal termination of Gaussian 16 at Thu Dec 10 15:10:00 2020.

 ----------------------------------------------------------------------
 # B3LYP/6-311++G(d,p) empiricaldispersion=gd3bj scf=xqc pop=npa geom=c
 heck
 ----------------------------------------------------------------------

 -------------------------------------
 CID_119086846_JID_5255_Energie_kation
 -------------------------------------
 Structure from the checkpoint file:  "JID_5255.chk"
 Charge =  1 Multiplicity = 2

 SCF Done:  E(UB3LYP) =  -650.372809616     A.U. after   22 cycles
 Normal termination of Gaussian 16 at Thu Dec 10 15:16:23 2020.
 Gaussian 16:  ES64L-G16RevA.03 25-Dec-2016

 ----------------------------------------------------------------------
 # B3LYP/6-311++G(d,p) empiricaldispersion=gd3bj scf=xqc pop=npa geom=c
 heck
 ----------------------------------------------------------------------

 ------------------------------------
 CID_119086846_JID_5255_Energie_anion
 ------------------------------------
 Structure from the checkpoint file:  "JID_5255.chk"
 Charge = -1 Multiplicity = 2

                         Standard orientation:
 ---------------------------------------------------------------------
 Center     Atomic      Atomic             Coordinates (Angstroms)
 Number     Number       Type             X           Y           Z
 ---------------------------------------------------------------------
      1          6           0       -4.202859    0.124255    1.599318
      2          6           0       -4.153763   -0.883492    0.448627
      3          6           0       -3.528138   -0.311580   -0.839562
      4          6           0       -2.085822    0.076090   -0.640824
      5          7           0       -1.822805    1.416691   -0.508513
      6          6           0       -0.572590    1.760247   -0.294482
      7          6           0        0.486788    0.820222   -0.196718
      8          6           0        1.833808    1.164728    0.031667
      9          6           0        2.793365    0.171543    0.112262
     10          6           0        2.417563   -1.191860   -0.036015
     11          6           0        1.103048   -1.538820   -0.260550
     12          6           0        0.100992   -0.543705   -0.346688
     13          7           0       -1.196147   -0.895400   -0.568143
     14          8           0        4.074363    0.580596    0.335360
     15          6           0        5.094855   -0.401127    0.427227
     16          1           0       -3.198140    0.457615    1.881190
     17          1           0       -4.672454   -0.314496    2.486824
     18          1           0       -4.775208    1.016190    1.318574
     19          1           0       -3.576024   -1.766604    0.748079
     20          1           0       -5.168758   -1.231049    0.217180
     21          1           0       -3.581422   -1.069894   -1.628360
     22          1           0       -4.084819    0.571837   -1.167677
     23          1           0       -0.360753    2.825538   -0.189226
     24          1           0        2.130472    2.202984    0.145952
     25          1           0        3.167703   -1.971285    0.026961
     26          1           0        0.806480   -2.576159   -0.375280
     27          1           0        4.917744   -1.091843    1.261766
     28          1           0        5.189539   -0.974580   -0.503956
     29          1           0        6.019919    0.148949    0.606125
 ---------------------------------------------------------------------

 SCF Done:  E(UB3LYP) =  -650.679406243     A.U. after   23 cycles

 The electronic state is 2-A.
 Alpha  occ. eigenvalues --  -19.02964 -14.13423 -14.12988 -10.11967 -10.08713
 Alpha  occ. eigenvalues --  -10.06791 -10.04757 -10.04719 -10.04203 -10.03217
 Alpha  occ. eigenvalues --  -10.02941 -10.02703 -10.02161 -10.01178 -10.00981
 Alpha  occ. eigenvalues --   -0.94523  -0.81115  -0.71892  -0.69822  -0.66540
 Alpha  occ. eigenvalues --   -0.62541  -0.61227  -0.58195  -0.55043  -0.50555
 Alpha  occ. eigenvalues --   -0.48315  -0.45695  -0.44744  -0.40423  -0.38537
 Alpha  occ. eigenvalues --   -0.36370  -0.35899  -0.34089  -0.33052  -0.32118
 Alpha  occ. eigenvalues --   -0.30461  -0.28842  -0.28015  -0.27157  -0.26844
 Alpha  occ. eigenvalues --   -0.26452  -0.24431  -0.24159  -0.23342  -0.21932
 Alpha  occ. eigenvalues --   -0.21387  -0.20880  -0.19652  -0.18020  -0.15669
 Alpha  occ. eigenvalues --   -0.13637  -0.11229  -0.08200  -0.07444   0.04556
 Alpha virt. eigenvalues --    0.07366   0.08391   0.09944   0.10301   0.10877
 Alpha virt. eigenvalues --    0.11203   0.11366   0.12176   0.12751   0.13114
 Alpha virt. eigenvalues --    0.13533   0.13823   0.14173   0.14366   0.15347

  Beta  occ. eigenvalues --  -19.02977 -14.13237 -14.12612 -10.11960 -10.08749
  Beta  occ. eigenvalues --  -10.06762 -10.04777 -10.04710 -10.04200 -10.03224
  Beta  occ. eigenvalues --  -10.02805 -10.02478 -10.01950 -10.00895 -10.00744
  Beta  occ. eigenvalues --   -0.94534  -0.80618  -0.71318  -0.69421  -0.66461
  Beta  occ. eigenvalues --   -0.62429  -0.60762  -0.58044  -0.54826  -0.49880
  Beta  occ. eigenvalues --   -0.48163  -0.45369  -0.44574  -0.40290  -0.38290
  Beta  occ. eigenvalues --   -0.36260  -0.35863  -0.33896  -0.32910  -0.32026
  Beta  occ. eigenvalues --   -0.30266  -0.28707  -0.27859  -0.27023  -0.26418
  Beta  occ. eigenvalues --   -0.25951  -0.24309  -0.23807  -0.23224  -0.21699
  Beta  occ. eigenvalues --   -0.21322  -0.20805  -0.19505  -0.16765  -0.14120
  Beta  occ. eigenvalues --   -0.13250  -0.09875  -0.07884  -0.05937
  Beta virt. eigenvalues --    0.07324   0.08313   0.09914   0.10197   0.10670
  Beta virt. eigenvalues --    0.10853   0.11152   0.11501   0.12141   0.12712
  Beta virt. eigenvalues --    0.13088   0.13689   0.13988   0.14149   0.14724

 Mulliken charges and spin densities:
               1          2
     1  C   -0.622443  -0.007249
     2  C    0.021310  -0.025006
     3  C   -0.194687   0.019047
     4  C   -0.484566  -0.010147
     5  N   -0.008788   0.080028
     6  C   -0.220345   0.327305
     7  C    0.920766  -0.072847
     8  C   -0.773629   0.221877
     9  C   -0.638469  -0.052426
    10  C    0.498082   0.190261
    11  C   -0.446374   0.162196
    12  C   -0.310017   0.001343
    13  N    0.027591   0.180850
    14  O   -0.172935   0.002335
    15  C   -0.294900  -0.011385
    16  H    0.183253   0.004043
    17  H    0.090641   0.008341
    18  H    0.103416   0.002077
    19  H    0.121892  -0.003818
    20  H    0.094233   0.018822
    21  H    0.122377   0.019068
    22  H    0.130655  -0.004142
    23  H    0.111404  -0.028312
    24  H    0.112453  -0.015937
    25  H    0.124578  -0.013230
    26  H    0.117259  -0.013856
    27  H    0.124675   0.009730
    28  H    0.122744   0.011508
    29  H    0.139824  -0.000472
 Sum of Mulliken charges =  -1.00000   1.00000

 Dipole moment (field-independent basis, Debye):
    X=              2.3149    Y=             -1.3228    Z=              1.3070  Tot=              2.9693
 Quadrupole moment (field-independent basis, Debye-Ang):
   XX=           -118.9625   YY=           -105.6614   ZZ=           -100.6134
   XY=             -1.4332   XZ=             -0.4378   YZ=             -0.0432

 Summary of Natural Population Analysis:

                                       Natural Population
                Natural  -----------------------------------------------
    Atom  No    Charge         Core      Valence    Rydberg      Total
 -----------------------------------------------------------------------
      C    1   -0.28739      0.99967     2.28308    0.00464     3.28739
      C    2   -0.18292      0.99965     2.17739    0.00589     3.18292
      C    3   -0.20273      0.99959     2.19441    0.00872     3.20273
      C    4    0.20540      0.99961     1.77580    0.01920     2.79460
      N    5   -0.24631      0.99968     2.73553    0.01110     3.74631
      C    6    0.13690      0.99958     1.84890    0.01461     2.86310
      C    7   -0.07593      0.99948     2.06798    0.00847     3.07593
      C    8   -0.06619      0.99950     2.05772    0.00896     3.06619
      C    9    0.13340      0.99942     1.85382    0.01335     2.86660
      C   10   -0.07714      0.99955     2.07305    0.00454     3.07714
      C   11   -0.06664      0.99958     2.05287    0.01419     3.06664
      C   12    0.07968      0.99948     1.90772    0.01313     2.92032
      N   13   -0.21750      0.99964     2.70374    0.01412     3.71750
      O   14   -0.28302      0.99985     3.27257    0.01059     4.28302
      C   15   -0.09826      0.99961     2.08991    0.00874     3.09826
      H   16    0.10609      0.00000     0.39298    0.00093     0.39391
      H   17    0.08806      0.00000     0.41100    0.00093     0.41194
      H   18    0.09286      0.00000     0.40608    0.00107     0.40714
      H   19    0.09834      0.00000     0.40041    0.00125     0.40166
      H   20    0.08200      0.00000     0.41576    0.00224     0.41800
      H   21    0.09961      0.00000     0.39935    0.00104     0.40039
      H   22    0.09754      0.00000     0.40122    0.00124     0.40246
      H   23    0.06960      0.00000     0.42864    0.00176     0.43040
      H   24    0.09171      0.00000     0.40635    0.00195     0.40829
      H   25    0.08799      0.00000     0.41108    0.00092     0.41201
      H   26    0.09075      0.00000     0.40634    0.00291     0.40925
      H   27    0.07990      0.00000     0.41833    0.00176     0.42010
      H   28    0.07990      0.00000     0.41833    0.00176     0.42010
      H   29    0.08435      0.00000     0.41476    0.00089     0.41565
 =======================================================================
   * Total *    0.00006     14.99390    38.82513    0.18090    53.99994

 Normal termination of Gaussian 16 at Thu Dec 10 15:22:40 2020.
