 Gaussian 16, Revision A.03,

 -----------------------------------------------------------
 # opt freq B3LYP/6-31G(d) empiricaldispersion=gd3bj scf=xqc
 -----------------------------------------------------------

 ------------------------------
 CID_65774467_JID_7611_neutraal
 ------------------------------
 Symbolic Z-matrix:
 Charge =  0 Multiplicity = 1

 SCF Done:  E(RB3LYP) =  -1561.71999930     A.U. after   15 cycles
 SCF Done:  E(RB3LYP) =  -1561.72791734     A.U. after   12 cycles
 SCF Done:  E(RB3LYP) =  -1561.72928452     A.U. after   12 cycles
 SCF Done:  E(RB3LYP) =  -1561.72965314     A.U. after   12 cycles
 SCF Done:  E(RB3LYP) =  -1561.72974563     A.U. after   11 cycles
 SCF Done:  E(RB3LYP) =  -1561.72977060     A.U. after   10 cycles
 SCF Done:  E(RB3LYP) =  -1561.72978046     A.U. after   10 cycles
 SCF Done:  E(RB3LYP) =  -1561.72978185     A.U. after    8 cycles
 SCF Done:  E(RB3LYP) =  -1561.72978237     A.U. after    8 cycles
 SCF Done:  E(RB3LYP) =  -1561.72978255     A.U. after    7 cycles
 Optimization completed.
    -- Stationary point found.
 Normal termination of Gaussian 16 at Fri Dec 11 12:58:14 2020.

 --------------------------------------------------------------------
 #N Geom=AllCheck Guess=TCheck SCRF=Check GenChk RB3LYP/6-31G(d) Freq
 --------------------------------------------------------------------

 Structure from the checkpoint file:  "JID_7611.chk"
 ------------------------------
 CID_65774467_JID_7611_neutraal
 ------------------------------
 Charge =  0 Multiplicity = 1

 SCF Done:  E(RB3LYP) =  -1561.72978255     A.U. after    1 cycles

  Exact polarizability: 188.697  -0.276 133.056  -0.003   3.378 128.745
 Approx polarizability: 223.491   1.301 215.401  -1.096  -0.981 220.041

                      1                      2                      3
                      A                      A                      A
 Frequencies --     25.3285                34.5541                46.6505
 Red. masses --      4.3957                 5.7787                 3.3655
 Frc consts  --      0.0017                 0.0041                 0.0043
 IR Inten    --      0.0718                 0.4527                 0.1963

                      4                      5                      6
                      A                      A                      A
 Frequencies --     65.3714                80.3200               108.0302
 Red. masses --      4.4789                 1.9938                 2.8398
 Frc consts  --      0.0113                 0.0076                 0.0195
 IR Inten    --      2.3637                 0.7964                 0.6893

                      7                      8                      9
                      A                      A                      A
 Frequencies --    119.9041               147.3271               154.3542
 Red. masses --      5.1328                 5.1339                 6.6033
 Frc consts  --      0.0435                 0.0657                 0.0927
 IR Inten    --      0.7521                 6.1380                 5.9715

                     10                     11                     12
                      A                      A                      A
 Frequencies --    187.4143               227.2643               251.4517
 Red. masses --      4.9754                 1.2913                 4.3372
 Frc consts  --      0.1030                 0.0393                 0.1616
 IR Inten    --      0.7996                 0.7314                 3.1653

                     13                     14                     15
                      A                      A                      A
 Frequencies --    252.9307               281.8957               288.4109
 Red. masses --      1.1285                 5.1778                 3.4347
 Frc consts  --      0.0425                 0.2424                 0.1683
 IR Inten    --      0.0471                 2.0356                 9.6164

                     16                     17                     18
                      A                      A                      A
 Frequencies --    295.3604               301.3098               313.2881
 Red. masses --      2.0995                 4.3690                 2.3537
 Frc consts  --      0.1079                 0.2337                 0.1361
 IR Inten    --      2.4113                 0.7037                10.3025

                     19                     20                     21
                      A                      A                      A
 Frequencies --    349.6351               360.3241               398.3763
 Red. masses --      3.5898                 3.0116                 3.2525
 Frc consts  --      0.2586                 0.2304                 0.3041
 IR Inten    --      0.3175                 2.4671                23.5591

                     22                     23                     24
                      A                      A                      A
 Frequencies --    418.8361               427.9718               435.6607
 Red. masses --      3.6707                 3.8551                 2.5237
 Frc consts  --      0.3794                 0.4160                 0.2822
 IR Inten    --     19.4248                 6.2981                 1.6405

                     25                     26                     27
                      A                      A                      A
 Frequencies --    460.4291               476.1499               498.3736
 Red. masses --      5.0630                 3.1929                 5.1596
 Frc consts  --      0.6324                 0.4265                 0.7550
 IR Inten    --      9.1522                13.6197                 2.6061

                     28                     29                     30
                      A                      A                      A
 Frequencies --    512.1094               569.4214               581.0736
 Red. masses --      4.8547                 3.8035                 7.3712
 Frc consts  --      0.7501                 0.7266                 1.4664
 IR Inten    --      5.4721                54.2535                34.6177

                     31                     32                     33
                      A                      A                      A
 Frequencies --    635.4438               652.9683               705.0182
 Red. masses --      3.6038                 2.8938                 2.2641
 Frc consts  --      0.8574                 0.7269                 0.6630
 IR Inten    --     10.0883                48.8215                25.2186

                     34                     35                     36
                      A                      A                      A
 Frequencies --    722.1802               772.9358               828.0286
 Red. masses --      1.5097                 2.7459                 1.1319
 Frc consts  --      0.4639                 0.9666                 0.4572
 IR Inten    --    176.4125                95.5939                 0.4485

                     37                     38                     39
                      A                      A                      A
 Frequencies --    864.2029               873.4370               888.7107
 Red. masses --      2.3027                 2.5120                 2.5388
 Frc consts  --      1.0133                 1.1291                 1.1814
 IR Inten    --      9.6081                18.1151               113.1275

                     40                     41                     42
                      A                      A                      A
 Frequencies --    891.8914               953.7874               954.6745
 Red. masses --      1.9892                 1.2959                 1.7491
 Frc consts  --      0.9323                 0.6946                 0.9392
 IR Inten    --     45.1785                 3.3826                 0.1936

                     43                     44                     45
                      A                      A                      A
 Frequencies --    974.6177              1000.1586              1016.7881
 Red. masses --      2.2030                 1.8688                 2.5406
 Frc consts  --      1.2329                 1.1014                 1.5476
 IR Inten    --     10.0834                17.5456               106.4920

                     46                     47                     48
                      A                      A                      A
 Frequencies --   1048.0671              1050.2464              1071.2351
 Red. masses --      2.4577                 1.9195                 1.9940
 Frc consts  --      1.5906                 1.2475                 1.3482
 IR Inten    --      0.8353                16.5129                 4.5487

                     49                     50                     51
                      A                      A                      A
 Frequencies --   1095.9273              1107.5471              1116.9055
 Red. masses --      2.1223                 3.0298                 6.1558
 Frc consts  --      1.5019                 2.1897                 4.5244
 IR Inten    --     31.2067                72.1605               162.9374

                     52                     53                     54
                      A                      A                      A
 Frequencies --   1123.2370              1144.9278              1168.7564
 Red. masses --      2.3612                 1.8546                 2.3691
 Frc consts  --      1.7552                 1.4324                 1.9067
 IR Inten    --     15.7790                21.9603                24.2387

                     55                     56                     57
                      A                      A                      A
 Frequencies --   1177.2157              1180.3315              1215.5357
 Red. masses --      1.4887                 3.4246                 1.9107
 Frc consts  --      1.2155                 2.8110                 1.6633
 IR Inten    --      0.6608                47.8316                 2.3150

                     58                     59                     60
                      A                      A                      A
 Frequencies --   1218.7401              1264.0892              1280.5659
 Red. masses --      1.3356                 1.6678                 1.4069
 Frc consts  --      1.1688                 1.5702                 1.3593
 IR Inten    --     22.1931                 0.5599                 2.0813

                     61                     62                     63
                      A                      A                      A
 Frequencies --   1294.4626              1306.9609              1314.3127
 Red. masses --      2.9687                 1.4443                 3.6035
 Frc consts  --      2.9309                 1.4535                 3.6675
 IR Inten    --     79.2640                43.9728               126.8201

                     64                     65                     66
                      A                      A                      A
 Frequencies --   1334.3360              1338.0466              1343.7747
 Red. masses --      2.5085                 1.3645                 1.2014
 Frc consts  --      2.6314                 1.4393                 1.2782
 IR Inten    --    122.6274                24.2638                 7.1869

                     67                     68                     69
                      A                      A                      A
 Frequencies --   1372.8495              1392.9432              1394.3682
 Red. masses --      1.2458                 1.2436                 1.2178
 Frc consts  --      1.3833                 1.4216                 1.3950
 IR Inten    --      1.6157                 6.5658                 8.1616

                     70                     71                     72
                      A                      A                      A
 Frequencies --   1400.0466              1415.6989              1419.8731
 Red. masses --      1.2351                 1.2636                 1.3058
 Frc consts  --      1.4264                 1.4921                 1.5510
 IR Inten    --      7.2887                 6.7426                25.6293

                     73                     74                     75
                      A                      A                      A
 Frequencies --   1436.6153              1444.6428              1474.8557
 Red. masses --      1.2495                 1.3177                 1.0899
 Frc consts  --      1.5194                 1.6203                 1.3968
 IR Inten    --      7.6468                12.0993                 6.2060

                     76                     77                     78
                      A                      A                      A
 Frequencies --   1485.6322              1499.9747              1509.5947
 Red. masses --      1.0876                 1.0755                 1.1252
 Frc consts  --      1.4143                 1.4258                 1.5108
 IR Inten    --     12.4306                 6.5844                12.8391

                     79                     80                     81
                      A                      A                      A
 Frequencies --   1512.8931              1517.2157              1524.6159
 Red. masses --      1.0887                 1.0864                 1.0468
 Frc consts  --      1.4681                 1.4735                 1.4336
 IR Inten    --      7.4554                 2.4789                 9.5155

                     82                     83                     84
                      A                      A                      A
 Frequencies --   1528.7755              1531.7740              1537.0048
 Red. masses --      1.0420                 1.1229                 1.0495
 Frc consts  --      1.4348                 1.5523                 1.4608
 IR Inten    --      7.9076                 6.3908                14.7855

                     85                     86                     87
                      A                      A                      A
 Frequencies --   1553.0659              2943.8942              3048.3823
 Red. masses --      1.0909                 1.0736                 1.0425
 Frc consts  --      1.5503                 5.4821                 5.7077
 IR Inten    --      5.4642                68.0864                21.6235

                     88                     89                     90
                      A                      A                      A
 Frequencies --   3061.1293              3061.9322              3063.5934
 Red. masses --      1.0689                 1.0705                 1.0404
 Frc consts  --      5.9012                 5.9135                 5.7530
 IR Inten    --      9.1644                38.3169                 7.6690

                     91                     92                     93
                      A                      A                      A
 Frequencies --   3081.7312              3093.6026              3095.7579
 Red. masses --      1.0826                 1.0664                 1.0666
 Frc consts  --      6.0575                 6.0131                 6.0227
 IR Inten    --      2.8792                 7.2059                13.7014

                     94                     95                     96
                      A                      A                      A
 Frequencies --   3098.5230              3099.3996              3114.5962
 Red. masses --      1.0590                 1.0599                 1.0985
 Frc consts  --      5.9902                 5.9987                 6.2783
 IR Inten    --      0.0767                 2.7254                38.2747

                     97                     98                     99
                      A                      A                      A
 Frequencies --   3116.8319              3128.6013              3138.9111
 Red. masses --      1.1052                 1.1019                 1.1034
 Frc consts  --      6.3260                 6.3547                 6.4055
 IR Inten    --     12.3857                25.8788                24.6981

                    100                    101                    102
                      A                      A                      A
 Frequencies --   3156.4782              3162.3967              3163.8316
 Red. masses --      1.1017                 1.1018                 1.1020
 Frc consts  --      6.4671                 6.4921                 6.4994
 IR Inten    --      5.7043                 3.6077                 0.4881

                    103                    104                    105
                      A                      A                      A
 Frequencies --   3167.9572              3169.8617              3503.7817
 Red. masses --      1.1049                 1.1063                 1.0738
 Frc consts  --      6.5331                 6.5496                 7.7669
 IR Inten    --      0.2367                 1.0635                 0.4626

 - Thermochemistry -
 -------------------
 Temperature   298.150 Kelvin.  Pressure   1.00000 Atm.
 Atom     1 has atomic number  6 and mass  12.00000

 Molecular mass:   284.08645 amu.
 Principal axes and moments of inertia in atomic units:
                           1         2         3
     Eigenvalues --  1800.23378********************
           X            0.99998   0.00643  -0.00277
           Y           -0.00593   0.98813   0.15353
           Z            0.00372  -0.15351   0.98814
 This molecule is an asymmetric top.
 Rotational symmetry number  1.
 Warning -- assumption of classical behavior for rotation
           may cause significant error
 Rotational temperatures (Kelvin)      0.04811     0.00841     0.00818
 Rotational constants (GHZ):           1.00250     0.17519     0.17052
 Zero-point vibrational energy     819580.9 (Joules/Mol)
                                  195.88453 (Kcal/Mol)
 Warning -- explicit consideration of  30 degrees of freedom as
           vibrations may cause significant error
 Vibrational temperatures:     36.44    49.72    67.12    94.05   115.56
          (Kelvin)            155.43   172.52   211.97   222.08   269.65
                              326.98   361.78   363.91   405.58   414.96
                              424.96   433.52   450.75   503.05   518.43
                              573.17   602.61   615.76   626.82   662.45
                              685.07   717.05   736.81   819.27   836.04
                              914.26   939.48  1014.36  1039.06  1112.08
                             1191.35  1243.40  1256.68  1278.66  1283.23
                             1372.29  1373.56  1402.26  1439.01  1462.93
                             1507.93  1511.07  1541.27  1576.79  1593.51
                             1606.98  1616.09  1647.30  1681.58  1693.75
                             1698.23  1748.88  1753.50  1818.74  1842.45
                             1862.44  1880.43  1891.00  1919.81  1925.15
                             1933.39  1975.22  2004.13  2006.18  2014.35
                             2036.87  2042.88  2066.97  2078.52  2121.99
                             2137.49  2158.13  2171.97  2176.72  2182.94
                             2193.58  2199.57  2203.88  2211.41  2234.52
                             4235.61  4385.94  4404.28  4405.44  4407.83
                             4433.92  4451.00  4454.11  4458.08  4459.34
                             4481.21  4484.43  4501.36  4516.19  4541.47
                             4549.98  4552.05  4557.98  4560.72  5041.16

 Zero-point correction=                           0.312162 (Hartree/Particle)
 Thermal correction to Energy=                    0.330788
 Thermal correction to Enthalpy=                  0.331732
 Thermal correction to Gibbs Free Energy=         0.264490
 Sum of electronic and zero-point Energies=          -1561.417621
 Sum of electronic and thermal Energies=             -1561.398995
 Sum of electronic and thermal Enthalpies=           -1561.398051
 Sum of electronic and thermal Free Energies=        -1561.465293

                     E (Thermal)             CV                S
                      KCal/Mol        Cal/Mol-Kelvin    Cal/Mol-Kelvin
 Total                  207.572             70.222            141.523
 Electronic               0.000              0.000              0.000
 Translational            0.889              2.981             42.830
 Rotational               0.889              2.981             33.639
 Vibrational            205.795             64.260             65.053
 Vibration     1          0.593              1.985              6.165
 Vibration     2          0.594              1.983              5.549
 Vibration     3          0.595              1.979              4.955
 Vibration     4          0.597              1.971              4.288
 Vibration     5          0.600              1.963              3.883
 Vibration     6          0.606              1.943              3.304
 Vibration     7          0.609              1.933              3.102
 Vibration     8          0.617              1.906              2.706
 Vibration     9          0.620              1.898              2.618
 Vibration    10          0.632              1.857              2.253
 Vibration    11          0.651              1.799              1.900
 Vibration    12          0.663              1.760              1.720
 Vibration    13          0.664              1.758              1.710
 Vibration    14          0.681              1.707              1.522
 Vibration    15          0.685              1.695              1.483
 Vibration    16          0.690              1.682              1.443
 Vibration    17          0.693              1.671              1.410
 Vibration    18          0.701              1.648              1.345
 Vibration    19          0.727              1.576              1.168
 Vibration    20          0.735              1.554              1.121
 Vibration    21          0.765              1.474              0.969
 Vibration    22          0.782              1.429              0.896
 Vibration    23          0.789              1.409              0.865
 Vibration    24          0.796              1.392              0.840
 Vibration    25          0.818              1.338              0.765
 Vibration    26          0.833              1.303              0.721
 Vibration    27          0.854              1.254              0.662
 Vibration    28          0.867              1.223              0.629
 Vibration    29          0.925              1.097              0.505
 Vibration    30          0.938              1.072              0.483

 Optimization completed.
    -- Stationary point found.
 Normal termination of Gaussian 16 at Fri Dec 11 13:13:27 2020.

 ----------------------------------------------------------------------
 # B3LYP/6-311++G(d,p) empiricaldispersion=gd3bj scf=xqc pop=npa geom=c
 heck
 ----------------------------------------------------------------------

 --------------------------------------
 CID_65774467_JID_7611_Energie_neutraal
 --------------------------------------
 Structure from the checkpoint file:  "JID_7611.chk"
 Charge =  0 Multiplicity = 1

 SCF Done:  E(RB3LYP) =  -1562.00938086     A.U. after   15 cycles
 Normal termination of Gaussian 16 at Fri Dec 11 13:19:58 2020.

 ----------------------------------------------------------------------
 # B3LYP/6-311++G(d,p) empiricaldispersion=gd3bj scf=xqc pop=npa geom=c
 heck
 ----------------------------------------------------------------------

 ------------------------------------
 CID_65774467_JID_7611_Energie_kation
 ------------------------------------
 Structure from the checkpoint file:  "JID_7611.chk"
 Charge =  1 Multiplicity = 2

 SCF Done:  E(UB3LYP) =  -1561.68582358     A.U. after   33 cycles
 SCF Done:  E(UB3LYP) =  -1561.68582358     a.u. after    2 cycles
 Normal termination of Gaussian 16 at Fri Dec 11 14:01:13 2020.
 Gaussian 16:  ES64L-G16RevA.03 25-Dec-2016

 ----------------------------------------------------------------------
 # B3LYP/6-311++G(d,p) empiricaldispersion=gd3bj scf=xqc pop=npa geom=c
 heck
 ----------------------------------------------------------------------

 -----------------------------------
 CID_65774467_JID_7611_Energie_anion
 -----------------------------------
 Structure from the checkpoint file:  "JID_7611.chk"
 Charge = -1 Multiplicity = 2

                         Standard orientation:
 ---------------------------------------------------------------------
 Center     Atomic      Atomic             Coordinates (Angstroms)
 Number     Number       Type             X           Y           Z
 ---------------------------------------------------------------------
      1          6           0       -6.326304   -0.819523    0.182292
      2          6           0       -4.938042   -0.431810   -0.317255
      3          7           0       -3.907791   -0.974959    0.564878
      4          6           0       -2.537136   -0.790968    0.122220
      5          6           0       -2.082732    0.680594   -0.040305
      6          6           0       -2.158155    1.488146    1.250975
      7         16           0       -0.401366    0.746393   -0.737185
      8          8           0       -0.384356   -0.097398   -1.940513
      9          8           0        0.015625    2.154337   -0.798263
     10          7           0        0.546187   -0.020886    0.452186
     11          6           0        1.466151    0.835856    1.215527
     12          6           0        2.778350    1.133359    0.478741
     13         16           0        3.645569   -0.412409    0.103340
     14          8           0        4.748010   -0.146779   -0.829676
     15          8           0        3.885880   -1.098267    1.387601
     16          6           0        2.330214   -1.320853   -0.749044
     17          6           0        1.066230   -1.356173    0.119341
     18          1           0       -6.416423   -1.907555    0.254549
     19          1           0       -7.102035   -0.443518   -0.492909
     20          1           0       -6.518052   -0.396593    1.176581
     21          1           0       -4.767917   -0.855243   -1.315492
     22          1           0       -4.886277    0.667067   -0.432857
     23          1           0       -4.032922   -0.621990    1.511126
     24          1           0       -1.877236   -1.277301    0.849796
     25          1           0       -2.414165   -1.304169   -0.836935
     26          1           0       -2.668986    1.168338   -0.827860
     27          1           0       -1.559276    1.016383    2.037424
     28          1           0       -1.808576    2.512042    1.100929
     29          1           0       -3.197213    1.530908    1.592801
     30          1           0        1.681066    0.318904    2.155636
     31          1           0        0.965218    1.776154    1.444619
     32          1           0        3.466765    1.713095    1.101103
     33          1           0        2.599691    1.663033   -0.459709
     34          1           0        2.143450   -0.833698   -1.708697
     35          1           0        2.729173   -2.325381   -0.919553
     36          1           0        1.283183   -1.861547    1.065194
     37          1           0        0.291787   -1.918680   -0.401834
 ---------------------------------------------------------------------

 SCF Done:  E(UB3LYP) =  -1562.00474666     A.U. after   29 cycles

 The electronic state is 2-A.
 Alpha  occ. eigenvalues --  -88.98288 -88.96948 -19.04370 -19.04264 -19.04206
 Alpha  occ. eigenvalues --  -19.03827 -14.27822 -14.21383 -10.15430 -10.14955
 Alpha  occ. eigenvalues --  -10.13985 -10.13717 -10.13139 -10.11856 -10.10715
 Alpha  occ. eigenvalues --  -10.08236 -10.07125  -8.04553  -8.03474  -6.00863
 Alpha  occ. eigenvalues --   -6.00811  -6.00558  -5.99733  -5.99624  -5.99575
 Alpha  occ. eigenvalues --   -1.04371  -1.03221  -0.93523  -0.92936  -0.87690
 Alpha  occ. eigenvalues --   -0.82739  -0.74101  -0.72491  -0.72080  -0.65959
 Alpha  occ. eigenvalues --   -0.62565  -0.60359  -0.59410  -0.55928  -0.53807
 Alpha  occ. eigenvalues --   -0.51871  -0.48233  -0.45054  -0.43230  -0.43041
 Alpha  occ. eigenvalues --   -0.42362  -0.41753  -0.41224  -0.40214  -0.38935
 Alpha  occ. eigenvalues --   -0.38490  -0.37436  -0.36628  -0.35883  -0.35436
 Alpha  occ. eigenvalues --   -0.34818  -0.33321  -0.32404  -0.32062  -0.31989
 Alpha  occ. eigenvalues --   -0.30887  -0.28975  -0.28879  -0.27796  -0.27354
 Alpha  occ. eigenvalues --   -0.26438  -0.26246  -0.25993  -0.25220  -0.24666
 Alpha  occ. eigenvalues --   -0.23427  -0.23191  -0.22632  -0.21304  -0.19251
 Alpha  occ. eigenvalues --   -0.14368   0.03669
 Alpha virt. eigenvalues --    0.05816   0.06414   0.06969   0.07683   0.08091
 Alpha virt. eigenvalues --    0.08564   0.09074   0.09647   0.10026   0.10479
 Alpha virt. eigenvalues --    0.10833   0.11026   0.11520   0.12113   0.12524

  Beta  occ. eigenvalues --  -88.98287 -88.96948 -19.04366 -19.04256 -19.04205
  Beta  occ. eigenvalues --  -19.03822 -14.27821 -14.21356 -10.15415 -10.14923
  Beta  occ. eigenvalues --  -10.13977 -10.13706 -10.13132 -10.11842 -10.10695
  Beta  occ. eigenvalues --  -10.08170 -10.07090  -8.04552  -8.03473  -6.00862
  Beta  occ. eigenvalues --   -6.00810  -6.00557  -5.99733  -5.99623  -5.99575
  Beta  occ. eigenvalues --   -1.04361  -1.03216  -0.93511  -0.92930  -0.87677
  Beta  occ. eigenvalues --   -0.82697  -0.74077  -0.72464  -0.72049  -0.65913
  Beta  occ. eigenvalues --   -0.62520  -0.60316  -0.59332  -0.55884  -0.53768
  Beta  occ. eigenvalues --   -0.51793  -0.48189  -0.45028  -0.43214  -0.43016
  Beta  occ. eigenvalues --   -0.42340  -0.41722  -0.41191  -0.40197  -0.38909
  Beta  occ. eigenvalues --   -0.38463  -0.37397  -0.36592  -0.35853  -0.35420
  Beta  occ. eigenvalues --   -0.34762  -0.33267  -0.32381  -0.32033  -0.31964
  Beta  occ. eigenvalues --   -0.30832  -0.28929  -0.28832  -0.27773  -0.27291
  Beta  occ. eigenvalues --   -0.26403  -0.26206  -0.25981  -0.25211  -0.24661
  Beta  occ. eigenvalues --   -0.23414  -0.23181  -0.22610  -0.21291  -0.19237
  Beta  occ. eigenvalues --   -0.14337
  Beta virt. eigenvalues --    0.05922   0.06459   0.07059   0.07545   0.08078
  Beta virt. eigenvalues --    0.08460   0.08823   0.09278   0.10138   0.10282
  Beta virt. eigenvalues --    0.10658   0.11063   0.11360   0.11643   0.12292

 Mulliken charges and spin densities:
               1          2
     1  C    0.693304  -1.302665
     2  C   -0.199857   0.124840
     3  N   -0.105764   0.153860
     4  C    0.277402  -1.162727
     5  C   -1.923355   1.820000
     6  C    1.421379  -2.040879
     7  S    1.275446  -1.060490
     8  O   -0.153367   0.022247
     9  O   -0.088256   0.020250
    10  N   -0.198157   0.167709
    11  C    0.162504  -0.499120
    12  C   -0.628825  -0.127927
    13  S    0.873908  -0.304739
    14  O   -0.124887   0.005092
    15  O   -0.238414   0.012554
    16  C   -0.783773   0.007761
    17  C   -0.086027  -0.226890
    18  H   -0.058746   0.210252
    19  H   -0.140200   0.268475
    20  H   -0.306606   0.444431
    21  H    0.010786   0.134920
    22  H   -0.091546   0.217363
    23  H    0.065291   0.184264
    24  H   -0.239399   0.482021
    25  H    0.181683   0.009325
    26  H    0.172514   0.137243
    27  H   -0.484764   0.684705
    28  H   -0.166773   0.350996
    29  H   -0.619917   0.811845
    30  H   -0.141116   0.381643
    31  H   -0.083465   0.315521
    32  H    0.039611   0.227917
    33  H    0.235767   0.020569
    34  H    0.254864   0.007725
    35  H    0.132783   0.127596
    36  H    0.013183   0.221620
    37  H    0.052788   0.152692
 Sum of Mulliken charges =  -1.00000   1.00000

 Dipole moment (field-independent basis, Debye):
    X=              5.0228    Y=             -1.5722    Z=             -4.7697  Tot=              7.1028
 Quadrupole moment (field-independent basis, Debye-Ang):
   XX=           -239.3669   YY=           -156.7303   ZZ=           -167.3058
   XY=              5.8365   XZ=             12.1914   YZ=             -0.1556

 Summary of Natural Population Analysis:

                                       Natural Population
                Natural  -----------------------------------------------
    Atom  No    Charge         Core      Valence    Rydberg      Total
 -----------------------------------------------------------------------
      C    1   -0.28530      0.99967     2.28099    0.00465     3.28530
      C    2   -0.08880      0.99964     2.07822    0.01094     3.08880
      N    3   -0.33595      0.99974     2.82389    0.01231     3.83595
      C    4   -0.09541      0.99958     2.08201    0.01382     3.09541
      C    5   -0.20285      0.99955     2.18868    0.01462     3.20285
      C    6   -0.30247      0.99963     2.29378    0.00906     3.30247
      S    7    1.10220      4.99916     1.80081    0.09783     6.89780
      O    8   -0.46875      0.99991     3.46366    0.00519     4.46875
      O    9   -0.46415      0.99991     3.45881    0.00543     4.46415
      N   10   -0.37863      0.99974     2.86184    0.01706     3.87863
      C   11   -0.09984      0.99959     2.08611    0.01414     3.09984
      C   12   -0.30090      0.99958     2.28972    0.01160     3.30090
      S   13    1.01909      4.99926     1.88639    0.09526     6.98091
      O   14   -0.46473      0.99991     3.45961    0.00522     4.46473
      O   15   -0.47194      0.99991     3.46622    0.00581     4.47194
      C   16   -0.30248      0.99958     2.29125    0.01165     3.30248
      C   17   -0.10009      0.99959     2.08710    0.01341     3.10009
      H   18    0.09898      0.00000     0.39965    0.00137     0.40102
      H   19    0.09833      0.00000     0.40061    0.00106     0.40167
      H   20    0.09963      0.00000     0.39868    0.00168     0.40037
      H   21    0.08888      0.00000     0.40981    0.00132     0.41112
      H   22    0.07888      0.00000     0.41934    0.00178     0.42112
      H   23    0.17756      0.00000     0.31794    0.00450     0.32244
      H   24    0.10014      0.00000     0.39810    0.00176     0.39986
      H   25    0.10077      0.00000     0.39774    0.00149     0.39923
      H   26    0.11467      0.00000     0.38389    0.00144     0.38533
      H   27    0.10691      0.00000     0.39008    0.00300     0.39309
      H   28    0.11278      0.00000     0.38574    0.00148     0.38722
      H   29    0.11300      0.00000     0.38435    0.00265     0.38700
      H   30    0.11164      0.00000     0.38685    0.00151     0.38836
      H   31    0.12163      0.00000     0.37694    0.00143     0.37837
      H   32    0.12208      0.00000     0.37672    0.00119     0.37792
      H   33    0.12249      0.00000     0.37627    0.00124     0.37751
      H   34    0.12297      0.00000     0.37583    0.00120     0.37703
      H   35    0.12047      0.00000     0.37834    0.00118     0.37953
      H   36    0.11133      0.00000     0.38741    0.00127     0.38867
      H   37    0.11788      0.00000     0.38093    0.00118     0.38212
 =======================================================================
   * Total *    0.00000     24.99394    50.62433    0.38174    76.00000

 Normal termination of Gaussian 16 at Fri Dec 11 14:17:12 2020.
