 Gaussian 16, Revision A.03,

 -----------------------------------------------------------
 # opt freq B3LYP/6-31G(d) empiricaldispersion=gd3bj scf=xqc
 -----------------------------------------------------------

 ------------------------------
 CID_68102647_JID_7510_neutraal
 ------------------------------
 Symbolic Z-matrix:
 Charge =  0 Multiplicity = 1

 SCF Done:  E(RB3LYP) =  -690.759026889     A.U. after   15 cycles
 SCF Done:  E(RB3LYP) =  -690.763645463     A.U. after   13 cycles
 SCF Done:  E(RB3LYP) =  -690.764777177     A.U. after   12 cycles
 SCF Done:  E(RB3LYP) =  -690.765303028     A.U. after   12 cycles
 SCF Done:  E(RB3LYP) =  -690.765436225     A.U. after   11 cycles
 SCF Done:  E(RB3LYP) =  -690.765458149     A.U. after   10 cycles
 SCF Done:  E(RB3LYP) =  -690.765459984     A.U. after    8 cycles
 SCF Done:  E(RB3LYP) =  -690.765460595     A.U. after    8 cycles
 SCF Done:  E(RB3LYP) =  -690.765460683     A.U. after    7 cycles
 SCF Done:  E(RB3LYP) =  -690.765460727     A.U. after    7 cycles
 SCF Done:  E(RB3LYP) =  -690.765460747     A.U. after    7 cycles
 Optimization completed.
    -- Stationary point found.
 Normal termination of Gaussian 16 at Mon Dec 14 16:35:56 2020.

 --------------------------------------------------------------------
 #N Geom=AllCheck Guess=TCheck SCRF=Check GenChk RB3LYP/6-31G(d) Freq
 --------------------------------------------------------------------

 Structure from the checkpoint file:  "JID_7510.chk"
 ------------------------------
 CID_68102647_JID_7510_neutraal
 ------------------------------
 Charge =  0 Multiplicity = 1

 SCF Done:  E(RB3LYP) =  -690.765460747     A.U. after    1 cycles

  Exact polarizability: 264.988   6.140 168.281   4.650  -2.186  91.594
 Approx polarizability: 389.335  22.195 290.062  10.764  -3.415 142.505

                      1                      2                      3
                      A                      A                      A
 Frequencies --     39.5507                69.5481                89.8014
 Red. masses --      4.1912                 3.7728                 4.3822
 Frc consts  --      0.0039                 0.0108                 0.0208
 IR Inten    --      0.2454                 1.8629                 0.6307

                      4                      5                      6
                      A                      A                      A
 Frequencies --    118.2670               156.3588               226.5643
 Red. masses --      3.9366                 3.1341                 4.1909
 Frc consts  --      0.0324                 0.0451                 0.1267
 IR Inten    --      1.0401                 0.9177                 3.1386

                      7                      8                      9
                      A                      A                      A
 Frequencies --    244.3960               258.4082               273.9260
 Red. masses --      1.2405                 2.0635                 2.4387
 Frc consts  --      0.0437                 0.0812                 0.1078
 IR Inten    --      0.0316                 0.2556                 1.1357

                     10                     11                     12
                      A                      A                      A
 Frequencies --    289.6459               297.4773               311.2864
 Red. masses --      1.6599                 2.8222                 2.1376
 Frc consts  --      0.0820                 0.1471                 0.1220
 IR Inten    --      3.7677                 2.1779                 2.6178

                     13                     14                     15
                      A                      A                      A
 Frequencies --    335.5827               357.1633               398.5160
 Red. masses --      3.1376                 3.2465                 2.8067
 Frc consts  --      0.2082                 0.2440                 0.2626
 IR Inten    --      2.4454                 0.0239                 3.0968

                     16                     17                     18
                      A                      A                      A
 Frequencies --    403.1261               451.3882               490.4937
 Red. masses --      3.2364                 2.4191                 3.3626
 Frc consts  --      0.3099                 0.2904                 0.4766
 IR Inten    --      1.4228                 2.3527                 2.2567

                     19                     20                     21
                      A                      A                      A
 Frequencies --    507.2170               544.7249               575.3036
 Red. masses --      3.7503                 3.5912                 3.6293
 Frc consts  --      0.5685                 0.6278                 0.7077
 IR Inten    --      1.3081                 6.7855                 4.2346

                     22                     23                     24
                      A                      A                      A
 Frequencies --    603.1828               672.1455               684.3694
 Red. masses --      4.8021                 5.6902                 6.8318
 Frc consts  --      1.0294                 1.5146                 1.8852
 IR Inten    --     11.9314                28.8495                 0.6516

                     25                     26                     27
                      A                      A                      A
 Frequencies --    715.3044               732.6077               752.7508
 Red. masses --      1.9147                 4.7817                 3.5824
 Frc consts  --      0.5772                 1.5121                 1.1960
 IR Inten    --     16.5809                 2.3136                 0.2322

                     28                     29                     30
                      A                      A                      A
 Frequencies --    762.9716               783.4888               808.2259
 Red. masses --      2.1718                 1.7360                 3.8806
 Frc consts  --      0.7449                 0.6279                 1.4935
 IR Inten    --      6.1268                21.0591                 8.6751

                     31                     32                     33
                      A                      A                      A
 Frequencies --    834.2084               839.5781               841.2086
 Red. masses --      2.2817                 1.5332                 1.6409
 Frc consts  --      0.9355                 0.6368                 0.6841
 IR Inten    --      9.6367                41.8885                15.8492

                     34                     35                     36
                      A                      A                      A
 Frequencies --    876.5397               891.1575               911.9488
 Red. masses --      1.2641                 1.3065                 1.9443
 Frc consts  --      0.5722                 0.6113                 0.9527
 IR Inten    --      0.5372                 3.9649                 0.7103

                     37                     38                     39
                      A                      A                      A
 Frequencies --    943.1232               953.5701               959.7075
 Red. masses --      1.9885                 3.7057                 1.5462
 Frc consts  --      1.0421                 1.9853                 0.8390
 IR Inten    --      1.4466                 7.0855                 4.7614

                     40                     41                     42
                      A                      A                      A
 Frequencies --    972.9585               984.4815               993.4940
 Red. masses --      1.3012                 1.9481                 1.4210
 Frc consts  --      0.7257                 1.1125                 0.8264
 IR Inten    --      0.2799                 9.1153                 0.8456

                     43                     44                     45
                      A                      A                      A
 Frequencies --   1013.6698              1040.7964              1059.4541
 Red. masses --      7.3393                 1.3927                 1.8210
 Frc consts  --      4.4432                 0.8889                 1.2043
 IR Inten    --     25.1711                 4.4050                 5.0428

                     46                     47                     48
                      A                      A                      A
 Frequencies --   1096.0668              1112.5071              1124.7279
 Red. masses --      2.0275                 1.7828                 1.3586
 Frc consts  --      1.4351                 1.3000                 1.0126
 IR Inten    --      0.9295                11.8633                 7.6641

                     49                     50                     51
                      A                      A                      A
 Frequencies --   1133.0432              1156.3967              1178.6825
 Red. masses --      2.1157                 1.9433                 1.9544
 Frc consts  --      1.6003                 1.5311                 1.5998
 IR Inten    --      2.5997                12.7373                29.5849

                     52                     53                     54
                      A                      A                      A
 Frequencies --   1228.4040              1231.3581              1259.6877
 Red. masses --      2.4026                 2.6880                 1.2851
 Frc consts  --      2.1361                 2.4013                 1.2015
 IR Inten    --      7.2786                89.5317                31.5544

                     55                     56                     57
                      A                      A                      A
 Frequencies --   1273.2710              1298.6265              1311.8277
 Red. masses --      2.0525                 1.6582                 3.7598
 Frc consts  --      1.9605                 1.6476                 3.8122
 IR Inten    --      5.4121                 2.5494                13.5368

                     58                     59                     60
                      A                      A                      A
 Frequencies --   1328.6327              1358.2866              1375.8487
 Red. masses --      2.2754                 1.9431                 1.9332
 Frc consts  --      2.3666                 2.1121                 2.1561
 IR Inten    --     13.4186                22.6878                 8.5944

                     61                     62                     63
                      A                      A                      A
 Frequencies --   1384.9908              1392.1118              1420.3924
 Red. masses --      1.5429                 1.9597                 1.2288
 Frc consts  --      1.7437                 2.2377                 1.4607
 IR Inten    --     20.5493                17.3577                 4.4137

                     64                     65                     66
                      A                      A                      A
 Frequencies --   1442.3789              1453.1982              1470.2687
 Red. masses --      1.3679                 2.3325                 2.3351
 Frc consts  --      1.6767                 2.9021                 2.9740
 IR Inten    --     44.4496               113.3769                23.2955

                     67                     68                     69
                      A                      A                      A
 Frequencies --   1497.9382              1514.7620              1519.5255
 Red. masses --      1.0868                 1.0476                 1.0563
 Frc consts  --      1.4368                 1.4163                 1.4371
 IR Inten    --      1.7324                 1.4751                 3.6034

                     70                     71                     72
                      A                      A                      A
 Frequencies --   1530.9792              1537.9871              1554.3338
 Red. masses --      1.0536                 1.0592                 2.5106
 Frc consts  --      1.4551                 1.4761                 3.5737
 IR Inten    --      1.7512                 9.0546               165.8610

                     73                     74                     75
                      A                      A                      A
 Frequencies --   1608.5572              1634.5098              1651.8082
 Red. masses --      6.9307                 5.7031                 5.3379
 Frc consts  --     10.5658                 8.9771                 8.5810
 IR Inten    --     67.0193               243.5555               283.4097

                     76                     77                     78
                      A                      A                      A
 Frequencies --   1685.1735              1743.2324              2972.7028
 Red. masses --      8.4350                 8.2795                 1.0721
 Frc consts  --     14.1132                14.8240                 5.5822
 IR Inten    --     11.8052                 7.8605                44.8679

                     79                     80                     81
                      A                      A                      A
 Frequencies --   3038.0462              3043.1986              3064.2287
 Red. masses --      1.0363                 1.0364                 1.0878
 Frc consts  --      5.6354                 5.6549                 6.0179
 IR Inten    --     22.6502                48.1641                29.6701

                     82                     83                     84
                      A                      A                      A
 Frequencies --   3104.3672              3109.9065              3114.7808
 Red. masses --      1.1007                 1.1010                 1.1026
 Frc consts  --      6.2497                 6.2739                 6.3026
 IR Inten    --      2.4036                48.3130                34.8712

                     85                     86                     87
                      A                      A                      A
 Frequencies --   3129.1570              3170.6307              3173.5243
 Red. masses --      1.1021                 1.0880                 1.0914
 Frc consts  --      6.3582                 6.4440                 6.4760
 IR Inten    --     23.7978                40.0723                42.3468

                     88                     89                     90
                      A                      A                      A
 Frequencies --   3173.7866              3218.9995              3222.4150
 Red. masses --      1.0902                 1.0928                 1.0913
 Frc consts  --      6.4702                 6.6718                 6.6764
 IR Inten    --      4.8757                 7.6862                 7.5988

                     91                     92                     93
                      A                      A                      A
 Frequencies --   3244.8510              3263.3123              3285.5187
 Red. masses --      1.0920                 1.0896                 1.1036
 Frc consts  --      6.7743                 6.8368                 7.0186
 IR Inten    --      2.7169                 2.1808                 3.9665

 - Thermochemistry -
 -------------------
 Temperature   298.150 Kelvin.  Pressure   1.00000 Atm.
 Atom     1 has atomic number  6 and mass  12.00000

 Molecular mass:   224.13135 amu.
 Principal axes and moments of inertia in atomic units:
                           1         2         3
     Eigenvalues --  1525.949026816.080937824.07328
           X            0.99991  -0.01362   0.00131
           Y            0.01362   0.99989  -0.00513
           Z           -0.00124   0.00515   0.99999
 This molecule is an asymmetric top.
 Rotational symmetry number  1.
 Warning -- assumption of classical behavior for rotation
           may cause significant error
 Rotational temperatures (Kelvin)      0.05676     0.01271     0.01107
 Rotational constants (GHZ):           1.18270     0.26478     0.23067
 Zero-point vibrational energy     729175.5 (Joules/Mol)
                                  174.27714 (Kcal/Mol)
 Warning -- explicit consideration of  22 degrees of freedom as
           vibrations may cause significant error
 Vibrational temperatures:     56.90   100.06   129.20   170.16   224.97
          (Kelvin)            325.98   351.63   371.79   394.12   416.74
                              428.00   447.87   482.83   513.88   573.38
                              580.01   649.45   705.71   729.77   783.74
                              827.73   867.85   967.07   984.65  1029.16
                             1054.06  1083.04  1097.75  1127.27  1162.86
                             1200.24  1207.97  1210.31  1261.15  1282.18
                             1312.09  1356.94  1371.97  1380.81  1399.87
                             1416.45  1429.42  1458.44  1497.47  1524.32
                             1577.00  1600.65  1618.23  1630.20  1663.80
                             1695.86  1767.40  1771.65  1812.41  1831.95
                             1868.43  1887.43  1911.61  1954.27  1979.54
                             1992.69  2002.94  2043.63  2075.26  2090.83
                             2115.39  2155.20  2179.40  2186.26  2202.74
                             2212.82  2236.34  2314.36  2351.70  2376.58
                             2424.59  2508.12  4277.06  4371.07  4378.48
                             4408.74  4466.49  4474.46  4481.47  4502.16
                             4561.83  4565.99  4566.37  4631.42  4636.34
                             4668.62  4695.18  4727.13

 Zero-point correction=                           0.277728 (Hartree/Particle)
 Thermal correction to Energy=                    0.291916
 Thermal correction to Enthalpy=                  0.292861
 Thermal correction to Gibbs Free Energy=         0.237006
 Sum of electronic and zero-point Energies=           -690.487732
 Sum of electronic and thermal Energies=              -690.473544
 Sum of electronic and thermal Enthalpies=            -690.472600
 Sum of electronic and thermal Free Energies=         -690.528455

                     E (Thermal)             CV                S
                      KCal/Mol        Cal/Mol-Kelvin    Cal/Mol-Kelvin
 Total                  183.180             57.948            117.555
 Electronic               0.000              0.000              0.000
 Translational            0.889              2.981             42.124
 Rotational               0.889              2.981             32.765
 Vibrational            181.403             51.987             42.667
 Vibration     1          0.594              1.981              5.281
 Vibration     2          0.598              1.969              4.166
 Vibration     3          0.602              1.956              3.664
 Vibration     4          0.608              1.934              3.128
 Vibration     5          0.620              1.896              2.593
 Vibration     6          0.650              1.801              1.906
 Vibration     7          0.660              1.772              1.771
 Vibration     8          0.667              1.749              1.673
 Vibration     9          0.676              1.721              1.571
 Vibration    10          0.686              1.693              1.476
 Vibration    11          0.691              1.678              1.431
 Vibration    12          0.700              1.652              1.355
 Vibration    13          0.717              1.604              1.233
 Vibration    14          0.732              1.561              1.134
 Vibration    15          0.765              1.473              0.968
 Vibration    16          0.769              1.463              0.951
 Vibration    17          0.810              1.358              0.792
 Vibration    18          0.846              1.271              0.682
 Vibration    19          0.862              1.234              0.640
 Vibration    20          0.900              1.151              0.555
 Vibration    21          0.932              1.085              0.494
 Vibration    22          0.962              1.025              0.444

 Optimization completed.
    -- Stationary point found.
 Normal termination of Gaussian 16 at Mon Dec 14 16:47:54 2020.

 ----------------------------------------------------------------------
 # B3LYP/6-311++G(d,p) empiricaldispersion=gd3bj scf=xqc pop=npa geom=c
 heck
 ----------------------------------------------------------------------

 --------------------------------------
 CID_68102647_JID_7510_Energie_neutraal
 --------------------------------------
 Structure from the checkpoint file:  "JID_7510.chk"
 Charge =  0 Multiplicity = 1

 SCF Done:  E(RB3LYP) =  -690.940541259     A.U. after   16 cycles
 Normal termination of Gaussian 16 at Mon Dec 14 16:54:13 2020.

 ----------------------------------------------------------------------
 # B3LYP/6-311++G(d,p) empiricaldispersion=gd3bj scf=xqc pop=npa geom=c
 heck
 ----------------------------------------------------------------------

 ------------------------------------
 CID_68102647_JID_7510_Energie_kation
 ------------------------------------
 Structure from the checkpoint file:  "JID_7510.chk"
 Charge =  1 Multiplicity = 2

 SCF Done:  E(UB3LYP) =  -690.694509182     A.U. after   24 cycles
 Normal termination of Gaussian 16 at Mon Dec 14 17:07:19 2020.
 Gaussian 16:  ES64L-G16RevA.03 25-Dec-2016

 ----------------------------------------------------------------------
 # B3LYP/6-311++G(d,p) empiricaldispersion=gd3bj scf=xqc pop=npa geom=c
 heck
 ----------------------------------------------------------------------

 -----------------------------------
 CID_68102647_JID_7510_Energie_anion
 -----------------------------------
 Structure from the checkpoint file:  "JID_7510.chk"
 Charge = -1 Multiplicity = 2

                         Standard orientation:
 ---------------------------------------------------------------------
 Center     Atomic      Atomic             Coordinates (Angstroms)
 Number     Number       Type             X           Y           Z
 ---------------------------------------------------------------------
      1          6           0        4.608064   -0.548824   -0.690947
      2          6           0        3.223202   -0.467191   -0.031350
      3          6           0        2.220811   -1.325113   -0.842162
      4          6           0        0.766445   -1.057038   -0.531253
      5          6           0        0.426729    0.182336   -0.137737
      6          6           0        1.429996    1.255883    0.036084
      7          6           0        2.747505    0.974748    0.032520
      8          6           0        0.675297    2.483824    0.238945
      9          6           0       -0.637397    2.164818    0.249176
     10          7           0       -0.841150    0.786461    0.057135
     11          6           0       -2.090196    0.168186    0.027853
     12          6           0       -2.264258   -1.159042    0.450151
     13          6           0       -3.541233   -1.710045    0.412234
     14          7           0       -4.639517   -1.060528    0.003881
     15          6           0       -4.459906    0.208392   -0.387147
     16          6           0       -3.232656    0.862559   -0.402225
     17          6           0        3.316536   -0.999294    1.417764
     18          1           0        4.960664   -1.586281   -0.729833
     19          1           0        5.344981    0.034199   -0.125794
     20          1           0        4.580689   -0.158732   -1.714508
     21          1           0        2.382279   -1.139791   -1.918765
     22          1           0        2.455756   -2.384538   -0.680431
     23          1           0        0.031402   -1.819327   -0.760727
     24          1           0        3.487783    1.756485    0.189687
     25          1           0        1.090174    3.467197    0.409194
     26          1           0       -1.492612    2.799720    0.429563
     27          1           0       -1.430370   -1.732310    0.834386
     28          1           0       -3.689619   -2.737007    0.741882
     29          1           0       -5.351543    0.735349   -0.722767
     30          1           0       -3.163249    1.880365   -0.769913
     31          1           0        3.699254   -2.028102    1.425615
     32          1           0        3.992970   -0.380061    2.017105
     33          1           0        2.332480   -0.993894    1.896753
 ---------------------------------------------------------------------

 SCF Done:  E(UB3LYP) =  -690.942584169     A.U. after   33 cycles
 SCF Done:  E(UB3LYP) =  -690.942584169     a.u. after    1 cycles

 The electronic state is 2-A.
 Alpha  occ. eigenvalues --  -14.22785 -14.19009 -10.11290 -10.09671 -10.09318
 Alpha  occ. eigenvalues --  -10.06491 -10.06239 -10.05827 -10.05208 -10.04981
 Alpha  occ. eigenvalues --  -10.04080 -10.03809 -10.03042 -10.01745 -10.01378
 Alpha  occ. eigenvalues --  -10.01107  -9.99358  -0.85317  -0.82557  -0.71532
 Alpha  occ. eigenvalues --   -0.69446  -0.65219  -0.63534  -0.63235  -0.57929
 Alpha  occ. eigenvalues --   -0.56258  -0.55062  -0.52159  -0.50590  -0.47690
 Alpha  occ. eigenvalues --   -0.44974  -0.43134  -0.40088  -0.37541  -0.36771
 Alpha  occ. eigenvalues --   -0.35442  -0.34539  -0.33013  -0.32004  -0.31161
 Alpha  occ. eigenvalues --   -0.30934  -0.30399  -0.28997  -0.28477  -0.27601
 Alpha  occ. eigenvalues --   -0.27123  -0.26426  -0.25557  -0.24501  -0.23913
 Alpha  occ. eigenvalues --   -0.22664  -0.21249  -0.19480  -0.18575  -0.17147
 Alpha  occ. eigenvalues --   -0.15608  -0.15094  -0.13008  -0.12349  -0.04432
 Alpha  occ. eigenvalues --    0.05044
 Alpha virt. eigenvalues --    0.07943   0.08211   0.08380   0.08955   0.09130
 Alpha virt. eigenvalues --    0.09961   0.10234   0.10553   0.11381   0.11908
 Alpha virt. eigenvalues --    0.12236   0.12609   0.12769   0.13637   0.13822

  Beta  occ. eigenvalues --  -14.22834 -14.19002 -10.11255 -10.09671 -10.09278
  Beta  occ. eigenvalues --  -10.06474 -10.06252 -10.05759 -10.05239 -10.04668
  Beta  occ. eigenvalues --  -10.04063 -10.03813 -10.02987 -10.01662 -10.01342
  Beta  occ. eigenvalues --  -10.00897  -9.98809  -0.85208  -0.82510  -0.71276
  Beta  occ. eigenvalues --   -0.69271  -0.65162  -0.63359  -0.62907  -0.57429
  Beta  occ. eigenvalues --   -0.56174  -0.54790  -0.52087  -0.50423  -0.47162
  Beta  occ. eigenvalues --   -0.44821  -0.43028  -0.39751  -0.37430  -0.36720
  Beta  occ. eigenvalues --   -0.35265  -0.34380  -0.32894  -0.31964  -0.30960
  Beta  occ. eigenvalues --   -0.30813  -0.30215  -0.28850  -0.28270  -0.27453
  Beta  occ. eigenvalues --   -0.26835  -0.26256  -0.25404  -0.24366  -0.23737
  Beta  occ. eigenvalues --   -0.22529  -0.20963  -0.19292  -0.18078  -0.16946
  Beta  occ. eigenvalues --   -0.15512  -0.15059  -0.11792  -0.11443  -0.02673
  Beta virt. eigenvalues --    0.07893   0.08266   0.08569   0.08982   0.08999
  Beta virt. eigenvalues --    0.09753   0.09985   0.10427   0.11279   0.11543
  Beta virt. eigenvalues --    0.11843   0.12293   0.12628   0.12897   0.13621

 Mulliken charges and spin densities:
               1          2
     1  C   -0.592132   0.006990
     2  C    1.057143   0.115647
     3  C   -0.818821  -0.045713
     4  C   -0.220498   0.237774
     5  C   -0.107087  -0.041735
     6  C   -0.341892  -0.034194
     7  C   -0.672568   0.524648
     8  C   -0.125950   0.067895
     9  C   -0.165716   0.229569
    10  N    0.441133  -0.013680
    11  C   -0.874428  -0.045477
    12  C    0.974116  -0.002968
    13  C   -0.695505   0.001151
    14  N   -0.111748  -0.000359
    15  C   -0.659103   0.004331
    16  C    0.597525   0.001928
    17  C   -0.519345  -0.242836
    18  H    0.117121   0.001123
    19  H    0.110529  -0.001049
    20  H    0.113326   0.006144
    21  H    0.132007   0.004749
    22  H    0.111353   0.007707
    23  H    0.149715  -0.019868
    24  H    0.113685  -0.031912
    25  H    0.119387  -0.004953
    26  H    0.085602  -0.005231
    27  H    0.135806   0.072861
    28  H    0.134044   0.008748
    29  H    0.139747  -0.000006
    30  H    0.148332   0.029583
    31  H    0.018866   0.091113
    32  H    0.056117   0.065823
    33  H    0.149239   0.012198
 Sum of Mulliken charges =  -1.00000   1.00000

 Dipole moment (field-independent basis, Debye):
    X=              0.0849    Y=             -0.1833    Z=             -0.3614  Tot=              0.4140
 Quadrupole moment (field-independent basis, Debye-Ang):
   XX=           -162.1492   YY=           -117.6890   ZZ=           -117.5539
   XY=             -7.9615   XZ=              0.0749   YZ=              0.4336

 Summary of Natural Population Analysis:

                                       Natural Population
                Natural  -----------------------------------------------
    Atom  No    Charge         Core      Valence    Rydberg      Total
 -----------------------------------------------------------------------
      C    1   -0.27421      0.99964     2.26904    0.00553     3.27421
      C    2   -0.06241      0.99958     2.05107    0.01176     3.06241
      C    3   -0.18883      0.99961     2.18115    0.00808     3.18883
      C    4   -0.09425      0.99950     2.08450    0.01025     3.09425
      C    5    0.09270      0.99943     1.89636    0.01151     2.90730
      C    6   -0.05499      0.99949     2.04530    0.01020     3.05499
      C    7    0.02796      0.99946     1.96176    0.01082     2.97204
      C    8   -0.11845      0.99952     2.11064    0.00829     3.11845
      C    9    0.05079      0.99955     1.93736    0.01230     2.94921
      N   10   -0.22777      0.99960     2.71946    0.00871     3.72777
      C   11    0.11446      0.99949     1.87524    0.01080     2.88554
      C   12   -0.14681      0.99953     2.13630    0.01098     3.14681
      C   13    0.03206      0.99960     1.95451    0.01383     2.96794
      N   14   -0.26051      0.99972     2.74868    0.01211     3.76051
      C   15    0.02430      0.99960     1.96224    0.01386     2.97570
      C   16   -0.14338      0.99953     2.13357    0.01028     3.14338
      C   17   -0.27563      0.99963     2.27031    0.00570     3.27563
      H   18    0.09030      0.00000     0.40885    0.00085     0.40970
      H   19    0.09339      0.00000     0.40574    0.00087     0.40661
      H   20    0.09813      0.00000     0.40093    0.00095     0.40187
      H   21    0.09605      0.00000     0.40250    0.00145     0.40395
      H   22    0.09336      0.00000     0.40558    0.00106     0.40664
      H   23    0.09269      0.00000     0.40629    0.00102     0.40731
      H   24    0.08212      0.00000     0.41697    0.00091     0.41788
      H   25    0.09540      0.00000     0.40334    0.00125     0.40460
      H   26    0.08936      0.00000     0.40978    0.00086     0.41064
      H   27    0.11265      0.00000     0.38528    0.00207     0.38735
      H   28    0.08452      0.00000     0.41434    0.00114     0.41548
      H   29    0.08388      0.00000     0.41496    0.00116     0.41612
      H   30    0.10647      0.00000     0.39267    0.00086     0.39353
      H   31    0.08808      0.00000     0.41053    0.00140     0.41192
      H   32    0.09352      0.00000     0.40538    0.00110     0.40648
      H   33    0.10505      0.00000     0.39398    0.00097     0.39495
 =======================================================================
   * Total *    0.00000     16.99248    42.81459    0.19293    60.00000

 Normal termination of Gaussian 16 at Mon Dec 14 17:26:11 2020.
