 Gaussian 16, Revision A.03,

 -----------------------------------------------------------
 # opt freq B3LYP/6-31G(d) empiricaldispersion=gd3bj scf=xqc
 -----------------------------------------------------------

 -------------------------------
 CID_130699384_JID_3043_neutraal
 -------------------------------
 Symbolic Z-matrix:
 Charge =  0 Multiplicity = 1

 SCF Done:  E(RB3LYP) =  -954.186165934     A.U. after   14 cycles
 SCF Done:  E(RB3LYP) =  -954.193708651     A.U. after   13 cycles
 SCF Done:  E(RB3LYP) =  -954.194884443     A.U. after   12 cycles
 SCF Done:  E(RB3LYP) =  -954.196881275     A.U. after   12 cycles
 SCF Done:  E(RB3LYP) =  -954.199868150     A.U. after   12 cycles
 SCF Done:  E(RB3LYP) =  -954.200345233     A.U. after   12 cycles
 SCF Done:  E(RB3LYP) =  -954.200866286     A.U. after   12 cycles
 SCF Done:  E(RB3LYP) =  -954.200921676     A.U. after   11 cycles
 SCF Done:  E(RB3LYP) =  -954.201133449     A.U. after   11 cycles
 SCF Done:  E(RB3LYP) =  -954.201176589     A.U. after   10 cycles
 SCF Done:  E(RB3LYP) =  -954.201189838     A.U. after   10 cycles
 SCF Done:  E(RB3LYP) =  -954.201193557     A.U. after    9 cycles
 SCF Done:  E(RB3LYP) =  -954.201195498     A.U. after    9 cycles
 SCF Done:  E(RB3LYP) =  -954.201195690     A.U. after    7 cycles
 Optimization completed.
    -- Stationary point found.
 Normal termination of Gaussian 16 at Wed Dec  9 22:23:56 2020.

 --------------------------------------------------------------------
 #N Geom=AllCheck Guess=TCheck SCRF=Check GenChk RB3LYP/6-31G(d) Freq
 --------------------------------------------------------------------

 Structure from the checkpoint file:  "JID_3043.chk"
 -------------------------------
 CID_130699384_JID_3043_neutraal
 -------------------------------
 Charge =  0 Multiplicity = 1

 SCF Done:  E(RB3LYP) =  -954.201195690     A.U. after    1 cycles

  Exact polarizability: 159.368  -4.502 131.013  -0.082   6.921  76.235
 Approx polarizability: 226.675  -5.302 218.361   0.884  13.942 113.784

                      1                      2                      3
                      A                      A                      A
 Frequencies --     35.3719                77.4726               142.7323
 Red. masses --      4.8062                 5.7478                 2.4695
 Frc consts  --      0.0035                 0.0203                 0.0296
 IR Inten    --      0.9551                 0.7111                 2.8079

                      4                      5                      6
                      A                      A                      A
 Frequencies --    170.3564               190.2629               213.8114
 Red. masses --      5.1021                 5.4546                 1.4664
 Frc consts  --      0.0872                 0.1163                 0.0395
 IR Inten    --      1.1074                 1.6967                11.7094

                      7                      8                      9
                      A                      A                      A
 Frequencies --    242.2036               258.3855               272.9890
 Red. masses --      1.0866                 2.1405                 3.4316
 Frc consts  --      0.0376                 0.0842                 0.1507
 IR Inten    --      2.7516                 7.8561                 4.2761

                     10                     11                     12
                      A                      A                      A
 Frequencies --    292.2014               317.2872               338.4803
 Red. masses --      3.3114                 2.8041                 2.1193
 Frc consts  --      0.1666                 0.1663                 0.1431
 IR Inten    --      0.6684                 8.7077                19.8053

                     13                     14                     15
                      A                      A                      A
 Frequencies --    350.1783               370.3405               406.0686
 Red. masses --      3.4118                 2.6025                 5.2258
 Frc consts  --      0.2465                 0.2103                 0.5077
 IR Inten    --      2.2104                28.9485                 8.9425

                     16                     17                     18
                      A                      A                      A
 Frequencies --    416.7309               502.9098               530.1380
 Red. masses --      3.4553                 3.6248                 1.5443
 Frc consts  --      0.3535                 0.5401                 0.2557
 IR Inten    --      5.3963                 3.6108                41.2542

                     19                     20                     21
                      A                      A                      A
 Frequencies --    548.4419               562.3040               578.7535
 Red. masses --      2.7376                 2.3917                 4.0228
 Frc consts  --      0.4852                 0.4456                 0.7939
 IR Inten    --      6.0318                22.8141                 2.9760

                     22                     23                     24
                      A                      A                      A
 Frequencies --    603.0496               630.5496               638.1230
 Red. masses --      4.2467                 1.1334                 4.5003
 Frc consts  --      0.9099                 0.2655                 1.0797
 IR Inten    --      0.5566               146.5794                11.2730

                     25                     26                     27
                      A                      A                      A
 Frequencies --    753.7466               772.4741               797.1158
 Red. masses --      3.6407                 5.6620                 1.4232
 Frc consts  --      1.2187                 1.9906                 0.5328
 IR Inten    --     19.4681                 9.7156                24.3684

                     28                     29                     30
                      A                      A                      A
 Frequencies --    847.6899               872.9813               923.6239
 Red. masses --      5.4464                 2.7608                 1.3353
 Frc consts  --      2.3059                 1.2396                 0.6712
 IR Inten    --     21.7247                 9.8736                14.8267

                     31                     32                     33
                      A                      A                      A
 Frequencies --    926.0735               944.9707               950.5660
 Red. masses --      1.4840                 1.4278                 1.5652
 Frc consts  --      0.7499                 0.7512                 0.8333
 IR Inten    --      0.9640                35.5356                35.4769

                     34                     35                     36
                      A                      A                      A
 Frequencies --    997.8028              1022.7751              1077.3007
 Red. masses --      1.2963                 1.3530                 1.7682
 Frc consts  --      0.7604                 0.8339                 1.2091
 IR Inten    --      2.3583                36.7226                16.6155

                     37                     38                     39
                      A                      A                      A
 Frequencies --   1109.1065              1115.9256              1137.0944
 Red. masses --      3.3924                 2.4543                 4.5718
 Frc consts  --      2.4587                 1.8007                 3.4828
 IR Inten    --     94.2075                 9.2210                 3.3066

                     40                     41                     42
                      A                      A                      A
 Frequencies --   1174.7194              1199.1613              1218.1351
 Red. masses --      1.8459                 1.6471                 1.8041
 Frc consts  --      1.5008                 1.3955                 1.5773
 IR Inten    --      3.2523                18.4222                65.9944

                     43                     44                     45
                      A                      A                      A
 Frequencies --   1227.9367              1269.6138              1281.5242
 Red. masses --      1.5298                 1.4963                 2.9382
 Frc consts  --      1.3591                 1.4211                 2.8430
 IR Inten    --      3.7208                15.6844                61.5359

                     46                     47                     48
                      A                      A                      A
 Frequencies --   1309.6175              1369.6132              1395.4099
 Red. masses --      2.4257                 1.8193                 1.8618
 Frc consts  --      2.4512                 2.0107                 2.1359
 IR Inten    --     36.6056                10.2109                45.2700

                     49                     50                     51
                      A                      A                      A
 Frequencies --   1406.2884              1440.2005              1473.9306
 Red. masses --      1.2448                 1.2790                 3.2197
 Frc consts  --      1.4504                 1.5630                 4.1212
 IR Inten    --      5.2459                 9.5428               185.1111

                     52                     53                     54
                      A                      A                      A
 Frequencies --   1484.8243              1516.4206              1522.3748
 Red. masses --      1.2399                 1.8612                 1.1454
 Frc consts  --      1.6106                 2.5216                 1.5640
 IR Inten    --     50.1055                 1.8872                 5.5405

                     55                     56                     57
                      A                      A                      A
 Frequencies --   1523.0385              1532.2719              1633.1403
 Red. masses --      1.0741                 1.1095                 5.9829
 Frc consts  --      1.4680                 1.5348                 9.4017
 IR Inten    --      7.6422                 2.9808                 4.2462

                     58                     59                     60
                      A                      A                      A
 Frequencies --   1652.2431              1690.2363              2634.5474
 Red. masses --      5.5341                 1.0921                 1.0390
 Frc consts  --      8.9011                 1.8383                 4.2488
 IR Inten    --     11.8258                35.7804                20.9832

                     61                     62                     63
                      A                      A                      A
 Frequencies --   2963.5938              3058.4156              3077.3640
 Red. masses --      1.0714                 1.0417                 1.0917
 Frc consts  --      5.5443                 5.7407                 6.0913
 IR Inten    --     72.9978                23.9197                65.2587

                     64                     65                     66
                      A                      A                      A
 Frequencies --   3127.8761              3173.9966              3199.5556
 Red. masses --      1.0987                 1.0996                 1.0876
 Frc consts  --      6.3330                 6.5265                 6.5597
 IR Inten    --     25.4700                 8.3284                 7.2228

                     67                     68                     69
                      A                      A                      A
 Frequencies --   3218.6820              3242.7064              3440.2760
 Red. masses --      1.0948                 1.0909                 1.0515
 Frc consts  --      6.6825                 6.7583                 7.3326
 IR Inten    --      9.5772                 4.1343                 1.3724

                     70                     71                     72
                      A                      A                      A
 Frequencies --   3533.9855              3536.2845              3706.0404
 Red. masses --      1.0647                 1.0900                 1.0640
 Frc consts  --      7.8345                 8.0311                 8.6104
 IR Inten    --    204.6905                 1.8523               196.3387

 - Thermochemistry -
 -------------------
 Temperature   298.150 Kelvin.  Pressure   1.00000 Atm.
 Atom     1 has atomic number  6 and mass  12.00000

 Molecular mass:   199.06670 amu.
 Principal axes and moments of inertia in atomic units:
                           1         2         3
     Eigenvalues --  1622.689123484.801724632.82926
           X            0.99999   0.00319  -0.00090
           Y           -0.00318   0.99991   0.01279
           Z            0.00094  -0.01279   0.99992
 This molecule is an asymmetric top.
 Rotational symmetry number  1.
 Warning -- assumption of classical behavior for rotation
           may cause significant error
 Rotational temperatures (Kelvin)      0.05338     0.02485     0.01870
 Rotational constants (GHZ):           1.11219     0.51789     0.38955
 Zero-point vibrational energy     557294.8 (Joules/Mol)
                                  133.19665 (Kcal/Mol)
 Warning -- explicit consideration of  22 degrees of freedom as
           vibrations may cause significant error
 Vibrational temperatures:     50.89   111.47   205.36   245.10   273.75
          (Kelvin)            307.63   348.48   371.76   392.77   420.41
                              456.51   487.00   503.83   532.84   584.24
                              599.58   723.57   762.75   789.09   809.03
                              832.70   867.65   907.22   918.12  1084.47
                             1111.42  1146.87  1219.64  1256.03  1328.89
                             1332.41  1359.60  1367.65  1435.62  1471.55
                             1550.00  1595.76  1605.57  1636.03  1690.16
                             1725.33  1752.62  1766.73  1826.69  1843.83
                             1884.25  1970.57  2007.68  2023.34  2072.13
                             2120.66  2136.33  2181.79  2190.36  2191.31
                             2204.60  2349.72  2377.21  2431.87  3790.53
                             4263.95  4400.38  4427.64  4500.32  4566.67
                             4603.45  4630.97  4665.53  4949.79  5084.62
                             5087.92  5332.17

 Zero-point correction=                           0.212262 (Hartree/Particle)
 Thermal correction to Energy=                    0.225366
 Thermal correction to Enthalpy=                  0.226311
 Thermal correction to Gibbs Free Energy=         0.173200
 Sum of electronic and zero-point Energies=           -953.988933
 Sum of electronic and thermal Energies=              -953.975829
 Sum of electronic and thermal Enthalpies=            -953.974885
 Sum of electronic and thermal Free Energies=         -954.027996

                     E (Thermal)             CV                S
                      KCal/Mol        Cal/Mol-Kelvin    Cal/Mol-Kelvin
 Total                  141.420             51.337            111.781
 Electronic               0.000              0.000              0.000
 Translational            0.889              2.981             41.770
 Rotational               0.889              2.981             31.638
 Vibrational            139.642             45.376             38.372
 Vibration     1          0.594              1.982              5.503
 Vibration     2          0.599              1.964              3.954
 Vibration     3          0.616              1.910              2.767
 Vibration     4          0.625              1.879              2.432
 Vibration     5          0.634              1.853              2.225
 Vibration     6          0.644              1.820              2.011
 Vibration     7          0.658              1.776              1.787
 Vibration     8          0.667              1.749              1.673
 Vibration     9          0.676              1.723              1.577
 Vibration    10          0.688              1.688              1.461
 Vibration    11          0.704              1.641              1.324
 Vibration    12          0.719              1.599              1.219
 Vibration    13          0.727              1.575              1.165
 Vibration    14          0.742              1.533              1.078
 Vibration    15          0.771              1.457              0.941
 Vibration    16          0.780              1.434              0.903
 Vibration    17          0.858              1.244              0.651
 Vibration    18          0.885              1.183              0.587
 Vibration    19          0.904              1.143              0.547
 Vibration    20          0.918              1.113              0.519
 Vibration    21          0.935              1.077              0.488
 Vibration    22          0.961              1.025              0.444

 Optimization completed.
    -- Stationary point found.
 Normal termination of Gaussian 16 at Wed Dec  9 22:31:02 2020.

 ----------------------------------------------------------------------
 # B3LYP/6-311++G(d,p) empiricaldispersion=gd3bj scf=xqc pop=npa geom=c
 heck
 ----------------------------------------------------------------------

 ---------------------------------------
 CID_130699384_JID_3043_Energie_neutraal
 ---------------------------------------
 Structure from the checkpoint file:  "JID_3043.chk"
 Charge =  0 Multiplicity = 1

 SCF Done:  E(RB3LYP) =  -954.408029110     A.U. after   15 cycles
 Normal termination of Gaussian 16 at Wed Dec  9 22:33:41 2020.

 ----------------------------------------------------------------------
 # B3LYP/6-311++G(d,p) empiricaldispersion=gd3bj scf=xqc pop=npa geom=c
 heck
 ----------------------------------------------------------------------

 -------------------------------------
 CID_130699384_JID_3043_Energie_kation
 -------------------------------------
 Structure from the checkpoint file:  "JID_3043.chk"
 Charge =  1 Multiplicity = 2

 SCF Done:  E(UB3LYP) =  -954.104142179     A.U. after   27 cycles
 Normal termination of Gaussian 16 at Wed Dec  9 22:40:11 2020.
 Gaussian 16:  ES64L-G16RevA.03 25-Dec-2016

 ----------------------------------------------------------------------
 # B3LYP/6-311++G(d,p) empiricaldispersion=gd3bj scf=xqc pop=npa geom=c
 heck
 ----------------------------------------------------------------------

 ------------------------------------
 CID_130699384_JID_3043_Energie_anion
 ------------------------------------
 Structure from the checkpoint file:  "JID_3043.chk"
 Charge = -1 Multiplicity = 2

                         Standard orientation:
 ---------------------------------------------------------------------
 Center     Atomic      Atomic             Coordinates (Angstroms)
 Number     Number       Type             X           Y           Z
 ---------------------------------------------------------------------
      1          6           0       -2.235144   -0.279997   -1.543540
      2          6           0       -1.939168    0.243729   -0.130787
      3          6           0       -2.369915   -0.815959    0.940492
      4          8           0       -2.174617   -2.173858    0.622471
      5          6           0       -0.456294    0.656293   -0.018145
      6          6           0        0.607515   -0.266891   -0.059122
      7          6           0        1.944974    0.163242    0.028708
      8          6           0        2.245606    1.518158    0.175761
      9          6           0        1.210411    2.443346    0.199582
     10          6           0       -0.111405    2.008001    0.094646
     11         16           0        3.257549   -1.069186    0.017144
     12          8           0        0.339311   -1.601290   -0.210592
     13          7           0       -2.755579    1.460049    0.070373
     14          1           0       -1.620714   -1.150556   -1.775922
     15          1           0       -2.040850    0.508472   -2.276436
     16          1           0       -3.285254   -0.586524   -1.620062
     17          1           0       -1.901769   -0.542797    1.903611
     18          1           0       -3.453008   -0.704602    1.064147
     19          1           0       -1.225812   -2.281210    0.440097
     20          1           0        3.282296    1.826507    0.261829
     21          1           0        1.425956    3.503034    0.295574
     22          1           0       -0.917541    2.730568    0.081654
     23          1           0        3.483103   -1.100209   -1.317631
     24          1           0        1.195879   -2.076118   -0.153929
     25          1           0       -3.723106    1.229002   -0.150963
     26          1           0       -2.747945    1.712724    1.060520
 ---------------------------------------------------------------------

 SCF Done:  E(UB3LYP) =  -954.400418057     A.U. after   31 cycles

 The electronic state is 2-A.
 Alpha  occ. eigenvalues --  -88.73792 -19.05473 -19.00621 -14.19777 -10.13328
 Alpha  occ. eigenvalues --  -10.11450 -10.11069 -10.09005 -10.07197 -10.06604
 Alpha  occ. eigenvalues --  -10.06118 -10.05713 -10.05463  -7.82500  -5.78838
 Alpha  occ. eigenvalues --   -5.78486  -5.77944  -0.96743  -0.91365  -0.80234
 Alpha  occ. eigenvalues --   -0.74755  -0.67818  -0.65352  -0.62083  -0.59433
 Alpha  occ. eigenvalues --   -0.57812  -0.52045  -0.50505  -0.45729  -0.43618
 Alpha  occ. eigenvalues --   -0.41364  -0.40220  -0.36948  -0.36519  -0.35453
 Alpha  occ. eigenvalues --   -0.33731  -0.32904  -0.31761  -0.30863  -0.29680
 Alpha  occ. eigenvalues --   -0.28671  -0.27096  -0.26991  -0.25910  -0.24543
 Alpha  occ. eigenvalues --   -0.23996  -0.22157  -0.21691  -0.18609  -0.15047
 Alpha  occ. eigenvalues --   -0.14654  -0.13964  -0.12312   0.04607
 Alpha virt. eigenvalues --    0.06389   0.08047   0.08284   0.08946   0.09693
 Alpha virt. eigenvalues --    0.09849   0.10294   0.10999   0.11376   0.11995
 Alpha virt. eigenvalues --    0.12209   0.12835   0.13358   0.14212   0.15376

  Beta  occ. eigenvalues --  -88.73748 -19.05458 -19.00617 -14.19752 -10.13312
  Beta  occ. eigenvalues --  -10.11452 -10.11058 -10.08930 -10.07167 -10.06535
  Beta  occ. eigenvalues --  -10.06142 -10.05615 -10.05442  -7.82446  -5.78767
  Beta  occ. eigenvalues --   -5.78448  -5.77903  -0.96708  -0.91355  -0.80191
  Beta  occ. eigenvalues --   -0.74624  -0.67623  -0.65244  -0.62010  -0.59215
  Beta  occ. eigenvalues --   -0.57782  -0.51965  -0.50398  -0.45663  -0.43506
  Beta  occ. eigenvalues --   -0.41333  -0.40184  -0.36886  -0.36436  -0.35408
  Beta  occ. eigenvalues --   -0.33693  -0.32635  -0.31631  -0.30822  -0.29608
  Beta  occ. eigenvalues --   -0.28591  -0.27044  -0.26861  -0.25850  -0.24458
  Beta  occ. eigenvalues --   -0.23829  -0.21985  -0.21641  -0.18592  -0.14926
  Beta  occ. eigenvalues --   -0.14387  -0.13651  -0.12075
  Beta virt. eigenvalues --    0.06791   0.07891   0.08228   0.08935   0.09179
  Beta virt. eigenvalues --    0.09951   0.10039   0.10423   0.11075   0.11801
  Beta virt. eigenvalues --    0.12229   0.12413   0.12995   0.13379   0.14504

 Mulliken charges and spin densities:
               1          2
     1  C   -0.101737  -0.474282
     2  C   -0.124812   0.529020
     3  C   -0.022473  -0.413201
     4  O   -0.256807   0.013851
     5  C    0.065031   0.674779
     6  C    0.160152  -0.399634
     7  C    0.637566  -0.370333
     8  C   -1.028737   0.909331
     9  C   -0.829761   0.255356
    10  C   -0.124186  -0.252831
    11  S    1.991890  -2.610874
    12  O   -0.250013   0.017760
    13  N   -0.338522  -0.041528
    14  H    0.068489   0.091261
    15  H    0.009311   0.138100
    16  H    0.008849   0.140486
    17  H   -0.034988   0.183482
    18  H    0.034751   0.136101
    19  H    0.276499  -0.017040
    20  H   -0.200929   0.355901
    21  H   -0.054771   0.198780
    22  H    0.236654  -0.047655
    23  H   -1.090470   1.220550
    24  H   -0.080863   0.328691
    25  H    0.069893   0.181086
    26  H   -0.020017   0.252844
 Sum of Mulliken charges =  -1.00000   1.00000

 Dipole moment (field-independent basis, Debye):
    X=             -3.4467    Y=              1.3996    Z=              2.5342  Tot=              4.5012
 Quadrupole moment (field-independent basis, Debye-Ang):
   XX=           -146.7760   YY=           -117.4307   ZZ=           -115.3095
   XY=              3.7687   XZ=             11.2304   YZ=             -1.6617

 Summary of Natural Population Analysis:

                                       Natural Population
                Natural  -----------------------------------------------
    Atom  No    Charge         Core      Valence    Rydberg      Total
 -----------------------------------------------------------------------
      C    1   -0.28698      0.99962     2.28055    0.00681     3.28698
      C    2    0.03740      0.99956     1.94868    0.01435     2.96260
      C    3   -0.00873      0.99954     1.99595    0.01323     3.00873
      O    4   -0.38049      0.99989     3.37313    0.00746     4.38049
      C    5   -0.03884      0.99943     2.02635    0.01305     3.03884
      C    6    0.15985      0.99927     1.82619    0.01469     2.84015
      C    7   -0.10445      0.99937     2.09193    0.01315     3.10445
      C    8   -0.08211      0.99949     2.07206    0.01056     3.08211
      C    9   -0.11891      0.99955     2.10968    0.00968     3.11891
      C   10   -0.07338      0.99952     2.06525    0.00861     3.07338
      S   11   -0.01623      4.99958     2.99994    0.01670     8.01623
      O   12   -0.36805      0.99986     3.36003    0.00816     4.36805
      N   13   -0.42290      0.99976     2.91122    0.01191     3.92290
      H   14    0.11173      0.00000     0.38695    0.00132     0.38827
      H   15    0.10339      0.00000     0.39558    0.00103     0.39661
      H   16    0.09555      0.00000     0.40347    0.00098     0.40445
      H   17    0.07688      0.00000     0.42178    0.00134     0.42312
      H   18    0.08106      0.00000     0.41748    0.00146     0.41894
      H   19    0.24199      0.00000     0.25453    0.00348     0.25801
      H   20    0.10310      0.00000     0.39585    0.00106     0.39690
      H   21    0.09738      0.00000     0.40181    0.00081     0.40262
      H   22    0.11033      0.00000     0.38828    0.00139     0.38967
      H   23    0.08710      0.00000     0.38966    0.02324     0.41290
      H   24    0.24625      0.00000     0.24945    0.00430     0.25375
      H   25    0.17446      0.00000     0.32377    0.00177     0.32554
      H   26    0.17461      0.00000     0.32344    0.00195     0.32539
 =======================================================================
   * Total *    0.00000     16.99447    35.81302    0.19252    53.00000

 Normal termination of Gaussian 16 at Wed Dec  9 22:47:39 2020.
