 Gaussian 16, Revision A.03,

 -----------------------------------------------------------
 # opt freq B3LYP/6-31G(d) empiricaldispersion=gd3bj scf=xqc
 -----------------------------------------------------------

 -------------------------------
 CID_104536085_JID_6307_neutraal
 -------------------------------
 Symbolic Z-matrix:
 Charge =  0 Multiplicity = 1

 SCF Done:  E(RB3LYP) =  -725.657896515     A.U. after   14 cycles
 SCF Done:  E(RB3LYP) =  -725.664909367     A.U. after   12 cycles
 SCF Done:  E(RB3LYP) =  -725.666847121     A.U. after   12 cycles
 SCF Done:  E(RB3LYP) =  -725.667511537     A.U. after   13 cycles
 SCF Done:  E(RB3LYP) =  -725.668060507     A.U. after   12 cycles
 SCF Done:  E(RB3LYP) =  -725.668169616     A.U. after   11 cycles
 SCF Done:  E(RB3LYP) =  -725.668311672     A.U. after   12 cycles
 SCF Done:  E(RB3LYP) =  -725.668442166     A.U. after   11 cycles
 SCF Done:  E(RB3LYP) =  -725.668481166     A.U. after   10 cycles
 SCF Done:  E(RB3LYP) =  -725.668497641     A.U. after   10 cycles
 SCF Done:  E(RB3LYP) =  -725.668518587     A.U. after   10 cycles
 SCF Done:  E(RB3LYP) =  -725.668519254     A.U. after    8 cycles
 SCF Done:  E(RB3LYP) =  -725.668519440     A.U. after    8 cycles
 SCF Done:  E(RB3LYP) =  -725.668519541     A.U. after    7 cycles
 SCF Done:  E(RB3LYP) =  -725.668519587     A.U. after    7 cycles
 Optimization completed.
    -- Stationary point found.
 Normal termination of Gaussian 16 at Thu Dec 10 22:07:12 2020.

 --------------------------------------------------------------------
 #N Geom=AllCheck Guess=TCheck SCRF=Check GenChk RB3LYP/6-31G(d) Freq
 --------------------------------------------------------------------

 Structure from the checkpoint file:  "JID_6307.chk"
 -------------------------------
 CID_104536085_JID_6307_neutraal
 -------------------------------
 Charge =  0 Multiplicity = 1

 SCF Done:  E(RB3LYP) =  -725.668519587     A.U. after    1 cycles

  Exact polarizability: 142.152  -3.364 164.133   5.535  -7.439 101.066
 Approx polarizability: 204.159   2.346 266.288  16.055 -23.225 173.648

                      1                      2                      3
                      A                      A                      A
 Frequencies --     27.1989                35.2163                54.3054
 Red. masses --      4.2243                 4.3678                 5.0684
 Frc consts  --      0.0018                 0.0032                 0.0088
 IR Inten    --      0.3071                 0.8511                 0.6324

                      4                      5                      6
                      A                      A                      A
 Frequencies --     73.5718                86.3254               144.8700
 Red. masses --      4.2013                 3.4310                 3.6169
 Frc consts  --      0.0134                 0.0151                 0.0447
 IR Inten    --      0.9576                 0.3796                 2.1424

                      7                      8                      9
                      A                      A                      A
 Frequencies --    156.1329               215.1152               226.0277
 Red. masses --      3.1398                 1.5837                 2.8224
 Frc consts  --      0.0451                 0.0432                 0.0850
 IR Inten    --      0.6764                 0.3483                 0.1618

                     10                     11                     12
                      A                      A                      A
 Frequencies --    255.6644               271.7620               328.7744
 Red. masses --      5.2075                 2.4367                 2.4804
 Frc consts  --      0.2005                 0.1060                 0.1580
 IR Inten    --      0.7606                 1.7543                 8.6564

                     13                     14                     15
                      A                      A                      A
 Frequencies --    353.8155               382.7925               464.0638
 Red. masses --      2.6345                 2.7213                 3.4552
 Frc consts  --      0.1943                 0.2349                 0.4384
 IR Inten    --      1.3085                 3.6459                 9.9469

                     16                     17                     18
                      A                      A                      A
 Frequencies --    489.8031               509.8416               525.3845
 Red. masses --      3.6648                 5.1053                 3.6048
 Frc consts  --      0.5180                 0.7819                 0.5862
 IR Inten    --      5.9531                12.2047                68.0073

                     19                     20                     21
                      A                      A                      A
 Frequencies --    574.9090               611.7614               626.4803
 Red. masses --      3.4513                 3.3180                 2.4756
 Frc consts  --      0.6721                 0.7316                 0.5725
 IR Inten    --     50.7851                 9.1027                30.4071

                     22                     23                     24
                      A                      A                      A
 Frequencies --    634.4240               644.0289               721.9480
 Red. masses --      4.9651                 4.4185                 2.4663
 Frc consts  --      1.1774                 1.0798                 0.7574
 IR Inten    --      4.0169                 4.4949                10.0459

                     25                     26                     27
                      A                      A                      A
 Frequencies --    725.4002               733.4730               751.8072
 Red. masses --      3.1867                 1.6785                 2.8607
 Frc consts  --      0.9880                 0.5320                 0.9527
 IR Inten    --     13.8677                25.2102                28.4185

                     28                     29                     30
                      A                      A                      A
 Frequencies --    814.5421               820.8783               853.3142
 Red. masses --      1.2647                 1.2671                 1.5466
 Frc consts  --      0.4944                 0.5031                 0.6635
 IR Inten    --      7.3055                24.2479                36.8817

                     31                     32                     33
                      A                      A                      A
 Frequencies --    868.2341               872.5742               897.3826
 Red. masses --      1.3957                 1.3006                 1.4585
 Frc consts  --      0.6199                 0.5835                 0.6920
 IR Inten    --     17.2006                 0.8752                 0.8376

                     34                     35                     36
                      A                      A                      A
 Frequencies --    908.6103               909.0497               955.4783
 Red. masses --      4.5576                 2.5003                 3.5187
 Frc consts  --      2.2169                 1.2174                 1.8927
 IR Inten    --      2.5572                 4.4538                10.3757

                     37                     38                     39
                      A                      A                      A
 Frequencies --    988.0694              1016.6225              1032.6636
 Red. masses --      2.8290                 2.0408                 4.8014
 Frc consts  --      1.6272                 1.2427                 3.0167
 IR Inten    --      6.6213                20.4241                 3.7052

                     40                     41                     42
                      A                      A                      A
 Frequencies --   1049.1691              1066.6035              1087.1038
 Red. masses --      1.4498                 3.8880                 2.7091
 Frc consts  --      0.9403                 2.6061                 1.8864
 IR Inten    --      8.8598                68.8729                24.0223

                     43                     44                     45
                      A                      A                      A
 Frequencies --   1117.3742              1136.5281              1171.3889
 Red. masses --      3.0269                 2.0663                 1.8031
 Frc consts  --      2.2266                 1.5725                 1.4577
 IR Inten    --      4.0784                17.0669                 2.9158

                     46                     47                     48
                      A                      A                      A
 Frequencies --   1181.4032              1215.6481              1228.9371
 Red. masses --      1.8240                 1.8428                 2.9586
 Frc consts  --      1.4999                 1.6045                 2.6326
 IR Inten    --     16.6697                31.3766                16.7128

                     49                     50                     51
                      A                      A                      A
 Frequencies --   1230.8191              1264.9125              1301.4673
 Red. masses --      2.0793                 1.7081                 2.1413
 Frc consts  --      1.8559                 1.6102                 2.1370
 IR Inten    --    192.2130                12.6280                12.5877

                     52                     53                     54
                      A                      A                      A
 Frequencies --   1324.1844              1345.5080              1348.6428
 Red. masses --      1.2713                 1.6129                 2.3456
 Frc consts  --      1.3134                 1.7204                 2.5136
 IR Inten    --     22.2969                28.3264               132.3742

                     55                     56                     57
                      A                      A                      A
 Frequencies --   1372.1678              1406.2609              1410.5375
 Red. masses --      1.4453                 1.3056                 1.5285
 Frc consts  --      1.6033                 1.5212                 1.7918
 IR Inten    --      1.5725                 1.4251                15.4560

                     58                     59                     60
                      A                      A                      A
 Frequencies --   1438.0124              1447.5813              1477.3748
 Red. masses --      1.2582                 2.1119                 2.1720
 Frc consts  --      1.5329                 2.6074                 2.7931
 IR Inten    --      6.3954                17.1737                31.4476

                     61                     62                     63
                      A                      A                      A
 Frequencies --   1513.1776              1519.1266              1524.1491
 Red. masses --      1.7065                 1.0733                 1.0706
 Frc consts  --      2.3021                 1.4594                 1.4653
 IR Inten    --     28.8785                15.6714                 1.9258

                     64                     65                     66
                      A                      A                      A
 Frequencies --   1530.2680              1541.3118              1542.8449
 Red. masses --      1.4961                 1.5781                 2.3729
 Frc consts  --      2.0642                 2.2089                 3.3280
 IR Inten    --     34.9432                29.0788                 4.9750

                     67                     68                     69
                      A                      A                      A
 Frequencies --   1552.1377              1633.5951              1649.9866
 Red. masses --      1.7310                 4.5474                 6.0325
 Frc consts  --      2.4570                 7.1499                 9.6763
 IR Inten    --     66.5560                28.5040                54.0555

                     70                     71                     72
                      A                      A                      A
 Frequencies --   1652.1854              3050.6219              3050.9363
 Red. masses --      5.4435                 1.0648                 1.0371
 Frc consts  --      8.7548                 5.8386                 5.6877
 IR Inten    --    136.7262                32.9626                21.2989

                     73                     74                     75
                      A                      A                      A
 Frequencies --   3063.2965              3096.7640              3113.0892
 Red. masses --      1.0615                 1.1035                 1.1000
 Frc consts  --      5.8685                 6.2351                 6.2807
 IR Inten    --     36.7238                16.4168                17.5700

                     76                     77                     78
                      A                      A                      A
 Frequencies --   3116.0898              3141.2820              3145.1682
 Red. masses --      1.1026                 1.1013                 1.0891
 Frc consts  --      6.3080                 6.4029                 6.3476
 IR Inten    --     37.5379                28.6859                41.8360

                     79                     80                     81
                      A                      A                      A
 Frequencies --   3192.7459              3266.1872              3268.3240
 Red. masses --      1.0908                 1.0893                 1.0909
 Frc consts  --      6.5515                 6.8467                 6.8660
 IR Inten    --     13.1534                 1.8156                 2.8804

                     82                     83                     84
                      A                      A                      A
 Frequencies --   3280.8673              3305.3156              3575.5940
 Red. masses --      1.0980                 1.1047                 1.0753
 Frc consts  --      6.9633                 7.1106                 8.0996
 IR Inten    --      0.3153                 0.7423                 8.5165

 - Thermochemistry -
 -------------------
 Temperature   298.150 Kelvin.  Pressure   1.00000 Atm.
 Atom     1 has atomic number  6 and mass  12.00000

 Molecular mass:   218.10553 amu.
 Principal axes and moments of inertia in atomic units:
                           1         2         3
     Eigenvalues --  2588.719433903.992505670.93372
           X            0.99967   0.02540  -0.00389
           Y           -0.02538   0.99966   0.00581
           Z            0.00403  -0.00570   0.99998
 This molecule is an asymmetric top.
 Rotational symmetry number  1.
 Warning -- assumption of classical behavior for rotation
           may cause significant error
 Rotational temperatures (Kelvin)      0.03346     0.02219     0.01527
 Rotational constants (GHZ):           0.69716     0.46228     0.31824
 Zero-point vibrational energy     649028.0 (Joules/Mol)
                                  155.12141 (Kcal/Mol)
 Warning -- explicit consideration of  20 degrees of freedom as
           vibrations may cause significant error
 Vibrational temperatures:     39.13    50.67    78.13   105.85   124.20
          (Kelvin)            208.44   224.64   309.50   325.20   367.84
                              391.00   473.03   509.06   550.75   667.68
                              704.72   733.55   755.91   827.17   880.19
                              901.37   912.79   926.61  1038.72  1043.69
                             1055.30  1081.68  1171.94  1181.06  1227.73
                             1249.20  1255.44  1291.13  1307.29  1307.92
                             1374.72  1421.61  1462.69  1485.77  1509.52
                             1534.60  1564.10  1607.65  1635.21  1685.37
                             1699.78  1749.05  1768.17  1770.87  1819.93
                             1872.52  1905.21  1935.89  1940.40  1974.24
                             2023.30  2029.45  2068.98  2082.75  2125.61
                             2177.13  2185.68  2192.91  2201.71  2217.60
                             2219.81  2233.18  2350.38  2373.96  2377.13
                             4389.16  4389.62  4407.40  4455.55  4479.04
                             4483.36  4519.60  4525.20  4593.65  4699.31
                             4702.39  4720.44  4755.61  5144.48

 Zero-point correction=                           0.247202 (Hartree/Particle)
 Thermal correction to Energy=                    0.261549
 Thermal correction to Enthalpy=                  0.262494
 Thermal correction to Gibbs Free Energy=         0.204163
 Sum of electronic and zero-point Energies=           -725.421318
 Sum of electronic and thermal Energies=              -725.406970
 Sum of electronic and thermal Enthalpies=            -725.406026
 Sum of electronic and thermal Free Energies=         -725.464357

                     E (Thermal)             CV                S
                      KCal/Mol        Cal/Mol-Kelvin    Cal/Mol-Kelvin
 Total                  164.125             54.727            122.767
 Electronic               0.000              0.000              0.000
 Translational            0.889              2.981             42.042
 Rotational               0.889              2.981             32.416
 Vibrational            162.347             48.765             48.309
 Vibration     1          0.593              1.984              6.024
 Vibration     2          0.594              1.982              5.512
 Vibration     3          0.596              1.976              4.654
 Vibration     4          0.599              1.966              4.055
 Vibration     5          0.601              1.959              3.742
 Vibration     6          0.616              1.908              2.739
 Vibration     7          0.620              1.896              2.596
 Vibration     8          0.645              1.818              2.000
 Vibration     9          0.650              1.801              1.910
 Vibration    10          0.666              1.753              1.691
 Vibration    11          0.675              1.725              1.585
 Vibration    12          0.712              1.618              1.266
 Vibration    13          0.730              1.567              1.149
 Vibration    14          0.752              1.507              1.028
 Vibration    15          0.822              1.330              0.754
 Vibration    16          0.846              1.273              0.684
 Vibration    17          0.865              1.228              0.634
 Vibration    18          0.880              1.194              0.598
 Vibration    19          0.931              1.086              0.495
 Vibration    20          0.971              1.007              0.430

 Optimization completed.
    -- Stationary point found.
 Normal termination of Gaussian 16 at Thu Dec 10 22:17:04 2020.

 ----------------------------------------------------------------------
 # B3LYP/6-311++G(d,p) empiricaldispersion=gd3bj scf=xqc pop=npa geom=c
 heck
 ----------------------------------------------------------------------

 ---------------------------------------
 CID_104536085_JID_6307_Energie_neutraal
 ---------------------------------------
 Structure from the checkpoint file:  "JID_6307.chk"
 Charge =  0 Multiplicity = 1

 SCF Done:  E(RB3LYP) =  -725.867280034     A.U. after   15 cycles
 Normal termination of Gaussian 16 at Thu Dec 10 22:20:44 2020.

 ----------------------------------------------------------------------
 # B3LYP/6-311++G(d,p) empiricaldispersion=gd3bj scf=xqc pop=npa geom=c
 heck
 ----------------------------------------------------------------------

 -------------------------------------
 CID_104536085_JID_6307_Energie_kation
 -------------------------------------
 Structure from the checkpoint file:  "JID_6307.chk"
 Charge =  1 Multiplicity = 2

 SCF Done:  E(UB3LYP) =  -725.596263305     A.U. after   22 cycles
 Normal termination of Gaussian 16 at Thu Dec 10 22:28:00 2020.
 Gaussian 16:  ES64L-G16RevA.03 25-Dec-2016

 ----------------------------------------------------------------------
 # B3LYP/6-311++G(d,p) empiricaldispersion=gd3bj scf=xqc pop=npa geom=c
 heck
 ----------------------------------------------------------------------

 ------------------------------------
 CID_104536085_JID_6307_Energie_anion
 ------------------------------------
 Structure from the checkpoint file:  "JID_6307.chk"
 Charge = -1 Multiplicity = 2

                         Standard orientation:
 ---------------------------------------------------------------------
 Center     Atomic      Atomic             Coordinates (Angstroms)
 Number     Number       Type             X           Y           Z
 ---------------------------------------------------------------------
      1          6           0        0.226090    2.946233    0.556847
      2          6           0        1.108318    2.719165   -0.676280
      3          7           0        2.237562    1.821039   -0.460922
      4          6           0        2.053572    0.480288   -0.146122
      5          6           0        0.885348   -0.217570   -0.494548
      6          6           0        0.797242   -1.569507   -0.168645
      7          6           0        1.868976   -2.191519    0.486142
      8          7           0        2.980679   -1.532543    0.812519
      9          6           0        3.070101   -0.238264    0.510251
     10          8           0       -0.279669   -2.368716   -0.439601
     11          6           0       -1.407848   -1.794550   -1.097306
     12          6           0       -2.132196   -0.793051   -0.256410
     13          6           0       -2.568466   -0.789966    1.034529
     14          6           0       -3.140292    0.504311    1.270428
     15          6           0       -3.012486    1.194798    0.104419
     16          8           0       -2.395420    0.422278   -0.838043
     17          1           0       -0.203654    2.006426    0.915520
     18          1           0       -0.599361    3.627768    0.320487
     19          1           0        0.808772    3.388277    1.373330
     20          1           0        0.506974    2.327999   -1.504588
     21          1           0        1.521980    3.670725   -1.026933
     22          1           0        3.001525    2.245356    0.050909
     23          1           0        0.072804    0.296017   -0.986851
     24          1           0        1.802112   -3.245138    0.744538
     25          1           0        3.990995    0.270072    0.797349
     26          1           0       -1.117788   -1.325547   -2.046501
     27          1           0       -2.041234   -2.656436   -1.325043
     28          1           0       -2.478931   -1.606835    1.736252
     29          1           0       -3.586075    0.865428    2.186426
     30          1           0       -3.295257    2.185702   -0.214753
 ---------------------------------------------------------------------

 SCF Done:  E(UB3LYP) =  -725.855650385     A.U. after   33 cycles
 SCF Done:  E(UB3LYP) =  -725.855650385     a.u. after    1 cycles

 The electronic state is 2-A.
 Alpha  occ. eigenvalues --  -19.10825 -19.07502 -14.23128 -14.21825 -10.16043
 Alpha  occ. eigenvalues --  -10.14986 -10.14386 -10.13586 -10.12881 -10.10641
 Alpha  occ. eigenvalues --  -10.10003 -10.09867 -10.09007 -10.08783 -10.08640
 Alpha  occ. eigenvalues --  -10.05871  -1.03103  -0.99008  -0.85830  -0.83149
 Alpha  occ. eigenvalues --   -0.72226  -0.71179  -0.69551  -0.66966  -0.63656
 Alpha  occ. eigenvalues --   -0.60764  -0.55261  -0.53644  -0.51931  -0.50792
 Alpha  occ. eigenvalues --   -0.48011  -0.46623  -0.43914  -0.43083  -0.41186
 Alpha  occ. eigenvalues --   -0.39718  -0.38238  -0.38025  -0.36576  -0.34733
 Alpha  occ. eigenvalues --   -0.33742  -0.33422  -0.32712  -0.31850  -0.31535
 Alpha  occ. eigenvalues --   -0.30576  -0.30016  -0.29510  -0.27365  -0.26391
 Alpha  occ. eigenvalues --   -0.26125  -0.25230  -0.22296  -0.20129  -0.16823
 Alpha  occ. eigenvalues --   -0.15963  -0.14717  -0.11318   0.04121
 Alpha virt. eigenvalues --    0.05945   0.06468   0.06615   0.07147   0.07734
 Alpha virt. eigenvalues --    0.08565   0.08900   0.08994   0.09258   0.09637
 Alpha virt. eigenvalues --    0.10108   0.11154   0.11897   0.12342   0.12942

  Beta  occ. eigenvalues --  -19.10819 -19.07501 -14.23108 -14.21823 -10.16032
  Beta  occ. eigenvalues --  -10.14987 -10.14383 -10.13561 -10.12879 -10.10613
  Beta  occ. eigenvalues --  -10.09996 -10.09863 -10.08997 -10.08770 -10.08627
  Beta  occ. eigenvalues --  -10.05833  -1.03089  -0.99005  -0.85810  -0.83123
  Beta  occ. eigenvalues --   -0.72208  -0.71159  -0.69526  -0.66937  -0.63613
  Beta  occ. eigenvalues --   -0.60735  -0.55215  -0.53620  -0.51903  -0.50730
  Beta  occ. eigenvalues --   -0.47973  -0.46592  -0.43872  -0.43062  -0.41167
  Beta  occ. eigenvalues --   -0.39684  -0.38206  -0.37994  -0.36536  -0.34701
  Beta  occ. eigenvalues --   -0.33713  -0.33392  -0.32674  -0.31817  -0.31516
  Beta  occ. eigenvalues --   -0.30543  -0.29998  -0.29487  -0.27314  -0.26380
  Beta  occ. eigenvalues --   -0.26108  -0.25190  -0.22265  -0.20111  -0.16814
  Beta  occ. eigenvalues --   -0.15943  -0.14690  -0.11301
  Beta virt. eigenvalues --    0.06242   0.06564   0.07067   0.07369   0.07623
  Beta virt. eigenvalues --    0.08200   0.08827   0.09184   0.09360   0.09676
  Beta virt. eigenvalues --    0.10020   0.10550   0.11679   0.11920   0.12649

 Mulliken charges and spin densities:
               1          2
     1  C    0.409197  -0.797287
     2  C    0.196314  -0.603676
     3  N    0.017966  -0.019207
     4  C   -0.672741   0.196795
     5  C    2.166597  -1.086770
     6  C   -0.620390   0.080652
     7  C   -0.241303  -0.111346
     8  N   -0.082078   0.003264
     9  C   -0.901592   0.569869
    10  O   -0.045773  -0.001554
    11  C    1.242922  -2.087554
    12  C    0.419219  -0.401022
    13  C   -1.592725   1.790330
    14  C    1.543583  -1.947149
    15  C   -0.128878   0.196076
    16  O   -0.002384   0.034285
    17  H    0.181243  -0.039130
    18  H   -0.086848   0.216519
    19  H   -0.233760   0.385858
    20  H   -0.080727   0.236006
    21  H   -0.975111   1.173373
    22  H    0.016809   0.234700
    23  H    0.581398  -0.427659
    24  H    0.148864   0.018637
    25  H   -0.174336   0.318345
    26  H    0.004319   0.200075
    27  H   -0.093502   0.297682
    28  H   -0.223581   0.408036
    29  H   -0.613065   0.793518
    30  H   -1.159637   1.368334
 Sum of Mulliken charges =  -1.00000   1.00000

 Dipole moment (field-independent basis, Debye):
    X=              0.2250    Y=             -7.0700    Z=             -1.5929  Tot=              7.2507
 Quadrupole moment (field-independent basis, Debye-Ang):
   XX=           -164.8707   YY=           -166.1310   ZZ=           -126.4916
   XY=              5.5924   XZ=              2.3903   YZ=              2.4506

 Summary of Natural Population Analysis:

                                       Natural Population
                Natural  -----------------------------------------------
    Atom  No    Charge         Core      Valence    Rydberg      Total
 -----------------------------------------------------------------------
      C    1   -0.29372      0.99966     2.28865    0.00541     3.29372
      C    2   -0.08898      0.99963     2.07790    0.01145     3.08898
      N    3   -0.30822      0.99968     2.79652    0.01201     3.80822
      C    4    0.08475      0.99950     1.90456    0.01119     2.91525
      C    5   -0.15948      0.99947     2.15293    0.00708     3.15948
      C    6    0.15218      0.99938     1.83694    0.01149     2.84782
      C    7   -0.01835      0.99955     2.00489    0.01391     3.01835
      N    8   -0.21904      0.99971     2.70898    0.01035     3.71904
      C    9   -0.00922      0.99955     1.99506    0.01461     3.00922
      O   10   -0.27215      0.99986     3.26328    0.00901     4.27215
      C   11   -0.03387      0.99951     2.02159    0.01277     3.03387
      C   12    0.12491      0.99946     1.86063    0.01499     2.87509
      C   13   -0.13763      0.99948     2.12926    0.00888     3.13763
      C   14   -0.14747      0.99957     2.13846    0.00944     3.14747
      C   15    0.06681      0.99950     1.91898    0.01470     2.93319
      O   16   -0.23729      0.99986     3.22871    0.00871     4.23729
      H   17    0.10052      0.00000     0.39755    0.00192     0.39948
      H   18    0.10393      0.00000     0.39396    0.00211     0.39607
      H   19    0.09806      0.00000     0.40045    0.00149     0.40194
      H   20    0.09123      0.00000     0.40713    0.00164     0.40877
      H   21    0.10066      0.00000     0.39674    0.00260     0.39934
      H   22    0.18681      0.00000     0.30977    0.00342     0.31319
      H   23    0.11189      0.00000     0.38538    0.00273     0.38811
      H   24    0.09120      0.00000     0.40712    0.00168     0.40880
      H   25    0.08727      0.00000     0.41077    0.00197     0.41273
      H   26    0.09570      0.00000     0.40288    0.00142     0.40430
      H   27    0.10247      0.00000     0.39631    0.00121     0.39753
      H   28    0.11220      0.00000     0.38688    0.00092     0.38780
      H   29    0.11241      0.00000     0.38617    0.00142     0.38759
      H   30    0.10242      0.00000     0.39482    0.00275     0.39758
 =======================================================================
   * Total *   -0.00000     15.99340    41.80330    0.20330    58.00000

 Normal termination of Gaussian 16 at Thu Dec 10 22:39:21 2020.
