 Gaussian 16, Revision A.03,

 -----------------------------------------------------------
 # opt freq B3LYP/6-31G(d) empiricaldispersion=gd3bj scf=xqc
 -----------------------------------------------------------

 -----------------------------
 CID_55289460_JID_354_neutraal
 -----------------------------
 Symbolic Z-matrix:
 Charge =  0 Multiplicity = 1

 SCF Done:  E(RB3LYP) =  -462.315998301     A.U. after   12 cycles
 SCF Done:  E(RB3LYP) =  -462.319629279     A.U. after   11 cycles
 SCF Done:  E(RB3LYP) =  -462.320072034     A.U. after   10 cycles
 SCF Done:  E(RB3LYP) =  -462.320131778     A.U. after   11 cycles
 SCF Done:  E(RB3LYP) =  -462.320243550     A.U. after   10 cycles
 SCF Done:  E(RB3LYP) =  -462.320279781     A.U. after   10 cycles
 SCF Done:  E(RB3LYP) =  -462.320287779     A.U. after    9 cycles
 SCF Done:  E(RB3LYP) =  -462.320292333     A.U. after    8 cycles
 SCF Done:  E(RB3LYP) =  -462.320293376     A.U. after    7 cycles
 SCF Done:  E(RB3LYP) =  -462.320293554     A.U. after    7 cycles
 Optimization completed.
    -- Stationary point found.
 Normal termination of Gaussian 16 at Tue Dec  8 10:27:46 2020.

 --------------------------------------------------------------------
 #N Geom=AllCheck Guess=TCheck SCRF=Check GenChk RB3LYP/6-31G(d) Freq
 --------------------------------------------------------------------

 Structure from the checkpoint file:  "JID_354.chk"
 -----------------------------
 CID_55289460_JID_354_neutraal
 -----------------------------
 Charge =  0 Multiplicity = 1

 SCF Done:  E(RB3LYP) =  -462.320293554     A.U. after    1 cycles

  Exact polarizability: 109.965  -0.358  84.758   0.603  -0.646  82.375
 Approx polarizability: 128.677   0.594 120.323   1.436  -2.464 122.769

                      1                      2                      3
                      A                      A                      A
 Frequencies --     32.6892                66.9345                68.9111
 Red. masses --      3.6334                 4.0186                 2.6383
 Frc consts  --      0.0023                 0.0106                 0.0074
 IR Inten    --      0.4641                 1.8458                 0.2774

                      4                      5                      6
                      A                      A                      A
 Frequencies --     90.0693               147.9983               172.6311
 Red. masses --      3.2225                 2.1999                 2.5055
 Frc consts  --      0.0154                 0.0284                 0.0440
 IR Inten    --      4.0036                 1.4467                 4.9895

                      7                      8                      9
                      A                      A                      A
 Frequencies --    182.8880               228.9889               251.0044
 Red. masses --      1.8085                 1.8667                 1.3731
 Frc consts  --      0.0356                 0.0577                 0.0510
 IR Inten    --     18.0076                 5.8268                34.1693

                     10                     11                     12
                      A                      A                      A
 Frequencies --    285.7157               293.2506               337.2008
 Red. masses --      2.2279                 1.7173                 1.2819
 Frc consts  --      0.1072                 0.0870                 0.0859
 IR Inten    --      4.1515                 6.0202                99.9611

                     13                     14                     15
                      A                      A                      A
 Frequencies --    354.1377               383.8157               435.6936
 Red. masses --      1.9709                 2.3284                 2.3626
 Frc consts  --      0.1456                 0.2021                 0.2642
 IR Inten    --     10.9442                 7.1701                 8.8311

                     16                     17                     18
                      A                      A                      A
 Frequencies --    481.4251               553.2679               627.8219
 Red. masses --      1.9564                 2.4800                 2.2776
 Frc consts  --      0.2672                 0.4473                 0.5289
 IR Inten    --      6.6015                 5.4599                 1.4470

                     19                     20                     21
                      A                      A                      A
 Frequencies --    739.6893               762.4443               792.4676
 Red. masses --      1.9372                 1.4635                 1.5010
 Frc consts  --      0.6245                 0.5013                 0.5554
 IR Inten    --     82.0651                 3.2266                 1.6150

                     22                     23                     24
                      A                      A                      A
 Frequencies --    829.4384               860.3082               884.4426
 Red. masses --      2.0612                 2.1313                 1.3732
 Frc consts  --      0.8355                 0.9294                 0.6329
 IR Inten    --      7.7185                16.1786               141.9135

                     25                     26                     27
                      A                      A                      A
 Frequencies --    917.3573               948.8822               983.6114
 Red. masses --      1.5998                 1.6608                 1.6523
 Frc consts  --      0.7932                 0.8810                 0.9418
 IR Inten    --     11.5813                13.3919                 3.0359

                     28                     29                     30
                      A                      A                      A
 Frequencies --    991.3088              1038.9881              1063.8319
 Red. masses --      1.6166                 2.4127                 2.5747
 Frc consts  --      0.9360                 1.5345                 1.7168
 IR Inten    --     15.8348                12.8078                20.3138

                     31                     32                     33
                      A                      A                      A
 Frequencies --   1083.7156              1103.5883              1120.0318
 Red. masses --      2.1113                 1.5856                 1.6727
 Frc consts  --      1.4609                 1.1377                 1.2363
 IR Inten    --      8.6880                19.5456                34.7911

                     34                     35                     36
                      A                      A                      A
 Frequencies --   1132.1853              1146.6382              1164.4048
 Red. masses --      2.1036                 1.6998                 2.7120
 Frc consts  --      1.5887                 1.3168                 2.1665
 IR Inten    --     10.0581                 1.4214                71.3924

                     37                     38                     39
                      A                      A                      A
 Frequencies --   1210.4811              1239.9423              1257.5566
 Red. masses --      1.7005                 1.3440                 1.3408
 Frc consts  --      1.4681                 1.2174                 1.2493
 IR Inten    --      2.3940                31.7933                 1.8081

                     40                     41                     42
                      A                      A                      A
 Frequencies --   1286.8782              1296.3557              1348.8576
 Red. masses --      1.2642                 1.2849                 1.2907
 Frc consts  --      1.2335                 1.2723                 1.3836
 IR Inten    --      3.4627                 3.4814                 3.4592

                     43                     44                     45
                      A                      A                      A
 Frequencies --   1362.3731              1372.6745              1391.9354
 Red. masses --      1.3493                 1.1704                 1.2714
 Frc consts  --      1.4756                 1.2993                 1.4513
 IR Inten    --      5.5570                 5.1908                11.7860

                     46                     47                     48
                      A                      A                      A
 Frequencies --   1395.8640              1405.5452              1412.7681
 Red. masses --      1.4006                 1.3325                 1.3370
 Frc consts  --      1.6079                 1.5510                 1.5723
 IR Inten    --     13.2107                 8.4779                 3.5374

                     49                     50                     51
                      A                      A                      A
 Frequencies --   1433.3570              1443.6030              1454.0950
 Red. masses --      1.2526                 1.2358                 1.4048
 Frc consts  --      1.5163                 1.5174                 1.7500
 IR Inten    --     29.4175                 3.6478                 7.5906

                     52                     53                     54
                      A                      A                      A
 Frequencies --   1504.4987              1512.2061              1520.9962
 Red. masses --      1.0988                 1.1222                 1.0577
 Frc consts  --      1.4654                 1.5120                 1.4417
 IR Inten    --      5.7876                16.2996                 0.0994

                     55                     56                     57
                      A                      A                      A
 Frequencies --   1526.3454              1531.7796              1536.7806
 Red. masses --      1.0825                 1.1673                 1.0800
 Frc consts  --      1.4858                 1.6137                 1.5027
 IR Inten    --     10.4159                20.3039                 8.4393

                     58                     59                     60
                      A                      A                      A
 Frequencies --   1545.1924              1548.4184              1701.5512
 Red. masses --      1.0685                 1.0833                 1.0866
 Frc consts  --      1.5031                 1.5302                 1.8536
 IR Inten    --      8.2292                 5.8319                29.7935

                     61                     62                     63
                      A                      A                      A
 Frequencies --   2985.7002              3018.3120              3025.3969
 Red. masses --      1.0720                 1.0738                 1.0718
 Frc consts  --      5.6304                 5.7639                 5.7803
 IR Inten    --     48.7488                19.2829                29.0268

                     64                     65                     66
                      A                      A                      A
 Frequencies --   3035.8684              3038.7809              3041.1809
 Red. masses --      1.0715                 1.0630                 1.0635
 Frc consts  --      5.8184                 5.7832                 5.7952
 IR Inten    --     45.3698                11.2361                33.4527

                     67                     68                     69
                      A                      A                      A
 Frequencies --   3046.3450              3072.3715              3077.4618
 Red. masses --      1.0446                 1.0962                 1.0937
 Frc consts  --      5.7119                 6.0967                 6.1029
 IR Inten    --     60.8771                35.1682                51.4026

                     70                     71                     72
                      A                      A                      A
 Frequencies --   3085.8128              3090.5528              3110.4306
 Red. masses --      1.1044                 1.0934                 1.1011
 Frc consts  --      6.1958                 6.1532                 6.2767
 IR Inten    --     85.1280                 0.5386                47.6306

                     73                     74                     75
                      A                      A                      A
 Frequencies --   3116.6265              3141.2617              3465.7165
 Red. masses --      1.0996                 1.0924                 1.0501
 Frc consts  --      6.2927                 6.3508                 7.4312
 IR Inten    --     51.9339                28.8875                 2.0221

                     76                     77                     78
                      A                      A                      A
 Frequencies --   3500.5480              3547.1338              3742.5686
 Red. masses --      1.0729                 1.0918                 1.0659
 Frc consts  --      7.7464                 8.0934                 8.7965
 IR Inten    --      2.3515                 1.1264                10.3380

 - Thermochemistry -
 -------------------
 Temperature   298.150 Kelvin.  Pressure   1.00000 Atm.
 Atom     1 has atomic number  6 and mass  12.00000

 Molecular mass:   146.14191 amu.
 Principal axes and moments of inertia in atomic units:
                           1         2         3
     Eigenvalues --   781.298762788.937973123.16961
           X            0.99998  -0.00574   0.00094
           Y            0.00574   0.99998  -0.00387
           Z           -0.00092   0.00388   0.99999
 This molecule is an asymmetric top.
 Rotational symmetry number  1.
 Warning -- assumption of classical behavior for rotation
           may cause significant error
 Rotational temperatures (Kelvin)      0.11086     0.03106     0.02773
 Rotational constants (GHZ):           2.30992     0.64711     0.57786
 Zero-point vibrational energy     681512.0 (Joules/Mol)
                                  162.88527 (Kcal/Mol)
 Warning -- explicit consideration of  17 degrees of freedom as
           vibrations may cause significant error
 Vibrational temperatures:     47.03    96.30    99.15   129.59   212.94
          (Kelvin)            248.38   263.14   329.46   361.14   411.08
                              421.92   485.16   509.53   552.23   626.87
                              692.66   796.03   903.30  1064.25  1096.99
                             1140.18  1193.38  1237.79  1272.52  1319.87
                             1365.23  1415.20  1426.27  1494.87  1530.62
                             1559.23  1587.82  1611.48  1628.96  1649.76
                             1675.32  1741.61  1784.00  1809.34  1851.53
                             1865.17  1940.71  1960.15  1974.97  2002.68
                             2008.34  2022.27  2032.66  2062.28  2077.02
                             2092.12  2164.64  2175.73  2188.37  2196.07
                             2203.89  2211.08  2223.19  2227.83  2448.15
                             4295.76  4342.68  4352.87  4367.94  4372.13
                             4375.58  4383.01  4420.46  4427.78  4439.80
                             4446.62  4475.22  4484.13  4519.57  4986.39
                             5036.51  5103.53  5384.72

 Zero-point correction=                           0.259574 (Hartree/Particle)
 Thermal correction to Energy=                    0.272248
 Thermal correction to Enthalpy=                  0.273192
 Thermal correction to Gibbs Free Energy=         0.220299
 Sum of electronic and zero-point Energies=           -462.060719
 Sum of electronic and thermal Energies=              -462.048046
 Sum of electronic and thermal Enthalpies=            -462.047102
 Sum of electronic and thermal Free Energies=         -462.099995

                     E (Thermal)             CV                S
                      KCal/Mol        Cal/Mol-Kelvin    Cal/Mol-Kelvin
 Total                  170.838             46.101            111.323
 Electronic               0.000              0.000              0.000
 Translational            0.889              2.981             40.849
 Rotational               0.889              2.981             30.299
 Vibrational            169.061             40.140             40.175
 Vibration     1          0.594              1.983              5.659
 Vibration     2          0.598              1.970              4.242
 Vibration     3          0.598              1.969              4.184
 Vibration     4          0.602              1.956              3.659
 Vibration     5          0.617              1.905              2.698
 Vibration     6          0.626              1.876              2.407
 Vibration     7          0.630              1.863              2.299
 Vibration     8          0.652              1.797              1.887
 Vibration     9          0.663              1.761              1.724
 Vibration    10          0.683              1.700              1.499
 Vibration    11          0.688              1.686              1.455
 Vibration    12          0.718              1.601              1.225
 Vibration    13          0.730              1.567              1.148
 Vibration    14          0.753              1.505              1.024
 Vibration    15          0.796              1.392              0.840
 Vibration    16          0.838              1.291              0.706
 Vibration    17          0.909              1.133              0.537

 Optimization completed.
    -- Stationary point found.
 Normal termination of Gaussian 16 at Tue Dec  8 10:33:21 2020.

 ----------------------------------------------------------------------
 # B3LYP/6-311++G(d,p) empiricaldispersion=gd3bj scf=xqc pop=npa geom=c
 heck
 ----------------------------------------------------------------------

 -------------------------------------
 CID_55289460_JID_354_Energie_neutraal
 -------------------------------------
 Structure from the checkpoint file:  "JID_354.chk"
 Charge =  0 Multiplicity = 1

 SCF Done:  E(RB3LYP) =  -462.476726974     A.U. after   13 cycles
 Normal termination of Gaussian 16 at Tue Dec  8 10:37:23 2020.

 ----------------------------------------------------------------------
 # B3LYP/6-311++G(d,p) empiricaldispersion=gd3bj scf=xqc pop=npa geom=c
 heck
 ----------------------------------------------------------------------

 -----------------------------------
 CID_55289460_JID_354_Energie_kation
 -----------------------------------
 Structure from the checkpoint file:  "JID_354.chk"
 Charge =  1 Multiplicity = 2

 SCF Done:  E(UB3LYP) =  -462.181179840     A.U. after   23 cycles
 Normal termination of Gaussian 16 at Tue Dec  8 10:44:24 2020.
 Gaussian 16:  ES64L-G16RevA.03 25-Dec-2016

 ----------------------------------------------------------------------
 # B3LYP/6-311++G(d,p) empiricaldispersion=gd3bj scf=xqc pop=npa geom=c
 heck
 ----------------------------------------------------------------------

 ----------------------------------
 CID_55289460_JID_354_Energie_anion
 ----------------------------------
 Structure from the checkpoint file:  "JID_354.chk"
 Charge = -1 Multiplicity = 2

                         Standard orientation:
 ---------------------------------------------------------------------
 Center     Atomic      Atomic             Coordinates (Angstroms)
 Number     Number       Type             X           Y           Z
 ---------------------------------------------------------------------
      1          6           0        3.737737   -0.322932    0.171761
      2          6           0        2.446237   -0.579753   -0.610428
      3          6           0        1.143199   -0.377386    0.189037
      4          6           0        1.001822    1.063261    0.714535
      5          8           0        0.762262    1.992852   -0.344654
      6          7           0        0.015067   -0.781994   -0.654146
      7          6           0       -1.104538   -1.465742   -0.009967
      8          6           0       -1.983200   -0.666556    0.972412
      9          6           0       -2.627140    0.581254    0.361737
     10          7           0       -3.530585    0.217131   -0.740933
     11          1           0        3.853868    0.729328    0.456140
     12          1           0        4.615280   -0.597114   -0.423710
     13          1           0        3.764523   -0.916471    1.094017
     14          1           0        2.414704    0.056013   -1.508174
     15          1           0        2.431698   -1.608103   -0.985461
     16          1           0        1.175125   -1.045769    1.061366
     17          1           0        0.130486    1.143617    1.366544
     18          1           0        1.883261    1.357734    1.302289
     19          1           0        1.567504    2.037653   -0.883328
     20          1           0       -0.300939    0.034188   -1.174424
     21          1           0       -1.745840   -1.862349   -0.807737
     22          1           0       -0.697984   -2.343352    0.508365
     23          1           0       -2.781867   -1.328797    1.330214
     24          1           0       -1.392985   -0.373095    1.850519
     25          1           0       -3.231869    1.076024    1.130733
     26          1           0       -1.842818    1.299831    0.069065
     27          1           0       -4.032305    1.046903   -1.053153
     28          1           0       -2.984010   -0.087898   -1.544994
 ---------------------------------------------------------------------

 SCF Done:  E(UB3LYP) =  -462.462088684     A.U. after   27 cycles

 The electronic state is 2-A.
 Alpha  occ. eigenvalues --  -19.01875 -14.19258 -14.18531 -10.10669 -10.09184
 Alpha  occ. eigenvalues --  -10.08933 -10.08726 -10.06231 -10.05559 -10.05148
 Alpha  occ. eigenvalues --   -0.91883  -0.80105  -0.77925  -0.68065  -0.64402
 Alpha  occ. eigenvalues --   -0.60582  -0.55857  -0.53250  -0.47633  -0.46725
 Alpha  occ. eigenvalues --   -0.41352  -0.39453  -0.38257  -0.36764  -0.34987
 Alpha  occ. eigenvalues --   -0.34168  -0.32648  -0.31918  -0.30759  -0.29895
 Alpha  occ. eigenvalues --   -0.28098  -0.26346  -0.25585  -0.24475  -0.24116
 Alpha  occ. eigenvalues --   -0.23608  -0.22744  -0.21480  -0.17842  -0.14504
 Alpha  occ. eigenvalues --   -0.11506   0.04632
 Alpha virt. eigenvalues --    0.06462   0.07308   0.08223   0.08800   0.09256
 Alpha virt. eigenvalues --    0.10110   0.10653   0.10990   0.11758   0.12378
 Alpha virt. eigenvalues --    0.12802   0.13339   0.13886   0.14695   0.15373

  Beta  occ. eigenvalues --  -19.01833 -14.19223 -14.18520 -10.10649 -10.09177
  Beta  occ. eigenvalues --  -10.08923 -10.08707 -10.06226 -10.05531 -10.05099
  Beta  occ. eigenvalues --   -0.91790  -0.80079  -0.77871  -0.68021  -0.64357
  Beta  occ. eigenvalues --   -0.60512  -0.55796  -0.53165  -0.47571  -0.46659
  Beta  occ. eigenvalues --   -0.41299  -0.39396  -0.38206  -0.36720  -0.34941
  Beta  occ. eigenvalues --   -0.34120  -0.32600  -0.31885  -0.30713  -0.29854
  Beta  occ. eigenvalues --   -0.28053  -0.26304  -0.25559  -0.24413  -0.24072
  Beta  occ. eigenvalues --   -0.23577  -0.22696  -0.21450  -0.17792  -0.14469
  Beta  occ. eigenvalues --   -0.11486
  Beta virt. eigenvalues --    0.06865   0.07556   0.07961   0.08608   0.09504
  Beta virt. eigenvalues --    0.09842   0.10432   0.10962   0.11271   0.12260
  Beta virt. eigenvalues --    0.12721   0.13138   0.13666   0.14189   0.14918

 Mulliken charges and spin densities:
               1          2
     1  C    1.727788  -2.353225
     2  C   -1.466522   1.769423
     3  C   -0.988006   0.022014
     4  C    1.600432  -2.079170
     5  O   -0.300428   0.095531
     6  N    0.190214   0.034388
     7  C   -0.121256  -0.231654
     8  C   -0.194400   0.123960
     9  C    0.594302  -1.104588
    10  N   -0.385567   0.012393
    11  H   -0.355996   0.498874
    12  H   -0.512985   0.657982
    13  H   -0.358974   0.495047
    14  H   -0.168534   0.300692
    15  H   -0.115335   0.276851
    16  H    0.090723   0.022188
    17  H    0.321647  -0.143731
    18  H   -0.173456   0.305886
    19  H   -0.115863   0.389460
    20  H    0.165635   0.105322
    21  H   -0.006708   0.175468
    22  H   -0.093887   0.231847
    23  H    0.107402   0.041559
    24  H   -0.071008   0.195292
    25  H   -0.299505   0.440527
    26  H   -0.016028   0.212354
    27  H   -0.143279   0.386527
    28  H    0.089593   0.118782
 Sum of Mulliken charges =  -1.00000   1.00000

 Dipole moment (field-independent basis, Debye):
    X=             -3.0034    Y=             -2.0270    Z=              1.8295  Tot=              4.0590
 Quadrupole moment (field-independent basis, Debye-Ang):
   XX=           -149.4285   YY=           -102.9580   ZZ=            -92.2109
   XY=              1.7792   XZ=             -0.7330   YZ=              1.4374

 Summary of Natural Population Analysis:

                                       Natural Population
                Natural  -----------------------------------------------
    Atom  No    Charge         Core      Valence    Rydberg      Total
 -----------------------------------------------------------------------
      C    1   -0.28914      0.99967     2.28421    0.00527     3.28914
      C    2   -0.19391      0.99962     2.18289    0.01140     3.19391
      C    3   -0.02275      0.99958     2.00980    0.01337     3.02275
      C    4   -0.01842      0.99956     2.00558    0.01328     3.01842
      O    5   -0.37454      0.99990     3.36742    0.00723     4.37454
      N    6   -0.34843      0.99974     2.83653    0.01216     3.84843
      C    7   -0.08587      0.99962     2.07540    0.01085     3.08587
      C    8   -0.20274      0.99962     2.19570    0.00742     3.20274
      C    9   -0.09805      0.99963     2.08647    0.01195     3.09805
      N   10   -0.42567      0.99977     2.91503    0.01087     3.92567
      H   11    0.09709      0.00000     0.40083    0.00208     0.40291
      H   12    0.10165      0.00000     0.39702    0.00133     0.39835
      H   13    0.09500      0.00000     0.40363    0.00137     0.40500
      H   14    0.09367      0.00000     0.40454    0.00179     0.40633
      H   15    0.10206      0.00000     0.39640    0.00154     0.39794
      H   16    0.09200      0.00000     0.40665    0.00135     0.40800
      H   17    0.08575      0.00000     0.41244    0.00181     0.41425
      H   18    0.08141      0.00000     0.41727    0.00132     0.41859
      H   19    0.23300      0.00000     0.26134    0.00567     0.26700
      H   20    0.17922      0.00000     0.31740    0.00339     0.32078
      H   21    0.09138      0.00000     0.40739    0.00123     0.40862
      H   22    0.09113      0.00000     0.40770    0.00117     0.40887
      H   23    0.09812      0.00000     0.40054    0.00134     0.40188
      H   24    0.09345      0.00000     0.40526    0.00129     0.40655
      H   25    0.08957      0.00000     0.40915    0.00128     0.41043
      H   26    0.08758      0.00000     0.41006    0.00235     0.41242
      H   27    0.17650      0.00000     0.32125    0.00225     0.32350
      H   28    0.17098      0.00000     0.32709    0.00193     0.32902
 =======================================================================
   * Total *   -0.00000      9.99671    30.86499    0.13830    41.00000

 Normal termination of Gaussian 16 at Tue Dec  8 10:52:31 2020.
