 Gaussian 16, Revision A.03,

 -----------------------------------------------------------
 # opt freq B3LYP/6-31G(d) empiricaldispersion=gd3bj scf=xqc
 -----------------------------------------------------------

 ------------------------------
 CID_66374305_JID_9960_neutraal
 ------------------------------
 Symbolic Z-matrix:
 Charge =  0 Multiplicity = 1

 SCF Done:  E(RB3LYP) =  -1256.92760895     A.U. after   15 cycles
 SCF Done:  E(RB3LYP) =  -1256.93388609     A.U. after   13 cycles
 SCF Done:  E(RB3LYP) =  -1256.93220204     A.U. after   13 cycles
 SCF Done:  E(RB3LYP) =  -1256.93562449     A.U. after   12 cycles
 SCF Done:  E(RB3LYP) =  -1256.93706094     A.U. after   14 cycles
 SCF Done:  E(RB3LYP) =  -1256.93830017     A.U. after   13 cycles
 SCF Done:  E(RB3LYP) =  -1256.93924643     A.U. after   15 cycles
 SCF Done:  E(RB3LYP) =  -1256.93970252     A.U. after   11 cycles
 SCF Done:  E(RB3LYP) =  -1256.93991173     A.U. after   12 cycles
 SCF Done:  E(RB3LYP) =  -1256.94008996     A.U. after   13 cycles
 SCF Done:  E(RB3LYP) =  -1256.94821440     A.U. after    9 cycles
 SCF Done:  E(RB3LYP) =  -1256.94821962     A.U. after   10 cycles
 SCF Done:  E(RB3LYP) =  -1256.94822005     A.U. after    8 cycles
 SCF Done:  E(RB3LYP) =  -1256.94822011     A.U. after    8 cycles
 SCF Done:  E(RB3LYP) =  -1256.94822010     A.U. after    7 cycles
 Optimization completed.
    -- Stationary point found.
 Normal termination of Gaussian 16 at Mon Dec 14 19:21:14 2020.

 --------------------------------------------------------------------
 #N Geom=AllCheck Guess=TCheck SCRF=Check GenChk RB3LYP/6-31G(d) Freq
 --------------------------------------------------------------------

 Structure from the checkpoint file:  "JID_9960.chk"
 ------------------------------
 CID_66374305_JID_9960_neutraal
 ------------------------------
 Charge =  0 Multiplicity = 1

 SCF Done:  E(RB3LYP) =  -1256.94822010     A.U. after    1 cycles

  Exact polarizability: 185.094 -15.124 174.724  -8.204 -16.910 136.656
 Approx polarizability: 270.675 -32.507 250.500 -14.624 -48.357 242.724

                      1                      2                      3
                      A                      A                      A
 Frequencies --     20.1264                40.0255                46.7711
 Red. masses --      7.3598                 4.9944                 4.1434
 Frc consts  --      0.0018                 0.0047                 0.0053
 IR Inten    --      0.3244                 0.9788                 1.2679

                      4                      5                      6
                      A                      A                      A
 Frequencies --     51.3562                69.2890                75.1893
 Red. masses --      3.8901                 6.9145                 8.4392
 Frc consts  --      0.0060                 0.0196                 0.0281
 IR Inten    --      0.4897                 1.4760                 0.4235

                      7                      8                      9
                      A                      A                      A
 Frequencies --     93.5324               126.6659               139.7035
 Red. masses --      4.2699                 5.0351                 4.1499
 Frc consts  --      0.0220                 0.0476                 0.0477
 IR Inten    --      0.5661                 1.4381                 5.0493

                     10                     11                     12
                      A                      A                      A
 Frequencies --    160.9170               178.7164               215.5298
 Red. masses --      3.6674                 6.0544                 4.3915
 Frc consts  --      0.0560                 0.1139                 0.1202
 IR Inten    --      1.7912                 0.3655                 1.4244

                     13                     14                     15
                      A                      A                      A
 Frequencies --    225.7945               244.3048               258.6330
 Red. masses --      1.8834                 1.4838                 1.6901
 Frc consts  --      0.0566                 0.0522                 0.0666
 IR Inten    --      1.6701                 0.5244                 1.3709

                     16                     17                     18
                      A                      A                      A
 Frequencies --    271.6583               290.2607               293.2457
 Red. masses --      1.2398                 1.0713                 1.4203
 Frc consts  --      0.0539                 0.0532                 0.0720
 IR Inten    --      0.5867                 0.2522                 0.7474

                     19                     20                     21
                      A                      A                      A
 Frequencies --    313.0684               325.6793               346.0968
 Red. masses --      3.5519                 4.1336                 2.5013
 Frc consts  --      0.2051                 0.2583                 0.1765
 IR Inten    --      3.3048                 0.8974                 0.9639

                     22                     23                     24
                      A                      A                      A
 Frequencies --    359.5913               388.7134               401.8057
 Red. masses --      2.3587                 7.9387                 2.4275
 Frc consts  --      0.1797                 0.7067                 0.2309
 IR Inten    --      1.4052                 2.9036                 0.7333

                     25                     26                     27
                      A                      A                      A
 Frequencies --    418.5820               433.2572               484.6794
 Red. masses --      1.9383                 3.7375                 2.1630
 Frc consts  --      0.2001                 0.4134                 0.2994
 IR Inten    --      0.5959                 1.8749                 1.7077

                     28                     29                     30
                      A                      A                      A
 Frequencies --    519.5899               539.9242               550.9830
 Red. masses --      5.4485                 4.6981                 2.2345
 Frc consts  --      0.8667                 0.8069                 0.3997
 IR Inten    --     12.8487                 9.3566                13.5580

                     31                     32                     33
                      A                      A                      A
 Frequencies --    588.4180               601.4767               640.6745
 Red. masses --      2.5863                 2.9035                 2.9931
 Frc consts  --      0.5276                 0.6189                 0.7238
 IR Inten    --     13.6094                56.7964                35.8260

                     34                     35                     36
                      A                      A                      A
 Frequencies --    652.2667               668.8004               689.4742
 Red. masses --      4.4288                 2.1214                 3.3107
 Frc consts  --      1.1102                 0.5591                 0.9273
 IR Inten    --     55.8619                74.8436                35.7700

                     37                     38                     39
                      A                      A                      A
 Frequencies --    702.4752               727.4832               756.5774
 Red. masses --      4.8719                 2.3130                 3.5697
 Frc consts  --      1.4165                 0.7212                 1.2039
 IR Inten    --     32.3990                21.3969                 2.4568

                     40                     41                     42
                      A                      A                      A
 Frequencies --    771.5142               797.9626               826.7241
 Red. masses --      2.3337                 3.1995                 2.0258
 Frc consts  --      0.8184                 1.2003                 0.8158
 IR Inten    --     59.7040               113.6582                 3.2111

                     43                     44                     45
                      A                      A                      A
 Frequencies --    849.5534               867.2532               911.9783
 Red. masses --      2.1689                 4.0690                 2.1652
 Frc consts  --      0.9223                 1.8031                 1.0610
 IR Inten    --      6.3428                12.3607                 8.7072

                     46                     47                     48
                      A                      A                      A
 Frequencies --    937.9717               946.3607               956.5627
 Red. masses --      2.1538                 3.2139                 1.6560
 Frc consts  --      1.1164                 1.6959                 0.8928
 IR Inten    --      5.7967                 1.2793                 2.2099

                     49                     50                     51
                      A                      A                      A
 Frequencies --    963.0383               975.8402               979.7067
 Red. masses --      1.6430                 1.2051                 2.2246
 Frc consts  --      0.8978                 0.6761                 1.2580
 IR Inten    --      1.0924                 0.5143                35.8930

                     52                     53                     54
                      A                      A                      A
 Frequencies --   1029.5212              1060.8504              1083.2250
 Red. masses --      1.7450                 1.4664                 1.7201
 Frc consts  --      1.0897                 0.9724                 1.1892
 IR Inten    --     24.9065                 0.7488                 1.5523

                     55                     56                     57
                      A                      A                      A
 Frequencies --   1105.5469              1117.4929              1151.1429
 Red. masses --      2.1608                 1.8449                 3.2613
 Frc consts  --      1.5561                 1.3574                 2.5462
 IR Inten    --      4.3947                12.7767                22.1321

                     58                     59                     60
                      A                      A                      A
 Frequencies --   1179.7296              1200.6031              1227.1896
 Red. masses --      3.3963                 2.1859                 2.8662
 Frc consts  --      2.7850                 1.8564                 2.5432
 IR Inten    --    119.0643               258.5454                22.4206

                     61                     62                     63
                      A                      A                      A
 Frequencies --   1242.1290              1253.0505              1291.9648
 Red. masses --      1.8936                 2.4658                 2.7984
 Frc consts  --      1.7213                 2.2811                 2.7521
 IR Inten    --     36.6748                 1.9881                 9.6913

                     64                     65                     66
                      A                      A                      A
 Frequencies --   1316.7661              1335.8022              1351.0330
 Red. masses --      2.3412                 1.4550                 1.4787
 Frc consts  --      2.3917                 1.5297                 1.5902
 IR Inten    --      1.2439                21.0716                43.9410

                     67                     68                     69
                      A                      A                      A
 Frequencies --   1359.0727              1408.4796              1412.3052
 Red. masses --      1.4845                 1.7168                 2.3056
 Frc consts  --      1.6156                 2.0066                 2.7095
 IR Inten    --     48.7728                17.4173                45.8246

                     70                     71                     72
                      A                      A                      A
 Frequencies --   1429.0287              1430.7896              1437.7418
 Red. masses --      1.2753                 1.2511                 1.2457
 Frc consts  --      1.5344                 1.5090                 1.5172
 IR Inten    --     26.0944                 6.9222                 1.2947

                     73                     74                     75
                      A                      A                      A
 Frequencies --   1448.1992              1465.3713              1479.6686
 Red. masses --      2.3536                 1.2994                 1.3983
 Frc consts  --      2.9082                 1.6439                 1.8038
 IR Inten    --    289.9570                15.4187                23.7867

                     76                     77                     78
                      A                      A                      A
 Frequencies --   1503.7119              1513.1658              1517.7659
 Red. masses --      1.3014                 1.0499                 1.0551
 Frc consts  --      1.7338                 1.4164                 1.4320
 IR Inten    --     10.9617                 1.2004                 1.2977

                     79                     80                     81
                      A                      A                      A
 Frequencies --   1522.9432              1523.1750              1523.9492
 Red. masses --      1.0627                 1.0554                 1.0711
 Frc consts  --      1.4522                 1.4427                 1.4656
 IR Inten    --      2.5142                 8.4673                 7.9578

                     82                     83                     84
                      A                      A                      A
 Frequencies --   1530.1264              1542.1113              1542.4211
 Red. masses --      1.0923                 1.0663                 1.0758
 Frc consts  --      1.5068                 1.4940                 1.5080
 IR Inten    --     12.3582                 4.4074                 6.4115

                     85                     86                     87
                      A                      A                      A
 Frequencies --   1551.0268              1553.6911              1575.5844
 Red. masses --      7.3797                 1.0613                 8.6020
 Frc consts  --     10.4599                 1.5094                12.5815
 IR Inten    --     90.6131                13.6327                18.2552

                     88                     89                     90
                      A                      A                      A
 Frequencies --   1791.2886              1822.9237              3036.2452
 Red. masses --      5.7492                 9.9825                 1.0363
 Frc consts  --     10.8691                19.5446                 5.6287
 IR Inten    --    460.8119               307.9920                22.7209

                     91                     92                     93
                      A                      A                      A
 Frequencies --   3041.2155              3052.5848              3053.7051
 Red. masses --      1.0363                 1.0383                 1.0413
 Frc consts  --      5.6473                 5.7007                 5.7212
 IR Inten    --     24.9610                12.2556                25.3782

                     94                     95                     96
                      A                      A                      A
 Frequencies --   3062.2517              3100.9226              3106.1320
 Red. masses --      1.0697                 1.1009                 1.1006
 Frc consts  --      5.9099                 6.2368                 6.2562
 IR Inten    --     31.3000                 4.2653                54.3907

                     97                     98                     99
                      A                      A                      A
 Frequencies --   3112.5589              3115.0280              3116.8738
 Red. masses --      1.1012                 1.1014                 1.0934
 Frc consts  --      6.2858                 6.2970                 6.2584
 IR Inten    --      6.7113                11.0894                 8.5022

                    100                    101                    102
                      A                      A                      A
 Frequencies --   3119.6886              3134.9120              3138.7890
 Red. masses --      1.1007                 1.0903                 1.1015
 Frc consts  --      6.3114                 6.3133                 6.3940
 IR Inten    --     67.0186                 9.4142                19.4505

                    103                    104                    105
                      A                      A                      A
 Frequencies --   3146.2877              3178.7920              3294.4039
 Red. masses --      1.1043                 1.0908                 1.0948
 Frc consts  --      6.4406                 6.4941                 7.0008
 IR Inten    --     16.9741                 0.2669                 7.5991

                    106                    107                    108
                      A                      A                      A
 Frequencies --   3579.7931              3592.4422              3691.3465
 Red. masses --      1.0742                 1.0756                 1.0640
 Frc consts  --      8.1109                 8.1784                 8.5422
 IR Inten    --     18.3689                24.1416                77.5150

 - Thermochemistry -
 -------------------
 Temperature   298.150 Kelvin.  Pressure   1.00000 Atm.
 Atom     1 has atomic number  6 and mass  12.00000

 Molecular mass:   285.11471 amu.
 Principal axes and moments of inertia in atomic units:
                           1         2         3
     Eigenvalues --  4217.166996447.088859060.22543
           X            0.99938   0.03519   0.00065
           Y           -0.03519   0.99915   0.02153
           Z            0.00011  -0.02154   0.99977
 This molecule is an asymmetric top.
 Rotational symmetry number  1.
 Warning -- assumption of classical behavior for rotation
           may cause significant error
 Rotational temperatures (Kelvin)      0.02054     0.01343     0.00956
 Rotational constants (GHZ):           0.42795     0.27993     0.19919
 Zero-point vibrational energy     826621.7 (Joules/Mol)
                                  197.56734 (Kcal/Mol)
 Warning -- explicit consideration of  32 degrees of freedom as
           vibrations may cause significant error
 Vibrational temperatures:     28.96    57.59    67.29    73.89    99.69
          (Kelvin)            108.18   134.57   182.24   201.00   231.52
                              257.13   310.10   324.87   351.50   372.12
                              390.86   417.62   421.92   450.44   468.58
                              497.96   517.37   559.27   578.11   602.25
                              623.36   697.35   747.57   776.83   792.74
                              846.60   865.39   921.79   938.47   962.25
                              992.00  1010.71  1046.69  1088.55  1110.04
                             1148.09  1189.47  1222.32  1247.78  1312.13
                             1349.53  1361.60  1376.28  1385.60  1404.02
                             1409.58  1481.25  1526.33  1558.52  1590.64
                             1607.82  1656.24  1697.37  1727.40  1765.65
                             1787.15  1802.86  1858.85  1894.53  1921.92
                             1943.84  1955.40  2026.49  2031.99  2056.05
                             2058.59  2068.59  2083.64  2108.34  2128.91
                             2163.51  2177.11  2183.73  2191.18  2191.51
                             2192.62  2201.51  2218.75  2219.20  2231.58
                             2235.41  2266.91  2577.26  2622.78  4368.48
                             4375.63  4391.99  4393.60  4405.90  4461.54
                             4469.03  4478.28  4481.83  4484.49  4488.54
                             4510.44  4516.02  4526.81  4573.57  4739.91
                             5150.52  5168.72  5311.02

 Zero-point correction=                           0.314844 (Hartree/Particle)
 Thermal correction to Energy=                    0.335088
 Thermal correction to Enthalpy=                  0.336032
 Thermal correction to Gibbs Free Energy=         0.264981
 Sum of electronic and zero-point Energies=          -1256.633377
 Sum of electronic and thermal Energies=             -1256.613132
 Sum of electronic and thermal Enthalpies=           -1256.612188
 Sum of electronic and thermal Free Energies=        -1256.683240

                     E (Thermal)             CV                S
                      KCal/Mol        Cal/Mol-Kelvin    Cal/Mol-Kelvin
 Total                  210.271             75.694            149.541
 Electronic               0.000              0.000              0.000
 Translational            0.889              2.981             42.841
 Rotational               0.889              2.981             33.865
 Vibrational            208.494             69.732             72.835
 Vibration     1          0.593              1.986              6.622
 Vibration     2          0.594              1.981              5.258
 Vibration     3          0.595              1.979              4.949
 Vibration     4          0.596              1.977              4.764
 Vibration     5          0.598              1.969              4.173
 Vibration     6          0.599              1.966              4.013
 Vibration     7          0.603              1.954              3.585
 Vibration     8          0.611              1.926              2.996
 Vibration     9          0.615              1.914              2.808
 Vibration    10          0.622              1.890              2.539
 Vibration    11          0.629              1.868              2.342
 Vibration    12          0.645              1.817              1.996
 Vibration    13          0.650              1.802              1.912
 Vibration    14          0.660              1.772              1.771
 Vibration    15          0.667              1.748              1.671
 Vibration    16          0.675              1.725              1.586
 Vibration    17          0.686              1.692              1.472
 Vibration    18          0.688              1.686              1.455
 Vibration    19          0.701              1.649              1.346
 Vibration    20          0.710              1.624              1.281
 Vibration    21          0.724              1.583              1.184
 Vibration    22          0.734              1.556              1.124
 Vibration    23          0.757              1.494              1.005
 Vibration    24          0.767              1.466              0.956
 Vibration    25          0.781              1.430              0.897
 Vibration    26          0.794              1.398              0.848
 Vibration    27          0.841              1.284              0.698
 Vibration    28          0.875              1.207              0.611
 Vibration    29          0.895              1.162              0.565
 Vibration    30          0.906              1.138              0.542
 Vibration    31          0.946              1.056              0.470
 Vibration    32          0.960              1.029              0.447

 Optimization completed.
    -- Stationary point found.
 Normal termination of Gaussian 16 at Mon Dec 14 19:40:31 2020.

 ----------------------------------------------------------------------
 # B3LYP/6-311++G(d,p) empiricaldispersion=gd3bj scf=xqc pop=npa geom=c
 heck
 ----------------------------------------------------------------------

 --------------------------------------
 CID_66374305_JID_9960_Energie_neutraal
 --------------------------------------
 Structure from the checkpoint file:  "JID_9960.chk"
 Charge =  0 Multiplicity = 1

 SCF Done:  E(RB3LYP) =  -1257.23283334     A.U. after   16 cycles
 Normal termination of Gaussian 16 at Mon Dec 14 19:48:23 2020.

 ----------------------------------------------------------------------
 # B3LYP/6-311++G(d,p) empiricaldispersion=gd3bj scf=xqc pop=npa geom=c
 heck
 ----------------------------------------------------------------------

 ------------------------------------
 CID_66374305_JID_9960_Energie_kation
 ------------------------------------
 Structure from the checkpoint file:  "JID_9960.chk"
 Charge =  1 Multiplicity = 2

 SCF Done:  E(UB3LYP) =  -1256.91661882     A.U. after   31 cycles
 Normal termination of Gaussian 16 at Mon Dec 14 20:08:50 2020.
 Gaussian 16:  ES64L-G16RevA.03 25-Dec-2016

 ----------------------------------------------------------------------
 # B3LYP/6-311++G(d,p) empiricaldispersion=gd3bj scf=xqc pop=npa geom=c
 heck
 ----------------------------------------------------------------------

 -----------------------------------
 CID_66374305_JID_9960_Energie_anion
 -----------------------------------
 Structure from the checkpoint file:  "JID_9960.chk"
 Charge = -1 Multiplicity = 2

                         Standard orientation:
 ---------------------------------------------------------------------
 Center     Atomic      Atomic             Coordinates (Angstroms)
 Number     Number       Type             X           Y           Z
 ---------------------------------------------------------------------
      1          6           0        0.559726   -3.392900   -1.206456
      2          6           0        0.628687   -1.908613   -0.828058
      3          6           0       -0.687859   -1.403084   -0.279117
      4          7           0       -1.359251   -0.411885   -0.778811
      5          6           0       -2.474187   -0.121291   -0.017937
      6          6           0       -2.660615   -0.915441    1.083286
      7         16           0       -1.395408   -2.077950    1.198270
      8          6           0       -3.388367    0.994092   -0.341652
      9          8           0       -4.400093    1.244101    0.282221
     10          8           0       -2.971563    1.725326   -1.399727
     11          7           0        1.706735   -1.671408    0.127667
     12          6           0        2.820955   -0.861485   -0.047529
     13          8           0        3.874895   -1.134944    0.518775
     14          7           0        2.709631    0.225512   -0.901727
     15          6           0        1.612102    1.200428   -0.946399
     16          6           0        1.479488    2.145848    0.273514
     17          6           0        2.811783    2.863619    0.540274
     18          6           0        0.391982    3.174636   -0.081889
     19          6           0        1.054628    1.371386    1.532556
     20          1           0        0.385935   -4.017180   -0.321327
     21          1           0        1.502214   -3.703209   -1.666860
     22          1           0       -0.257772   -3.574850   -1.910600
     23          1           0        0.830461   -1.322416   -1.726649
     24          1           0       -3.464013   -0.852446    1.802772
     25          1           0       -3.636215    2.431486   -1.506821
     26          1           0        1.944688   -2.454277    0.724295
     27          1           0        3.621968    0.665114   -0.943908
     28          1           0        1.789977    1.807753   -1.842042
     29          1           0        0.661438    0.694044   -1.105674
     30          1           0        3.159522    3.402228   -0.350879
     31          1           0        2.700728    3.596028    1.347977
     32          1           0        3.592638    2.156754    0.843129
     33          1           0       -0.553485    2.681887   -0.336615
     34          1           0        0.208442    3.850359    0.761462
     35          1           0        0.691988    3.786447   -0.941684
     36          1           0        0.102956    0.852376    1.377342
     37          1           0        1.803056    0.629736    1.826276
     38          1           0        0.926353    2.062799    2.373885
 ---------------------------------------------------------------------

 SCF Done:  E(UB3LYP) =  -1257.24646627     A.U. after   33 cycles
 SCF Done:  E(UB3LYP) =  -1257.24646627     a.u. after    1 cycles

 The electronic state is 2-A.
 Alpha  occ. eigenvalues --  -88.72128 -19.01967 -18.98214 -18.94661 -14.23006
 Alpha  occ. eigenvalues --  -14.22475 -14.17316 -10.19407 -10.13167 -10.11625
 Alpha  occ. eigenvalues --  -10.09774 -10.08561 -10.08104 -10.07313 -10.06993
 Alpha  occ. eigenvalues --  -10.05736 -10.04814 -10.04094 -10.02072  -7.80815
 Alpha  occ. eigenvalues --   -5.77097  -5.76748  -5.76461  -0.95656  -0.94823
 Alpha  occ. eigenvalues --   -0.86179  -0.83313  -0.81815  -0.80354  -0.71837
 Alpha  occ. eigenvalues --   -0.66990  -0.64714  -0.60408  -0.59897  -0.58910
 Alpha  occ. eigenvalues --   -0.58171  -0.54416  -0.50561  -0.49719  -0.45195
 Alpha  occ. eigenvalues --   -0.43649  -0.41570  -0.40204  -0.38856  -0.36865
 Alpha  occ. eigenvalues --   -0.36833  -0.35480  -0.35037  -0.34349  -0.33405
 Alpha  occ. eigenvalues --   -0.32899  -0.32232  -0.32149  -0.30600  -0.29880
 Alpha  occ. eigenvalues --   -0.29691  -0.28754  -0.28634  -0.28079  -0.26679
 Alpha  occ. eigenvalues --   -0.26390  -0.25790  -0.24882  -0.24789  -0.24119
 Alpha  occ. eigenvalues --   -0.22936  -0.22444  -0.21607  -0.17978  -0.17867
 Alpha  occ. eigenvalues --   -0.15967  -0.15122  -0.14487  -0.13500  -0.12822
 Alpha  occ. eigenvalues --   -0.10368   0.04891
 Alpha virt. eigenvalues --    0.06852   0.07890   0.08926   0.09077   0.10237
 Alpha virt. eigenvalues --    0.10428   0.10601   0.10977   0.11773   0.11971
 Alpha virt. eigenvalues --    0.12249   0.12531   0.12709   0.13268   0.13474

  Beta  occ. eigenvalues --  -88.72046 -19.01875 -18.98214 -18.94485 -14.23006
  Beta  occ. eigenvalues --  -14.22457 -14.17394 -10.19408 -10.12905 -10.11638
  Beta  occ. eigenvalues --  -10.09775 -10.08561 -10.07889 -10.07300 -10.06993
  Beta  occ. eigenvalues --  -10.05735 -10.04814 -10.04062 -10.01345  -7.80741
  Beta  occ. eigenvalues --   -5.77064  -5.76719  -5.76177  -0.95372  -0.94819
  Beta  occ. eigenvalues --   -0.85876  -0.83258  -0.81729  -0.80307  -0.71836
  Beta  occ. eigenvalues --   -0.66890  -0.64067  -0.59998  -0.59848  -0.58908
  Beta  occ. eigenvalues --   -0.58169  -0.54255  -0.50530  -0.49047  -0.45184
  Beta  occ. eigenvalues --   -0.43263  -0.41335  -0.39984  -0.38845  -0.36847
  Beta  occ. eigenvalues --   -0.36736  -0.35287  -0.34867  -0.34188  -0.33397
  Beta  occ. eigenvalues --   -0.32697  -0.32171  -0.32108  -0.29883  -0.29730
  Beta  occ. eigenvalues --   -0.29452  -0.28687  -0.28458  -0.28036  -0.26638
  Beta  occ. eigenvalues --   -0.26342  -0.25502  -0.24825  -0.24241  -0.23926
  Beta  occ. eigenvalues --   -0.22928  -0.22330  -0.21078  -0.17886  -0.17027
  Beta  occ. eigenvalues --   -0.15907  -0.15045  -0.13562  -0.12986  -0.12642
  Beta  occ. eigenvalues --   -0.08124
  Beta virt. eigenvalues --    0.06841   0.07853   0.08904   0.09058   0.10219
  Beta virt. eigenvalues --    0.10386   0.10582   0.10949   0.11683   0.11842
  Beta virt. eigenvalues --    0.12321   0.12499   0.12502   0.13243   0.13439

 Mulliken charges and spin densities:
               1          2
     1  C   -0.746373  -0.003984
     2  C   -0.185955   0.097308
     3  C    0.415804   0.015204
     4  N    0.094642  -0.040490
     5  C   -0.263007  -0.032567
     6  C   -0.176666   0.500393
     7  S   -0.373784   0.177879
     8  C   -0.374666   0.213966
     9  O   -0.397145   0.063885
    10  O   -0.206419   0.015905
    11  N   -0.106801   0.025285
    12  C   -0.024512   0.000014
    13  O   -0.328591   0.000440
    14  N   -0.231984  -0.000751
    15  C   -0.397251   0.016148
    16  C    0.686342  -0.002653
    17  C   -0.653072  -0.000433
    18  C   -0.583086   0.003202
    19  C   -0.628842  -0.008927
    20  H    0.155260  -0.004990
    21  H    0.147624   0.010407
    22  H    0.185233   0.001430
    23  H    0.231641  -0.001314
    24  H    0.227113  -0.040294
    25  H    0.253755  -0.000257
    26  H    0.305178   0.003662
    27  H    0.297607  -0.000076
    28  H    0.174453   0.001151
    29  H    0.117567  -0.002644
    30  H    0.127664  -0.000025
    31  H    0.137349  -0.000054
    32  H    0.169547   0.000279
    33  H    0.221210  -0.001799
    34  H    0.123982   0.000466
    35  H    0.108884   0.000362
    36  H    0.161172  -0.012102
    37  H    0.180562   0.006381
    38  H    0.155565  -0.000408
 Sum of Mulliken charges =  -1.00000   1.00000

 Dipole moment (field-independent basis, Debye):
    X=              6.0172    Y=              1.4981    Z=             -2.4430  Tot=              6.6648
 Quadrupole moment (field-independent basis, Debye-Ang):
   XX=           -192.7051   YY=           -134.7465   ZZ=           -133.8394
   XY=              8.7053   XZ=             -0.8331   YZ=              1.0727

 Summary of Natural Population Analysis:

                                       Natural Population
                Natural  -----------------------------------------------
    Atom  No    Charge         Core      Valence    Rydberg      Total
 -----------------------------------------------------------------------
      C    1   -0.28239      0.99965     2.27827    0.00447     3.28239
      C    2   -0.03732      0.99952     2.02673    0.01107     3.03732
      C    3    0.05432      0.99958     1.92853    0.01757     2.94568
      N    4   -0.25571      0.99963     2.74440    0.01168     3.75571
      C    5   -0.01677      0.99941     2.00315    0.01420     3.01677
      C    6   -0.02966      0.99951     2.02057    0.00958     3.02966
      S    7    0.18741      4.99942     2.79249    0.02067     7.81259
      C    8    0.42225      0.99965     1.55427    0.02382     2.57775
      O    9   -0.32099      0.99987     3.31457    0.00655     4.32099
      O   10   -0.34272      0.99988     3.33630    0.00654     4.34272
      N   11   -0.32638      0.99966     2.81496    0.01177     3.82638
      C   12    0.40718      0.99970     1.57077    0.02235     2.59282
      O   13   -0.34772      0.99988     3.34216    0.00568     4.34772
      N   14   -0.33840      0.99968     2.82811    0.01061     3.83840
      C   15   -0.09676      0.99954     2.08572    0.01149     3.09676
      C   16   -0.05290      0.99959     2.04475    0.00855     3.05290
      C   17   -0.28980      0.99963     2.28429    0.00588     3.28980
      C   18   -0.28811      0.99963     2.28254    0.00595     3.28811
      C   19   -0.28916      0.99963     2.28335    0.00618     3.28916
      H   20    0.09931      0.00000     0.39973    0.00096     0.40069
      H   21    0.09532      0.00000     0.40376    0.00092     0.40468
      H   22    0.10575      0.00000     0.39350    0.00075     0.39425
      H   23    0.10979      0.00000     0.38837    0.00184     0.39021
      H   24    0.10418      0.00000     0.39480    0.00102     0.39582
      H   25    0.22494      0.00000     0.26949    0.00557     0.27506
      H   26    0.19220      0.00000     0.30632    0.00149     0.30780
      H   27    0.18853      0.00000     0.30997    0.00150     0.31147
      H   28    0.09131      0.00000     0.40780    0.00088     0.40869
      H   29    0.12229      0.00000     0.37594    0.00176     0.37771
      H   30    0.09310      0.00000     0.40606    0.00084     0.40690
      H   31    0.09815      0.00000     0.40104    0.00081     0.40185
      H   32    0.10164      0.00000     0.39741    0.00095     0.39836
      H   33    0.11783      0.00000     0.38123    0.00094     0.38217
      H   34    0.09585      0.00000     0.40334    0.00081     0.40415
      H   35    0.09215      0.00000     0.40706    0.00079     0.40785
      H   36    0.11527      0.00000     0.38342    0.00131     0.38473
      H   37    0.10225      0.00000     0.39704    0.00071     0.39775
      H   38    0.09376      0.00000     0.40545    0.00080     0.40624
 =======================================================================
   * Total *   -0.00000     22.99306    52.76768    0.23926    76.00000

 Normal termination of Gaussian 16 at Mon Dec 14 20:30:32 2020.
