 Gaussian 16, Revision A.03,

 -----------------------------------------------------------
 # opt freq B3LYP/6-31G(d) empiricaldispersion=gd3bj scf=xqc
 -----------------------------------------------------------

 ----------------------------
 CID_262805_JID_4585_neutraal
 ----------------------------
 Symbolic Z-matrix:
 Charge =  0 Multiplicity = 1

 SCF Done:  E(RB3LYP) =  -656.920732607     A.U. after   14 cycles
 SCF Done:  E(RB3LYP) =  -656.925760743     A.U. after   12 cycles
 SCF Done:  E(RB3LYP) =  -656.926088576     A.U. after   11 cycles
 SCF Done:  E(RB3LYP) =  -656.926190453     A.U. after   11 cycles
 SCF Done:  E(RB3LYP) =  -656.926386963     A.U. after   11 cycles
 SCF Done:  E(RB3LYP) =  -656.926458695     A.U. after   10 cycles
 SCF Done:  E(RB3LYP) =  -656.926481857     A.U. after   10 cycles
 SCF Done:  E(RB3LYP) =  -656.926503731     A.U. after   10 cycles
 SCF Done:  E(RB3LYP) =  -656.926514349     A.U. after   10 cycles
 SCF Done:  E(RB3LYP) =  -656.926528916     A.U. after   10 cycles
 SCF Done:  E(RB3LYP) =  -656.926535904     A.U. after   10 cycles
 SCF Done:  E(RB3LYP) =  -656.926536241     A.U. after    9 cycles
 SCF Done:  E(RB3LYP) =  -656.926536811     A.U. after    9 cycles
 SCF Done:  E(RB3LYP) =  -656.926537115     A.U. after    7 cycles
 SCF Done:  E(RB3LYP) =  -656.926537152     A.U. after    7 cycles
 Optimization completed.
    -- Stationary point found.
 Normal termination of Gaussian 16 at Thu Dec 10 10:15:14 2020.

 --------------------------------------------------------------------
 #N Geom=AllCheck Guess=TCheck SCRF=Check GenChk RB3LYP/6-31G(d) Freq
 --------------------------------------------------------------------

 Structure from the checkpoint file:  "JID_4585.chk"
 ----------------------------
 CID_262805_JID_4585_neutraal
 ----------------------------
 Charge =  0 Multiplicity = 1

 SCF Done:  E(RB3LYP) =  -656.926537152     A.U. after    1 cycles

  Exact polarizability: 137.071   1.683 113.678  -3.916  -0.075 110.023
 Approx polarizability: 169.203  -0.381 176.205  -6.550   2.251 156.368

                      1                      2                      3
                      A                      A                      A
 Frequencies --     15.7357                35.0683                76.0925
 Red. masses --      4.3748                 4.3510                 3.4823
 Frc consts  --      0.0006                 0.0032                 0.0119
 IR Inten    --      1.5067                 0.4631                 1.7725

                      4                      5                      6
                      A                      A                      A
 Frequencies --     79.3439               114.4149               135.6394
 Red. masses --      3.2704                 3.6241                 1.1560
 Frc consts  --      0.0121                 0.0280                 0.0125
 IR Inten    --      1.0541                 0.3329                 0.5391

                      7                      8                      9
                      A                      A                      A
 Frequencies --    167.7454               187.2974               205.8521
 Red. masses --      3.4159                 2.5779                 2.3335
 Frc consts  --      0.0566                 0.0533                 0.0583
 IR Inten    --      3.6949                 1.1245                 2.8720

                     10                     11                     12
                      A                      A                      A
 Frequencies --    228.8466               266.8463               272.4476
 Red. masses --      1.1865                 2.3005                 1.3864
 Frc consts  --      0.0366                 0.0965                 0.0606
 IR Inten    --      0.2000                 1.5400                 6.7069

                     13                     14                     15
                      A                      A                      A
 Frequencies --    280.6387               293.4533               303.8166
 Red. masses --      2.6308                 1.4208                 1.3982
 Frc consts  --      0.1221                 0.0721                 0.0760
 IR Inten    --      7.9720                19.2417                30.7998

                     16                     17                     18
                      A                      A                      A
 Frequencies --    310.5014               332.4294               354.2354
 Red. masses --      1.5273                 2.2606                 2.5430
 Frc consts  --      0.0868                 0.1472                 0.1880
 IR Inten    --     10.1317                40.5978                 8.5133

                     19                     20                     21
                      A                      A                      A
 Frequencies --    364.5745               401.3992               430.0935
 Red. masses --      2.7785                 2.5119                 2.9237
 Frc consts  --      0.2176                 0.2385                 0.3186
 IR Inten    --     12.2340                 6.9878                 5.1149

                     22                     23                     24
                      A                      A                      A
 Frequencies --    489.4756               504.8638               522.8686
 Red. masses --      2.8514                 2.4833                 2.8814
 Frc consts  --      0.4025                 0.3729                 0.4641
 IR Inten    --     12.5137                 3.7046                 0.3009

                     25                     26                     27
                      A                      A                      A
 Frequencies --    593.5454               641.5907               710.4301
 Red. masses --      2.7739                 3.6944                 4.0021
 Frc consts  --      0.5758                 0.8960                 1.1901
 IR Inten    --      4.6347                 2.3940                 5.4818

                     28                     29                     30
                      A                      A                      A
 Frequencies --    793.6829               808.3796               866.3823
 Red. masses --      2.0530                 2.4250                 2.0552
 Frc consts  --      0.7620                 0.9337                 0.9089
 IR Inten    --      3.5111                 1.2138                 1.8049

                     31                     32                     33
                      A                      A                      A
 Frequencies --    905.8869               909.4152               937.0558
 Red. masses --      3.7651                 2.9391                 2.0411
 Frc consts  --      1.8204                 1.4321                 1.0559
 IR Inten    --      2.6778                15.0540                 1.3281

                     34                     35                     36
                      A                      A                      A
 Frequencies --    960.2382               979.0948               988.4517
 Red. masses --      1.6767                 1.9023                 1.6292
 Frc consts  --      0.9109                 1.0744                 0.9379
 IR Inten    --      3.0753                 2.2642                 8.8598

                     37                     38                     39
                      A                      A                      A
 Frequencies --   1009.5497              1016.1191              1037.2968
 Red. masses --      1.6775                 1.5192                 3.2812
 Frc consts  --      1.0073                 0.9242                 2.0802
 IR Inten    --      0.7265                 7.9789                 6.1865

                     40                     41                     42
                      A                      A                      A
 Frequencies --   1044.3495              1061.7896              1091.1186
 Red. masses --      2.1700                 2.1121                 1.8406
 Frc consts  --      1.3945                 1.4029                 1.2911
 IR Inten    --     14.7142                33.0353                74.2741

                     43                     44                     45
                      A                      A                      A
 Frequencies --   1122.2126              1157.8250              1179.5050
 Red. masses --      2.1674                 2.3762                 1.4883
 Frc consts  --      1.6082                 1.8768                 1.2200
 IR Inten    --     17.9000                14.2986                15.3464

                     46                     47                     48
                      A                      A                      A
 Frequencies --   1186.0760              1194.7276              1209.9052
 Red. masses --      1.2782                 1.7730                 1.8633
 Frc consts  --      1.0594                 1.4911                 1.6071
 IR Inten    --      1.0401                33.3762                77.2685

                     49                     50                     51
                      A                      A                      A
 Frequencies --   1215.5279              1228.2567              1238.3720
 Red. masses --      1.6607                 1.6822                 1.9005
 Frc consts  --      1.4457                 1.4952                 1.7172
 IR Inten    --     15.2068                90.3424               131.5122

                     52                     53                     54
                      A                      A                      A
 Frequencies --   1259.5864              1272.6345              1296.3685
 Red. masses --      2.0524                 1.6275                 1.4604
 Frc consts  --      1.9186                 1.5530                 1.4461
 IR Inten    --     13.4212                11.4999                 2.6027

                     55                     56                     57
                      A                      A                      A
 Frequencies --   1300.5469              1309.8419              1345.3503
 Red. masses --      1.9158                 1.8753                 1.3766
 Frc consts  --      1.9092                 1.8956                 1.4680
 IR Inten    --      4.1927                51.2900                 9.0828

                     58                     59                     60
                      A                      A                      A
 Frequencies --   1365.4436              1407.8883              1425.6737
 Red. masses --      1.6219                 1.4714                 1.2986
 Frc consts  --      1.7817                 1.7183                 1.5551
 IR Inten    --     54.8457                19.8264                14.8640

                     61                     62                     63
                      A                      A                      A
 Frequencies --   1430.1748              1431.8413              1440.1805
 Red. masses --      1.5177                 1.2711                 1.2206
 Frc consts  --      1.8290                 1.5354                 1.4916
 IR Inten    --      6.2323                25.4561                30.6245

                     64                     65                     66
                      A                      A                      A
 Frequencies --   1449.3949              1489.7519              1493.8821
 Red. masses --      1.2233                 1.0869                 1.2270
 Frc consts  --      1.5141                 1.4212                 1.6133
 IR Inten    --     21.6067                 3.5695                14.9684

                     67                     68                     69
                      A                      A                      A
 Frequencies --   1512.9531              1516.3897              1521.4381
 Red. masses --      1.0480                 1.0530                 1.0850
 Frc consts  --      1.4134                 1.4266                 1.4797
 IR Inten    --      5.8177                 2.7131                 0.7860

                     70                     71                     72
                      A                      A                      A
 Frequencies --   1523.1841              1524.2537              1525.1450
 Red. masses --      1.0509                 1.0558                 1.0482
 Frc consts  --      1.4366                 1.4453                 1.4366
 IR Inten    --      2.7349                 6.5033                11.5449

                     73                     74                     75
                      A                      A                      A
 Frequencies --   1526.8348              1541.0071              1547.2898
 Red. masses --      1.0589                 1.0554                 1.0523
 Frc consts  --      1.4545                 1.4767                 1.4843
 IR Inten    --      0.7258                11.6028                11.3690

                     76                     77                     78
                      A                      A                      A
 Frequencies --   1818.1786              3010.1847              3036.4131
 Red. masses --     10.9239                 1.0836                 1.0353
 Frc consts  --     21.2766                 5.7849                 5.6241
 IR Inten    --    164.0201                25.5687                30.8591

                     79                     80                     81
                      A                      A                      A
 Frequencies --   3040.0510              3042.6913              3053.3896
 Red. masses --      1.0691                 1.0455                 1.0375
 Frc consts  --      5.8216                 5.7030                 5.6993
 IR Inten    --     12.4087                16.8335                22.3362

                     82                     83                     84
                      A                      A                      A
 Frequencies --   3068.4670              3074.8925              3077.4987
 Red. masses --      1.0826                 1.0298                 1.0639
 Frc consts  --      6.0055                 5.7364                 5.9368
 IR Inten    --     37.0354                33.5722                22.0594

                     85                     86                     87
                      A                      A                      A
 Frequencies --   3086.8559              3100.2798              3104.2138
 Red. masses --      1.0821                 1.0998                 1.0943
 Frc consts  --      6.0748                 6.2281                 6.2130
 IR Inten    --      6.7300                 9.9006                43.0699

                     88                     89                     90
                      A                      A                      A
 Frequencies --   3111.6961              3115.4641              3116.8541
 Red. masses --      1.1019                 1.1001                 1.0941
 Frc consts  --      6.2862                 6.2909                 6.2625
 IR Inten    --     11.9960                48.7737                29.9179

                     91                     92                     93
                      A                      A                      A
 Frequencies --   3127.4876              3129.0665              3146.9145
 Red. masses --      1.1061                 1.1022                 1.1011
 Frc consts  --      6.3746                 6.3583                 6.4245
 IR Inten    --     16.2683                46.6895                21.0534

                     94                     95                     96
                      A                      A                      A
 Frequencies --   3148.5360              3182.1680              3717.1835
 Red. masses --      1.1074                 1.1070                 1.0657
 Frc consts  --      6.4679                 6.6047                 8.6762
 IR Inten    --     22.4122                18.6680                 7.7249

 - Thermochemistry -
 -------------------
 Temperature   298.150 Kelvin.  Pressure   1.00000 Atm.
 Atom     1 has atomic number  6 and mass  12.00000

 Molecular mass:   200.14124 amu.
 Principal axes and moments of inertia in atomic units:
                           1         2         3
     Eigenvalues --  1616.584604838.704245135.15965
           X            0.99993   0.01131   0.00185
           Y           -0.01127   0.99971  -0.02111
           Z           -0.00208   0.02109   0.99978
 This molecule is an asymmetric top.
 Rotational symmetry number  1.
 Warning -- assumption of classical behavior for rotation
           may cause significant error
 Rotational temperatures (Kelvin)      0.05358     0.01790     0.01687
 Rotational constants (GHZ):           1.11639     0.37298     0.35145
 Zero-point vibrational energy     790887.2 (Joules/Mol)
                                  189.02657 (Kcal/Mol)
 Warning -- explicit consideration of  25 degrees of freedom as
           vibrations may cause significant error
 Vibrational temperatures:     22.64    50.46   109.48   114.16   164.62
          (Kelvin)            195.15   241.35   269.48   296.18   329.26
                              383.93   391.99   403.78   422.21   437.12
                              446.74   478.29   509.67   524.54   577.52
                              618.81   704.25   726.39   752.29   853.98
                              923.11  1022.15  1141.93  1163.08  1246.53
                             1303.37  1308.45  1348.21  1381.57  1408.70
                             1422.16  1452.52  1461.97  1492.44  1502.59
                             1527.68  1569.88  1614.61  1665.85  1697.04
                             1706.50  1718.95  1740.78  1748.87  1767.19
                             1781.74  1812.26  1831.04  1865.19  1871.20
                             1884.57  1935.66  1964.57  2025.64  2051.23
                             2057.70  2060.10  2072.10  2085.36  2143.42
                             2149.36  2176.80  2181.75  2189.01  2191.52
                             2193.06  2194.34  2196.77  2217.17  2226.20
                             2615.95  4330.98  4368.72  4373.96  4377.75
                             4393.15  4414.84  4424.08  4427.83  4441.30
                             4460.61  4466.27  4477.04  4482.46  4484.46
                             4499.76  4502.03  4527.71  4530.04  4578.43
                             5348.20

 Zero-point correction=                           0.301233 (Hartree/Particle)
 Thermal correction to Energy=                    0.317397
 Thermal correction to Enthalpy=                  0.318341
 Thermal correction to Gibbs Free Energy=         0.257059
 Sum of electronic and zero-point Energies=           -656.625304
 Sum of electronic and thermal Energies=              -656.609140
 Sum of electronic and thermal Enthalpies=            -656.608196
 Sum of electronic and thermal Free Energies=         -656.669478

                     E (Thermal)             CV                S
                      KCal/Mol        Cal/Mol-Kelvin    Cal/Mol-Kelvin
 Total                  199.169             60.133            128.979
 Electronic               0.000              0.000              0.000
 Translational            0.889              2.981             41.786
 Rotational               0.889              2.981             32.063
 Vibrational            197.392             54.172             55.129
 Vibration     1          0.593              1.986              7.110
 Vibration     2          0.594              1.982              5.520
 Vibration     3          0.599              1.965              3.989
 Vibration     4          0.600              1.963              3.907
 Vibration     5          0.607              1.937              3.193
 Vibration     6          0.613              1.918              2.864
 Vibration     7          0.624              1.882              2.461
 Vibration     8          0.632              1.857              2.254
 Vibration     9          0.640              1.832              2.080
 Vibration    10          0.652              1.797              1.888
 Vibration    11          0.672              1.734              1.617
 Vibration    12          0.675              1.724              1.581
 Vibration    13          0.680              1.709              1.530
 Vibration    14          0.688              1.686              1.454
 Vibration    15          0.695              1.666              1.396
 Vibration    16          0.699              1.654              1.360
 Vibration    17          0.714              1.611              1.248
 Vibration    18          0.730              1.567              1.147
 Vibration    19          0.738              1.545              1.103
 Vibration    20          0.767              1.467              0.958
 Vibration    21          0.791              1.405              0.858
 Vibration    22          0.845              1.273              0.685
 Vibration    23          0.860              1.239              0.646
 Vibration    24          0.878              1.199              0.603
 Vibration    25          0.951              1.046              0.461

                           ! Non-Optimized Parameters !
 Normal termination of Gaussian 16 at Thu Dec 10 10:25:43 2020.

 ----------------------------------------------------------------------
 # B3LYP/6-311++G(d,p) empiricaldispersion=gd3bj scf=xqc pop=npa geom=c
 heck
 ----------------------------------------------------------------------

 ------------------------------------
 CID_262805_JID_4585_Energie_neutraal
 ------------------------------------
 Structure from the checkpoint file:  "JID_4585.chk"
 Charge =  0 Multiplicity = 1

 SCF Done:  E(RB3LYP) =  -657.125746695     A.U. after   15 cycles
 Normal termination of Gaussian 16 at Thu Dec 10 10:30:15 2020.

 ----------------------------------------------------------------------
 # B3LYP/6-311++G(d,p) empiricaldispersion=gd3bj scf=xqc pop=npa geom=c
 heck
 ----------------------------------------------------------------------

 ----------------------------------
 CID_262805_JID_4585_Energie_kation
 ----------------------------------
 Structure from the checkpoint file:  "JID_4585.chk"
 Charge =  1 Multiplicity = 2

 SCF Done:  E(UB3LYP) =  -656.788805326     A.U. after   28 cycles
 Normal termination of Gaussian 16 at Thu Dec 10 10:41:35 2020.
 Gaussian 16:  ES64L-G16RevA.03 25-Dec-2016

 ----------------------------------------------------------------------
 # B3LYP/6-311++G(d,p) empiricaldispersion=gd3bj scf=xqc pop=npa geom=c
 heck
 ----------------------------------------------------------------------

 ---------------------------------
 CID_262805_JID_4585_Energie_anion
 ---------------------------------
 Structure from the checkpoint file:  "JID_4585.chk"
 Charge = -1 Multiplicity = 2

                         Standard orientation:
 ---------------------------------------------------------------------
 Center     Atomic      Atomic             Coordinates (Angstroms)
 Number     Number       Type             X           Y           Z
 ---------------------------------------------------------------------
      1          6           0        3.170670   -0.793898    1.579792
      2          6           0        2.428071   -0.953371    0.253719
      3          6           0        1.954182    0.378128   -0.336921
      4          6           0        1.252600    0.232215   -1.712656
      5          6           0       -0.107667    0.622800   -1.079372
      6          6           0        0.646298    1.049753    0.233451
      7          6           0        0.797954    2.572596    0.276574
      8          6           0        0.080454    0.563936    1.567190
      9          6           0       -1.096101   -0.532891   -0.983267
     10          6           0       -2.398786   -0.142660   -0.318114
     11          8           0       -2.791875    0.992101   -0.144999
     12          8           0       -3.102352   -1.235295    0.053295
     13          6           0       -4.371802   -0.964342    0.667695
     14          8           0        3.250621   -1.652093   -0.689545
     15          1           0        4.043086   -0.139594    1.448327
     16          1           0        3.524661   -1.767740    1.931826
     17          1           0        2.537615   -0.350745    2.353463
     18          1           0        1.571483   -1.622495    0.394531
     19          1           0        2.812955    1.065807   -0.339494
     20          1           0        1.312854   -0.772507   -2.140691
     21          1           0        1.603876    0.944987   -2.464138
     22          1           0       -0.615686    1.464336   -1.559228
     23          1           0        1.486031    2.875959    1.075633
     24          1           0        1.191405    2.962256   -0.669877
     25          1           0       -0.173247    3.047407    0.457732
     26          1           0       -0.022931   -0.524679    1.620058
     27          1           0        0.720640    0.876118    2.400005
     28          1           0       -0.908483    1.003448    1.731547
     29          1           0       -1.342850   -0.887054   -1.994592
     30          1           0       -0.679635   -1.402219   -0.463779
     31          1           0       -4.237478   -0.378377    1.580859
     32          1           0       -5.019403   -0.409025   -0.015864
     33          1           0       -4.800865   -1.940005    0.896813
     34          1           0        4.009582   -1.077180   -0.881693
 ---------------------------------------------------------------------

 SCF Done:  E(UB3LYP) =  -657.111656590     A.U. after   33 cycles
 SCF Done:  E(UB3LYP) =  -657.111656590     a.u. after    1 cycles

 The electronic state is 2-A.
 Alpha  occ. eigenvalues --  -19.07786 -19.02352 -19.02110 -10.20992 -10.12835
 Alpha  occ. eigenvalues --  -10.12556 -10.09217 -10.08908 -10.07850 -10.07311
 Alpha  occ. eigenvalues --  -10.06603 -10.06462 -10.06346 -10.06318  -1.01738
 Alpha  occ. eigenvalues --   -0.92978  -0.92569  -0.76815  -0.68738  -0.66088
 Alpha  occ. eigenvalues --   -0.64858  -0.61930  -0.59107  -0.55637  -0.51221
 Alpha  occ. eigenvalues --   -0.50766  -0.47334  -0.43227  -0.41811  -0.40370
 Alpha  occ. eigenvalues --   -0.38892  -0.38417  -0.38054  -0.36700  -0.35328
 Alpha  occ. eigenvalues --   -0.34156  -0.33415  -0.32359  -0.31855  -0.31041
 Alpha  occ. eigenvalues --   -0.29612  -0.29094  -0.28489  -0.28052  -0.27743
 Alpha  occ. eigenvalues --   -0.27152  -0.25916  -0.24464  -0.22638  -0.21901
 Alpha  occ. eigenvalues --   -0.21523  -0.20259  -0.19491  -0.18946  -0.17518
 Alpha  occ. eigenvalues --    0.04228
 Alpha virt. eigenvalues --    0.05589   0.07124   0.07648   0.07891   0.08522
 Alpha virt. eigenvalues --    0.09096   0.09209   0.09861   0.10299   0.10747
 Alpha virt. eigenvalues --    0.10991   0.11198   0.12460   0.12910   0.13095

  Beta  occ. eigenvalues --  -19.07780 -19.02321 -19.02103 -10.20991 -10.12785
  Beta  occ. eigenvalues --  -10.12550 -10.09209 -10.08906 -10.07845 -10.07294
  Beta  occ. eigenvalues --  -10.06592 -10.06433 -10.06331 -10.06300  -1.01726
  Beta  occ. eigenvalues --   -0.92965  -0.92504  -0.76797  -0.68715  -0.66052
  Beta  occ. eigenvalues --   -0.64826  -0.61876  -0.59072  -0.55586  -0.51175
  Beta  occ. eigenvalues --   -0.50710  -0.47290  -0.43199  -0.41789  -0.40346
  Beta  occ. eigenvalues --   -0.38863  -0.38369  -0.38018  -0.36667  -0.35286
  Beta  occ. eigenvalues --   -0.34118  -0.33388  -0.32329  -0.31826  -0.31011
  Beta  occ. eigenvalues --   -0.29594  -0.29070  -0.28454  -0.28030  -0.27709
  Beta  occ. eigenvalues --   -0.27116  -0.25891  -0.24432  -0.22613  -0.21883
  Beta  occ. eigenvalues --   -0.21491  -0.20233  -0.19462  -0.18935  -0.17491
  Beta virt. eigenvalues --    0.06387   0.06953   0.07502   0.08016   0.08376
  Beta virt. eigenvalues --    0.08711   0.09638   0.09803   0.10123   0.10392
  Beta virt. eigenvalues --    0.11104   0.11390   0.11655   0.12604   0.13003

 Mulliken charges and spin densities:
               1          2
     1  C    1.007386  -1.518624
     2  C   -1.060320   0.709017
     3  C    0.009021   0.074570
     4  C    0.079855  -0.997387
     5  C   -0.212117   0.750004
     6  C   -0.679790   0.896562
     7  C    0.937742  -1.442950
     8  C    0.113115  -0.677722
     9  C    0.957330  -1.485015
    10  C   -1.161858   0.771648
    11  O   -0.226731   0.019224
    12  O   -0.071969   0.079932
    13  C    1.003525  -1.212629
    14  O   -0.154525  -0.009283
    15  H   -0.327540   0.483935
    16  H   -0.019856   0.163041
    17  H    0.047723   0.091615
    18  H   -0.055119   0.243357
    19  H   -0.476753   0.681320
    20  H    0.124208   0.070336
    21  H   -0.217888   0.367558
    22  H    0.166341   0.093901
    23  H   -0.025525   0.166201
    24  H   -0.074157   0.217297
    25  H    0.112345   0.038481
    26  H    0.158317  -0.025374
    27  H   -0.073439   0.234581
    28  H    0.043049   0.105567
    29  H   -0.055264   0.246981
    30  H    0.312495  -0.056489
    31  H   -0.257039   0.428160
    32  H   -0.314322   0.484750
    33  H   -0.603979   0.759195
    34  H   -0.004263   0.248241
 Sum of Mulliken charges =  -1.00000   1.00000

 Dipole moment (field-independent basis, Debye):
    X=              0.5101    Y=              0.5405    Z=             -0.7819  Tot=              1.0787
 Quadrupole moment (field-independent basis, Debye-Ang):
   XX=           -188.8122   YY=           -128.8467   ZZ=           -121.7188
   XY=             -7.7557   XZ=              8.3560   YZ=              2.1439

 Summary of Natural Population Analysis:

                                       Natural Population
                Natural  -----------------------------------------------
    Atom  No    Charge         Core      Valence    Rydberg      Total
 -----------------------------------------------------------------------
      C    1   -0.29499      0.99964     2.28982    0.00553     3.29499
      C    2    0.06253      0.99954     1.92498    0.01295     2.93747
      C    3   -0.11564      0.99954     2.10145    0.01466     3.11564
      C    4   -0.18802      0.99961     2.17828    0.01013     3.18802
      C    5   -0.10355      0.99956     2.09206    0.01194     3.10355
      C    6   -0.03076      0.99955     2.01780    0.01341     3.03076
      C    7   -0.28167      0.99962     2.27472    0.00733     3.28167
      C    8   -0.29545      0.99962     2.28884    0.00699     3.29545
      C    9   -0.23880      0.99955     2.23013    0.00912     3.23880
      C   10    0.41338      0.99969     1.56175    0.02518     2.58662
      O   11   -0.30760      0.99987     3.30238    0.00535     4.30760
      O   12   -0.27901      0.99986     3.26984    0.00931     4.27901
      C   13   -0.10433      0.99959     2.09564    0.00910     3.10433
      O   14   -0.37189      0.99990     3.36554    0.00645     4.37189
      H   15    0.09863      0.00000     0.39981    0.00156     0.40137
      H   16    0.10141      0.00000     0.39775    0.00084     0.39859
      H   17    0.10215      0.00000     0.39679    0.00105     0.39785
      H   18    0.08321      0.00000     0.41457    0.00223     0.41679
      H   19    0.09782      0.00000     0.39966    0.00252     0.40218
      H   20    0.10375      0.00000     0.39493    0.00131     0.39625
      H   21    0.10144      0.00000     0.39747    0.00110     0.39856
      H   22    0.10362      0.00000     0.39498    0.00140     0.39638
      H   23    0.09876      0.00000     0.40036    0.00088     0.40124
      H   24    0.09950      0.00000     0.39953    0.00098     0.40050
      H   25    0.10268      0.00000     0.39648    0.00084     0.39732
      H   26    0.09899      0.00000     0.39984    0.00117     0.40101
      H   27    0.10146      0.00000     0.39764    0.00090     0.39854
      H   28    0.10891      0.00000     0.39004    0.00105     0.39109
      H   29    0.11602      0.00000     0.38302    0.00096     0.38398
      H   30    0.11150      0.00000     0.38674    0.00175     0.38850
      H   31    0.09274      0.00000     0.40569    0.00157     0.40726
      H   32    0.09162      0.00000     0.40689    0.00149     0.40838
      H   33    0.09426      0.00000     0.40368    0.00206     0.40574
      H   34    0.22734      0.00000     0.26898    0.00368     0.27266
 =======================================================================
   * Total *   -0.00000     13.99515    40.82807    0.17678    55.00000

 Normal termination of Gaussian 16 at Thu Dec 10 10:56:42 2020.
