 Gaussian 16, Revision A.03,

 -----------------------------------------------------------
 # opt freq B3LYP/6-31G(d) empiricaldispersion=gd3bj scf=xqc
 -----------------------------------------------------------

 -------------------------------
 CID_123525109_JID_6461_neutraal
 -------------------------------
 Symbolic Z-matrix:
 Charge =  0 Multiplicity = 1

 SCF Done:  E(RB3LYP) =  -747.845835643     A.U. after   15 cycles
 SCF Done:  E(RB3LYP) =  -747.857105158     A.U. after   14 cycles
 SCF Done:  E(RB3LYP) =  -747.859595440     A.U. after   13 cycles
 SCF Done:  E(RB3LYP) =  -747.860777635     A.U. after   13 cycles
 SCF Done:  E(RB3LYP) =  -747.860943786     A.U. after   13 cycles
 SCF Done:  E(RB3LYP) =  -747.861260763     A.U. after   13 cycles
 SCF Done:  E(RB3LYP) =  -747.861737989     A.U. after   12 cycles
 SCF Done:  E(RB3LYP) =  -747.861842029     A.U. after   12 cycles
 SCF Done:  E(RB3LYP) =  -747.861869983     A.U. after   11 cycles
 SCF Done:  E(RB3LYP) =  -747.861887298     A.U. after   11 cycles
 SCF Done:  E(RB3LYP) =  -747.861895260     A.U. after   11 cycles
 SCF Done:  E(RB3LYP) =  -747.861898159     A.U. after    9 cycles
 SCF Done:  E(RB3LYP) =  -747.861899102     A.U. after    9 cycles
 SCF Done:  E(RB3LYP) =  -747.861899287     A.U. after    8 cycles
 Optimization completed.
    -- Stationary point found.
 Normal termination of Gaussian 16 at Thu Dec 10 23:02:10 2020.

 --------------------------------------------------------------------
 #N Geom=AllCheck Guess=TCheck SCRF=Check GenChk RB3LYP/6-31G(d) Freq
 --------------------------------------------------------------------

 Structure from the checkpoint file:  "JID_6461.chk"
 -------------------------------
 CID_123525109_JID_6461_neutraal
 -------------------------------
 Charge =  0 Multiplicity = 1

 SCF Done:  E(RB3LYP) =  -747.861899287     A.U. after    1 cycles

  Exact polarizability: 158.102   2.756 122.153  -5.941   5.402 127.077
 Approx polarizability: 214.321  15.305 182.297 -10.946  11.780 217.235

                      1                      2                      3
                      A                      A                      A
 Frequencies --     47.1639                51.5478                87.5248
 Red. masses --      5.0082                 4.3710                 3.6389
 Frc consts  --      0.0066                 0.0068                 0.0164
 IR Inten    --      2.0104                 0.9741                 1.2204

                      4                      5                      6
                      A                      A                      A
 Frequencies --    106.5376               129.4978               141.8637
 Red. masses --      3.3959                 2.1446                 1.5441
 Frc consts  --      0.0227                 0.0212                 0.0183
 IR Inten    --      3.5399                 0.8967                 0.4938

                      7                      8                      9
                      A                      A                      A
 Frequencies --    160.2353               175.5023               202.9613
 Red. masses --      3.0528                 3.0035                 2.2768
 Frc consts  --      0.0462                 0.0545                 0.0553
 IR Inten    --      1.9246                 2.0977                 2.1186

                     10                     11                     12
                      A                      A                      A
 Frequencies --    221.2265               233.7652               242.6826
 Red. masses --      3.4150                 1.2744                 2.3990
 Frc consts  --      0.0985                 0.0410                 0.0832
 IR Inten    --      2.2347                 3.0649                 4.0629

                     13                     14                     15
                      A                      A                      A
 Frequencies --    257.3827               262.8359               295.4761
 Red. masses --      2.7042                 1.1581                 2.6452
 Frc consts  --      0.1055                 0.0471                 0.1361
 IR Inten    --      3.3258                 0.3131                12.7759

                     16                     17                     18
                      A                      A                      A
 Frequencies --    301.2118               317.5595               340.6746
 Red. masses --      2.9546                 4.5225                 2.6063
 Frc consts  --      0.1579                 0.2687                 0.1782
 IR Inten    --     18.5696                 7.2526                 3.4324

                     19                     20                     21
                      A                      A                      A
 Frequencies --    347.5033               364.8701               411.7453
 Red. masses --      1.5587                 2.3980                 3.1298
 Frc consts  --      0.1109                 0.1881                 0.3126
 IR Inten    --     99.6382                26.1759                20.7001

                     22                     23                     24
                      A                      A                      A
 Frequencies --    441.6808               462.4199               495.3689
 Red. masses --      4.4173                 4.2838                 3.0882
 Frc consts  --      0.5077                 0.5397                 0.4465
 IR Inten    --      4.9473                15.4018                 2.3449

                     25                     26                     27
                      A                      A                      A
 Frequencies --    525.8119               595.1692               625.5120
 Red. masses --      3.8700                 3.6244                 3.7554
 Frc consts  --      0.6304                 0.7564                 0.8657
 IR Inten    --      9.2922                 3.1619                 9.2544

                     28                     29                     30
                      A                      A                      A
 Frequencies --    644.2318               682.8372               734.7969
 Red. masses --      3.3148                 3.6888                 1.9375
 Frc consts  --      0.8106                 1.0134                 0.6164
 IR Inten    --     17.6493                 7.7202                27.0787

                     31                     32                     33
                      A                      A                      A
 Frequencies --    760.5933               784.7255               839.8135
 Red. masses --      3.7416                 3.8911                 4.0918
 Frc consts  --      1.2753                 1.4117                 1.7003
 IR Inten    --     23.3833                 2.1002                12.8750

                     34                     35                     36
                      A                      A                      A
 Frequencies --    846.8261               872.8401               882.7805
 Red. masses --      3.0418                 2.5964                 2.1923
 Frc consts  --      1.2852                 1.1654                 1.0066
 IR Inten    --     11.5561                14.0607                21.5919

                     37                     38                     39
                      A                      A                      A
 Frequencies --    938.4816               954.9861               967.7194
 Red. masses --      1.8676                 1.9974                 1.7198
 Frc consts  --      0.9691                 1.0733                 0.9489
 IR Inten    --      6.7995                23.5048                 4.7812

                     40                     41                     42
                      A                      A                      A
 Frequencies --    994.0504              1007.3311              1021.3675
 Red. masses --      1.8068                 1.3063                 2.2913
 Frc consts  --      1.0519                 0.7810                 1.4083
 IR Inten    --     22.2723                 0.0485                17.9367

                     43                     44                     45
                      A                      A                      A
 Frequencies --   1032.5865              1057.1613              1083.1998
 Red. masses --      1.9569                 1.7251                 4.9248
 Frc consts  --      1.2294                 1.1359                 3.4045
 IR Inten    --     14.9747                 9.4627               163.9484

                     46                     47                     48
                      A                      A                      A
 Frequencies --   1128.3478              1138.7850              1152.7354
 Red. masses --      1.6326                 2.9360                 2.0959
 Frc consts  --      1.2246                 2.2434                 1.6409
 IR Inten    --     15.6427                14.5005                 3.0949

                     49                     50                     51
                      A                      A                      A
 Frequencies --   1174.3437              1186.0156              1195.0151
 Red. masses --      2.1381                 1.2812                 3.5280
 Frc consts  --      1.7373                 1.0618                 2.9684
 IR Inten    --     21.7306                 1.9146               209.7631

                     52                     53                     54
                      A                      A                      A
 Frequencies --   1206.8743              1225.6753              1266.9352
 Red. masses --      3.2183                 1.7040                 1.4461
 Frc consts  --      2.7618                 1.5083                 1.3676
 IR Inten    --      3.4465                68.1677                 9.2432

                     55                     56                     57
                      A                      A                      A
 Frequencies --   1274.3792              1294.1762              1316.9806
 Red. masses --      1.3551                 1.9824                 1.9608
 Frc consts  --      1.2966                 1.9562                 2.0037
 IR Inten    --     17.4839                88.3690                66.7676

                     58                     59                     60
                      A                      A                      A
 Frequencies --   1360.2575              1390.2978              1398.5500
 Red. masses --      1.2212                 1.3613                 1.3232
 Frc consts  --      1.3313                 1.5503                 1.5248
 IR Inten    --      8.0881                10.7359                10.1997

                     61                     62                     63
                      A                      A                      A
 Frequencies --   1410.6219              1416.6745              1433.4530
 Red. masses --      1.4221                 1.2058                 1.2657
 Frc consts  --      1.6673                 1.4258                 1.5323
 IR Inten    --      9.7713                40.2769                16.3597

                     64                     65                     66
                      A                      A                      A
 Frequencies --   1435.6427              1492.1833              1512.6972
 Red. masses --      1.2415                 1.2048                 1.0478
 Frc consts  --      1.5076                 1.5805                 1.4127
 IR Inten    --      2.8095                 6.1297                 6.0727

                     67                     68                     69
                      A                      A                      A
 Frequencies --   1518.1736              1521.6796              1524.3947
 Red. masses --      1.0647                 1.0467                 1.0477
 Frc consts  --      1.4458                 1.4280                 1.4345
 IR Inten    --      3.6537                 3.7298                 9.5430

                     70                     71                     72
                      A                      A                      A
 Frequencies --   1527.8318              1532.3185              1532.8375
 Red. masses --      1.0597                 1.0600                 1.0637
 Frc consts  --      1.4574                 1.4663                 1.4725
 IR Inten    --      2.3112                18.2023                 0.9594

                     73                     74                     75
                      A                      A                      A
 Frequencies --   1638.7446              1655.7043              1734.5695
 Red. masses --      7.3090                 5.9501                 9.7850
 Frc consts  --     11.5647                 9.6104                17.3457
 IR Inten    --      1.6785                14.0659                77.0745

                     76                     77                     78
                      A                      A                      A
 Frequencies --   1826.8635              2998.7420              3047.1048
 Red. masses --     11.6292                 1.0854                 1.0598
 Frc consts  --     22.8671                 5.7509                 5.7977
 IR Inten    --    167.3446                45.0258                38.0648

                     79                     80                     81
                      A                      A                      A
 Frequencies --   3055.1742              3058.0627              3076.5599
 Red. masses --      1.0382                 1.0362                 1.0295
 Frc consts  --      5.7095                 5.7092                 5.7411
 IR Inten    --     14.9572                24.6143                34.4637

                     82                     83                     84
                      A                      A                      A
 Frequencies --   3108.1162              3109.6719              3124.0041
 Red. masses --      1.1059                 1.0866                 1.1004
 Frc consts  --      6.2944                 6.1906                 6.3275
 IR Inten    --     27.2642                19.0404                29.8236

                     85                     86                     87
                      A                      A                      A
 Frequencies --   3125.2651              3126.4457              3144.2124
 Red. masses --      1.0836                 1.1006                 1.1040
 Frc consts  --      6.2356                 6.3382                 6.4308
 IR Inten    --     12.6043                25.1178                14.3128

                     88                     89                     90
                      A                      A                      A
 Frequencies --   3145.3462              3149.2129              3151.7361
 Red. masses --      1.0998                 1.0930                 1.1075
 Frc consts  --      6.4105                 6.3868                 6.4817
 IR Inten    --      3.2562                54.8649                19.3013

                     91                     92                     93
                      A                      A                      A
 Frequencies --   3183.9742              3184.5099              3759.4229
 Red. masses --      1.1071                 1.0867                 1.0663
 Frc consts  --      6.6129                 6.4929                 8.8790
 IR Inten    --     16.6345                 1.7778                15.5974

 - Thermochemistry -
 -------------------
 Temperature   298.150 Kelvin.  Pressure   1.00000 Atm.
 Atom     1 has atomic number  6 and mass  12.00000

 Molecular mass:   223.12084 amu.
 Principal axes and moments of inertia in atomic units:
                           1         2         3
     Eigenvalues --  2081.539205096.151335554.83647
           X            0.99994  -0.01035  -0.00377
           Y            0.01005   0.99738  -0.07159
           Z            0.00450   0.07155   0.99743
 This molecule is an asymmetric top.
 Rotational symmetry number  1.
 Warning -- assumption of classical behavior for rotation
           may cause significant error
 Rotational temperatures (Kelvin)      0.04161     0.01700     0.01559
 Rotational constants (GHZ):           0.86702     0.35414     0.32490
 Zero-point vibrational energy     723282.4 (Joules/Mol)
                                  172.86865 (Kcal/Mol)
 Warning -- explicit consideration of  26 degrees of freedom as
           vibrations may cause significant error
 Vibrational temperatures:     67.86    74.17   125.93   153.28   186.32
          (Kelvin)            204.11   230.54   252.51   292.02   318.30
                              336.34   349.17   370.32   378.16   425.12
                              433.38   456.90   490.15   499.98   524.97
                              592.41   635.48   665.32   712.73   756.53
                              856.32   899.97   926.91   982.45  1057.21
                             1094.32  1129.04  1208.30  1218.39  1255.82
                             1270.12  1350.27  1374.01  1392.33  1430.22
                             1449.32  1469.52  1485.66  1521.02  1558.48
                             1623.44  1638.46  1658.53  1689.62  1706.41
                             1719.36  1736.42  1763.47  1822.84  1833.55
                             1862.03  1894.84  1957.11  2000.33  2012.20
                             2029.57  2038.28  2062.42  2065.57  2146.92
                             2176.43  2184.31  2189.36  2193.26  2198.21
                             2204.66  2205.41  2357.79  2382.19  2495.66
                             2628.45  4314.52  4384.10  4395.71  4399.87
                             4426.48  4471.89  4474.12  4494.75  4496.56
                             4498.26  4523.82  4525.45  4531.01  4534.65
                             4581.03  4581.80  5408.97

 Zero-point correction=                           0.275484 (Hartree/Particle)
 Thermal correction to Energy=                    0.292358
 Thermal correction to Enthalpy=                  0.293302
 Thermal correction to Gibbs Free Energy=         0.232063
 Sum of electronic and zero-point Energies=           -747.586416
 Sum of electronic and thermal Energies=              -747.569541
 Sum of electronic and thermal Enthalpies=            -747.568597
 Sum of electronic and thermal Free Energies=         -747.629836

                     E (Thermal)             CV                S
                      KCal/Mol        Cal/Mol-Kelvin    Cal/Mol-Kelvin
 Total                  183.457             63.829            128.888
 Electronic               0.000              0.000              0.000
 Translational            0.889              2.981             42.110
 Rotational               0.889              2.981             32.444
 Vibrational            181.680             57.867             54.334
 Vibration     1          0.595              1.979              4.933
 Vibration     2          0.596              1.977              4.757
 Vibration     3          0.601              1.958              3.715
 Vibration     4          0.605              1.944              3.331
 Vibration     5          0.612              1.924              2.953
 Vibration     6          0.615              1.911              2.779
 Vibration     7          0.622              1.891              2.547
 Vibration     8          0.627              1.873              2.376
 Vibration     9          0.639              1.836              2.106
 Vibration    10          0.648              1.809              1.949
 Vibration    11          0.654              1.789              1.850
 Vibration    12          0.659              1.775              1.783
 Vibration    13          0.667              1.750              1.679
 Vibration    14          0.670              1.741              1.643
 Vibration    15          0.690              1.682              1.442
 Vibration    16          0.693              1.671              1.410
 Vibration    17          0.704              1.640              1.323
 Vibration    18          0.720              1.594              1.209
 Vibration    19          0.725              1.580              1.177
 Vibration    20          0.738              1.545              1.101
 Vibration    21          0.776              1.445              0.920
 Vibration    22          0.801              1.379              0.821
 Vibration    23          0.820              1.333              0.759
 Vibration    24          0.851              1.260              0.670
 Vibration    25          0.881              1.193              0.597
 Vibration    26          0.953              1.042              0.458

 Optimization completed.
    -- Stationary point found.
 Normal termination of Gaussian 16 at Thu Dec 10 23:13:47 2020.

 ----------------------------------------------------------------------
 # B3LYP/6-311++G(d,p) empiricaldispersion=gd3bj scf=xqc pop=npa geom=c
 heck
 ----------------------------------------------------------------------

 ---------------------------------------
 CID_123525109_JID_6461_Energie_neutraal
 ---------------------------------------
 Structure from the checkpoint file:  "JID_6461.chk"
 Charge =  0 Multiplicity = 1

 SCF Done:  E(RB3LYP) =  -748.083785455     A.U. after   16 cycles
 Normal termination of Gaussian 16 at Thu Dec 10 23:18:38 2020.

 ----------------------------------------------------------------------
 # B3LYP/6-311++G(d,p) empiricaldispersion=gd3bj scf=xqc pop=npa geom=c
 heck
 ----------------------------------------------------------------------

 -------------------------------------
 CID_123525109_JID_6461_Energie_kation
 -------------------------------------
 Structure from the checkpoint file:  "JID_6461.chk"
 Charge =  1 Multiplicity = 2

 SCF Done:  E(UB3LYP) =  -747.793027133     A.U. after   26 cycles
 Normal termination of Gaussian 16 at Thu Dec 10 23:29:03 2020.
 Gaussian 16:  ES64L-G16RevA.03 25-Dec-2016

 ----------------------------------------------------------------------
 # B3LYP/6-311++G(d,p) empiricaldispersion=gd3bj scf=xqc pop=npa geom=c
 heck
 ----------------------------------------------------------------------

 ------------------------------------
 CID_123525109_JID_6461_Energie_anion
 ------------------------------------
 Structure from the checkpoint file:  "JID_6461.chk"
 Charge = -1 Multiplicity = 2

                         Standard orientation:
 ---------------------------------------------------------------------
 Center     Atomic      Atomic             Coordinates (Angstroms)
 Number     Number       Type             X           Y           Z
 ---------------------------------------------------------------------
      1          6           0       -2.467406   -1.443027    1.534891
      2          6           0       -1.521208   -0.828266    0.496443
      3          6           0       -0.682422   -1.838477   -0.287201
      4          6           0       -0.010558   -1.493854   -1.400227
      5          6           0        1.466621   -1.640576   -1.456105
      6          6           0        2.268639   -0.883461   -0.675003
      7          6           0        1.976541    0.220980    0.367250
      8          7           0        0.535946    0.422644    0.363568
      9          6           0       -0.240697   -0.196624    1.140324
     10          6           0        2.608892   -0.162372    1.714277
     11          6           0        2.598940    1.547484   -0.144535
     12          8           0        4.001041    1.481940   -0.359206
     13          6           0       -2.271219    0.183546   -0.358427
     14          8           0       -2.612840    0.037532   -1.510293
     15          8           0       -2.570068    1.278467    0.373164
     16          6           0       -3.297459    2.299519   -0.326507
     17          1           0       -3.279716   -1.983781    1.040238
     18          1           0       -2.898204   -0.670540    2.178176
     19          1           0       -1.921799   -2.156323    2.163009
     20          1           0       -0.195394   -2.550139    0.383117
     21          1           0       -0.453117   -0.776254   -2.086796
     22          1           0        1.945209   -2.281810   -2.197732
     23          1           0        3.342703   -1.000319   -0.824182
     24          1           0        0.051308   -0.653521    2.099727
     25          1           0        2.283807   -1.151916    2.049640
     26          1           0        3.697778   -0.171111    1.618123
     27          1           0        2.338924    0.575416    2.479053
     28          1           0        2.056985    1.852496   -1.048708
     29          1           0        2.441726    2.314641    0.620746
     30          1           0        4.145359    1.051220   -1.214643
     31          1           0       -2.719360    2.658048   -1.181884
     32          1           0       -4.256408    1.913246   -0.681745
     33          1           0       -3.448474    3.099405    0.398486
 ---------------------------------------------------------------------

 SCF Done:  E(UB3LYP) =  -748.093990368     A.U. after   30 cycles

 The electronic state is 2-A.
 Alpha  occ. eigenvalues --  -19.04787 -19.00989 -18.98635 -14.11146 -10.17195
 Alpha  occ. eigenvalues --  -10.12065 -10.08760 -10.07448 -10.06119 -10.04338
 Alpha  occ. eigenvalues --  -10.03649 -10.03579 -10.03262 -10.03228 -10.00095
 Alpha  occ. eigenvalues --   -9.99028  -0.98727  -0.91072  -0.89745  -0.76993
 Alpha  occ. eigenvalues --   -0.68573  -0.65273  -0.62951  -0.61026  -0.57080
 Alpha  occ. eigenvalues --   -0.55852  -0.51663  -0.49039  -0.47381  -0.42726
 Alpha  occ. eigenvalues --   -0.39903  -0.39756  -0.38158  -0.37182  -0.35733
 Alpha  occ. eigenvalues --   -0.34938  -0.34423  -0.32584  -0.31828  -0.30745
 Alpha  occ. eigenvalues --   -0.29570  -0.29468  -0.28936  -0.27101  -0.26677
 Alpha  occ. eigenvalues --   -0.26010  -0.24952  -0.24620  -0.24302  -0.22841
 Alpha  occ. eigenvalues --   -0.21927  -0.20302  -0.19044  -0.18998  -0.17208
 Alpha  occ. eigenvalues --   -0.15298  -0.14262  -0.11527  -0.09011  -0.05504
 Alpha  occ. eigenvalues --    0.04681
 Alpha virt. eigenvalues --    0.07763   0.08317   0.09293   0.10076   0.10610
 Alpha virt. eigenvalues --    0.11195   0.11365   0.11957   0.12411   0.12723
 Alpha virt. eigenvalues --    0.12839   0.13302   0.13556   0.13835   0.14241

  Beta  occ. eigenvalues --  -19.04781 -19.00982 -18.98636 -14.10723 -10.17166
  Beta  occ. eigenvalues --  -10.12064 -10.08737 -10.07417 -10.06140 -10.04328
  Beta  occ. eigenvalues --  -10.03679 -10.03262 -10.03180 -10.03108  -9.99964
  Beta  occ. eigenvalues --   -9.98666  -0.98713  -0.91051  -0.89739  -0.76332
  Beta  occ. eigenvalues --   -0.68360  -0.64879  -0.62797  -0.60959  -0.56843
  Beta  occ. eigenvalues --   -0.55797  -0.51380  -0.48788  -0.47018  -0.42600
  Beta  occ. eigenvalues --   -0.39746  -0.39127  -0.38037  -0.37149  -0.35680
  Beta  occ. eigenvalues --   -0.34729  -0.34275  -0.32453  -0.31677  -0.30603
  Beta  occ. eigenvalues --   -0.29480  -0.29383  -0.28773  -0.27002  -0.26575
  Beta  occ. eigenvalues --   -0.25834  -0.24819  -0.24539  -0.24195  -0.22646
  Beta  occ. eigenvalues --   -0.21693  -0.19953  -0.19008  -0.18636  -0.16737
  Beta  occ. eigenvalues --   -0.15198  -0.12823  -0.11274  -0.08020  -0.04227
  Beta virt. eigenvalues --    0.07706   0.08266   0.09130   0.09966   0.10470
  Beta virt. eigenvalues --    0.10872   0.11162   0.11814   0.11900   0.12496
  Beta virt. eigenvalues --    0.12794   0.12930   0.13368   0.13603   0.14028

 Mulliken charges and spin densities:
               1          2
     1  C   -0.075272  -0.154841
     2  C    0.439623   0.149984
     3  C   -0.230254   0.031998
     4  C   -0.281201   0.364317
     5  C   -0.348684  -0.133139
     6  C   -0.401250  -0.160086
     7  C    0.528200   0.060386
     8  N    0.181836   0.223262
     9  C   -0.758078   0.278399
    10  C   -0.536959  -0.032197
    11  C   -0.386483   0.003788
    12  O   -0.234763  -0.011143
    13  C   -0.443066  -0.027498
    14  O   -0.218169   0.000311
    15  O   -0.008139  -0.000889
    16  C   -0.224681  -0.003347
    17  H    0.115766   0.032083
    18  H    0.081621   0.044441
    19  H    0.125900   0.018717
    20  H    0.107519  -0.001311
    21  H    0.151746  -0.011055
    22  H    0.098993   0.047869
    23  H   -0.133052   0.250239
    24  H    0.057704  -0.044425
    25  H    0.139042  -0.000991
    26  H    0.156189   0.018125
    27  H    0.120326   0.006961
    28  H    0.172146  -0.002983
    29  H    0.160803   0.009908
    30  H    0.204412   0.034503
    31  H    0.163232   0.005622
    32  H    0.151820   0.002429
    33  H    0.123175   0.000564
 Sum of Mulliken charges =  -1.00000   1.00000

 Dipole moment (field-independent basis, Debye):
    X=             -1.9640    Y=              2.8789    Z=              1.6049  Tot=              3.8368
 Quadrupole moment (field-independent basis, Debye-Ang):
   XX=           -132.3060   YY=           -115.4169   ZZ=           -113.2545
   XY=             -9.1997   XZ=             -5.6415   YZ=             -6.9949

 Summary of Natural Population Analysis:

                                       Natural Population
                Natural  -----------------------------------------------
    Atom  No    Charge         Core      Valence    Rydberg      Total
 -----------------------------------------------------------------------
      C    1   -0.27549      0.99964     2.26959    0.00627     3.27549
      C    2   -0.11835      0.99948     2.10374    0.01513     3.11835
      C    3   -0.08381      0.99943     2.07118    0.01319     3.08381
      C    4   -0.04271      0.99944     2.03126    0.01201     3.04271
      C    5   -0.10471      0.99950     2.09225    0.01295     3.10471
      C    6   -0.07980      0.99949     2.06643    0.01388     3.07980
      C    7    0.02577      0.99953     1.96011    0.01458     2.97423
      N    8   -0.20982      0.99957     2.69659    0.01366     3.70982
      C    9    0.15461      0.99951     1.82997    0.01591     2.84539
      C   10   -0.29696      0.99963     2.29136    0.00597     3.29696
      C   11   -0.00155      0.99954     1.98750    0.01452     3.00155
      O   12   -0.37630      0.99990     3.37002    0.00638     4.37630
      C   13    0.43352      0.99960     1.53942    0.02745     2.56648
      O   14   -0.30995      0.99987     3.30418    0.00590     4.30995
      O   15   -0.27563      0.99986     3.26757    0.00820     4.27563
      C   16   -0.10579      0.99961     2.09800    0.00819     3.10579
      H   17    0.09818      0.00000     0.40079    0.00103     0.40182
      H   18    0.09855      0.00000     0.40020    0.00125     0.40145
      H   19    0.09804      0.00000     0.40073    0.00123     0.40196
      H   20    0.08431      0.00000     0.41419    0.00150     0.41569
      H   21    0.09842      0.00000     0.40025    0.00133     0.40158
      H   22    0.08778      0.00000     0.41016    0.00206     0.41222
      H   23    0.08811      0.00000     0.40958    0.00231     0.41189
      H   24    0.05550      0.00000     0.44110    0.00339     0.44450
      H   25    0.09997      0.00000     0.39911    0.00092     0.40003
      H   26    0.10321      0.00000     0.39561    0.00118     0.39679
      H   27    0.09685      0.00000     0.40228    0.00087     0.40315
      H   28    0.08505      0.00000     0.41393    0.00103     0.41495
      H   29    0.08304      0.00000     0.41581    0.00115     0.41696
      H   30    0.22690      0.00000     0.27010    0.00300     0.27310
      H   31    0.09132      0.00000     0.40755    0.00113     0.40868
      H   32    0.08584      0.00000     0.41298    0.00118     0.41416
      H   33    0.08590      0.00000     0.41334    0.00076     0.41410
 =======================================================================
   * Total *    0.00000     15.99359    43.78689    0.21952    60.00000

 Normal termination of Gaussian 16 at Thu Dec 10 23:40:59 2020.
