 Gaussian 16, Revision A.03,

 -----------------------------------------------------------
 # opt freq B3LYP/6-31G(d) empiricaldispersion=gd3bj scf=xqc
 -----------------------------------------------------------

 -----------------------------
 CID_2919324_JID_9871_neutraal
 -----------------------------
 Symbolic Z-matrix:
 Charge =  0 Multiplicity = 1

 SCF Done:  E(RB3LYP) =  -1146.76727999     A.U. after   15 cycles
 SCF Done:  E(RB3LYP) =  -1146.77721120     A.U. after   13 cycles
 SCF Done:  E(RB3LYP) =  -1146.77810512     A.U. after   12 cycles
 SCF Done:  E(RB3LYP) =  -1146.77782067     A.U. after   12 cycles
 SCF Done:  E(RB3LYP) =  -1146.77838198     A.U. after   11 cycles
 SCF Done:  E(RB3LYP) =  -1146.77843584     A.U. after   10 cycles
 SCF Done:  E(RB3LYP) =  -1146.77846478     A.U. after   10 cycles
 SCF Done:  E(RB3LYP) =  -1146.77847490     A.U. after   10 cycles
 SCF Done:  E(RB3LYP) =  -1146.77848555     A.U. after   10 cycles
 SCF Done:  E(RB3LYP) =  -1146.77848621     A.U. after    8 cycles
 SCF Done:  E(RB3LYP) =  -1146.77848635     A.U. after    7 cycles
 SCF Done:  E(RB3LYP) =  -1146.77848636     A.U. after    6 cycles
 Optimization completed.
    -- Stationary point found.
 Normal termination of Gaussian 16 at Sat Dec 12 10:11:04 2020.

 --------------------------------------------------------------------
 #N Geom=AllCheck Guess=TCheck SCRF=Check GenChk RB3LYP/6-31G(d) Freq
 --------------------------------------------------------------------

 Structure from the checkpoint file:  "JID_9871.chk"
 -----------------------------
 CID_2919324_JID_9871_neutraal
 -----------------------------
 Charge =  0 Multiplicity = 1

 SCF Done:  E(RB3LYP) =  -1146.77848636     A.U. after    1 cycles

  Exact polarizability: 236.305  -7.723 177.565  -1.040   3.408 135.439
 Approx polarizability: 324.055  -7.061 282.029  -1.607  13.311 213.210

                      1                      2                      3
                      A                      A                      A
 Frequencies --     42.3544                50.4637                61.4961
 Red. masses --      3.8702                 7.5073                 3.4979
 Frc consts  --      0.0041                 0.0113                 0.0078
 IR Inten    --      0.0595                 1.2934                 0.3004

                      4                      5                      6
                      A                      A                      A
 Frequencies --     99.1404               125.0034               145.5310
 Red. masses --      3.6077                 4.2486                 3.1166
 Frc consts  --      0.0209                 0.0391                 0.0389
 IR Inten    --      0.0529                 0.9054                 0.5690

                      7                      8                      9
                      A                      A                      A
 Frequencies --    176.9281               232.1041               250.0061
 Red. masses --      3.7142                 4.3778                 5.2056
 Frc consts  --      0.0685                 0.1390                 0.1917
 IR Inten    --      0.0464                 1.5280                 1.8276

                     10                     11                     12
                      A                      A                      A
 Frequencies --    285.0281               302.9742               316.9858
 Red. masses --      3.3928                 2.9364                 2.0619
 Frc consts  --      0.1624                 0.1588                 0.1221
 IR Inten    --      3.9660                 0.0866                 0.2434

                     13                     14                     15
                      A                      A                      A
 Frequencies --    337.9259               366.3641               401.3170
 Red. masses --      2.6998                 2.4670                 3.4320
 Frc consts  --      0.1816                 0.1951                 0.3257
 IR Inten    --      3.5041                 2.2902                 0.7063

                     16                     17                     18
                      A                      A                      A
 Frequencies --    409.1349               416.4452               431.5413
 Red. masses --      3.6077                 4.2911                 3.1398
 Frc consts  --      0.3558                 0.4385                 0.3445
 IR Inten    --      2.4680                 0.3886                 2.1454

                     19                     20                     21
                      A                      A                      A
 Frequencies --    446.7849               450.8598               468.2114
 Red. masses --      1.8635                 2.0374                 1.9453
 Frc consts  --      0.2192                 0.2440                 0.2513
 IR Inten    --      0.0366                 1.0019                 1.2395

                     22                     23                     24
                      A                      A                      A
 Frequencies --    511.3532               531.2935               576.5201
 Red. masses --      4.2613                 1.3141                 2.2609
 Frc consts  --      0.6565                 0.2185                 0.4428
 IR Inten    --      1.7338                83.3206                 1.3794

                     25                     26                     27
                      A                      A                      A
 Frequencies --    613.6025               657.3110               660.9519
 Red. masses --      2.4627                 3.7303                 3.7525
 Frc consts  --      0.5463                 0.9496                 0.9658
 IR Inten    --     19.0451                 0.2100                 0.1327

                     28                     29                     30
                      A                      A                      A
 Frequencies --    681.9297               694.6930               729.0296
 Red. masses --      4.6376                 4.1240                 7.4912
 Frc consts  --      1.2706                 1.1726                 2.3458
 IR Inten    --      6.3296                 0.8129                 9.4618

                     31                     32                     33
                      A                      A                      A
 Frequencies --    778.5197               787.2336               826.0618
 Red. masses --      4.2776                 3.7971                 2.7358
 Frc consts  --      1.5275                 1.3865                 1.0999
 IR Inten    --      2.8371                11.1839                 1.2435

                     34                     35                     36
                      A                      A                      A
 Frequencies --    830.5920               864.7317               904.0307
 Red. masses --      2.7850                 3.8015                 1.6031
 Frc consts  --      1.1320                 1.6748                 0.7720
 IR Inten    --      0.3884                 0.1597                 0.1402

                     37                     38                     39
                      A                      A                      A
 Frequencies --    907.0701               908.7439               925.5210
 Red. masses --      1.5959                 1.5682                 1.7219
 Frc consts  --      0.7736                 0.7630                 0.8690
 IR Inten    --      0.0446                 0.3996                28.7036

                     40                     41                     42
                      A                      A                      A
 Frequencies --    947.2647               953.1703               956.0562
 Red. masses --      1.3693                 2.1197                 2.4064
 Frc consts  --      0.7239                 1.1347                 1.2959
 IR Inten    --     39.3540                 0.7490                 9.3515

                     43                     44                     45
                      A                      A                      A
 Frequencies --    958.9763               991.0063               995.0308
 Red. masses --      2.1876                 2.2344                 2.2241
 Frc consts  --      1.1853                 1.2929                 1.2974
 IR Inten    --      3.8688                 0.9535                 0.6589

                     46                     47                     48
                      A                      A                      A
 Frequencies --    999.1638              1019.0986              1037.5840
 Red. masses --      2.1554                 2.4254                 1.2849
 Frc consts  --      1.2678                 1.4841                 0.8150
 IR Inten    --      0.0432                27.7686                 6.1671

                     49                     50                     51
                      A                      A                      A
 Frequencies --   1062.5667              1064.6449              1066.6362
 Red. masses --      2.0270                 1.8411                 1.9322
 Frc consts  --      1.3484                 1.2295                 1.2952
 IR Inten    --      0.6238                 0.4234                 0.5932

                     52                     53                     54
                      A                      A                      A
 Frequencies --   1083.4174              1126.6683              1131.9316
 Red. masses --      5.0812                 2.7477                 1.5009
 Frc consts  --      3.5141                 2.0550                 1.1330
 IR Inten    --      3.0393                27.9513                 2.2438

                     55                     56                     57
                      A                      A                      A
 Frequencies --   1133.6465              1141.1635              1144.6144
 Red. masses --      1.5850                 1.5423                 1.0220
 Frc consts  --      1.2001                 1.1834                 0.7889
 IR Inten    --      1.6246                 4.1317                 0.1241

                     58                     59                     60
                      A                      A                      A
 Frequencies --   1155.3906              1173.5071              1210.8068
 Red. masses --      1.0452                 2.2668                 3.7430
 Frc consts  --      0.8220                 1.8392                 3.2331
 IR Inten    --      0.1517                26.1069                49.4415

                     61                     62                     63
                      A                      A                      A
 Frequencies --   1221.2689              1223.0647              1278.3476
 Red. masses --      1.2730                 1.2326                 2.6854
 Frc consts  --      1.1186                 1.0863                 2.5856
 IR Inten    --      4.2866                 1.4264                41.9522

                     64                     65                     66
                      A                      A                      A
 Frequencies --   1281.5516              1297.6701              1305.6057
 Red. masses --      2.5800                 1.3868                 1.5231
 Frc consts  --      2.4966                 1.3759                 1.5297
 IR Inten    --    108.1852                 1.9398                 1.7201

                     67                     68                     69
                      A                      A                      A
 Frequencies --   1329.4347              1333.6404              1335.9535
 Red. masses --      1.3236                 1.6933                 1.6758
 Frc consts  --      1.3783                 1.7745                 1.7622
 IR Inten    --     13.8241                 0.0991                 0.0557

                     70                     71                     72
                      A                      A                      A
 Frequencies --   1337.7219              1357.3811              1360.8869
 Red. masses --      1.7099                 1.6187                 2.5404
 Frc consts  --      1.8028                 1.7572                 2.7720
 IR Inten    --      0.0934                39.9310                12.7864

                     73                     74                     75
                      A                      A                      A
 Frequencies --   1364.2015              1368.2676              1370.1564
 Red. masses --      1.4647                 1.4376                 1.3304
 Frc consts  --      1.6061                 1.5858                 1.4716
 IR Inten    --      1.1331                 0.8430                 0.2277

                     76                     77                     78
                      A                      A                      A
 Frequencies --   1383.1435              1397.3730              1398.7638
 Red. masses --      2.1641                 1.5217                 1.5315
 Frc consts  --      2.4393                 1.7507                 1.7655
 IR Inten    --     31.9282                 0.1851                 0.2871

                     79                     80                     81
                      A                      A                      A
 Frequencies --   1414.8020              1418.9821              1423.3107
 Red. masses --      1.4974                 1.5009                 1.4857
 Frc consts  --      1.7659                 1.7805                 1.7733
 IR Inten    --      0.7405                 0.2149                 2.3821

                     82                     83                     84
                      A                      A                      A
 Frequencies --   1433.7444              1479.1465              1504.2319
 Red. masses --      1.8153                 1.2251                 1.2441
 Frc consts  --      2.1986                 1.5793                 1.6586
 IR Inten    --     19.4217                 6.8046               100.6309

                     85                     86                     87
                      A                      A                      A
 Frequencies --   1508.0713              1511.2477              1516.8978
 Red. masses --      1.2258                 1.2774                 1.4627
 Frc consts  --      1.6425                 1.7189                 1.9830
 IR Inten    --     73.0210                71.2759                84.4850

                     88                     89                     90
                      A                      A                      A
 Frequencies --   1521.4677              1525.1735              1527.0725
 Red. masses --      1.1073                 1.0964                 1.1116
 Frc consts  --      1.5102                 1.5027                 1.5273
 IR Inten    --      9.2485                 7.7666                 4.4256

                     91                     92                     93
                      A                      A                      A
 Frequencies --   1547.5178              1595.4974              1731.0936
 Red. masses --      1.0912                 7.9993                 4.4604
 Frc consts  --      1.5396                11.9976                 7.8752
 IR Inten    --      1.0542                62.4524                 7.0554

                     94                     95                     96
                      A                      A                      A
 Frequencies --   3030.0593              3030.6529              3031.1359
 Red. masses --      1.0655                 1.0632                 1.0613
 Frc consts  --      5.7639                 5.7537                 5.7450
 IR Inten    --     10.8574                11.5566                14.8890

                     97                     98                     99
                      A                      A                      A
 Frequencies --   3042.7355              3046.8225              3050.4718
 Red. masses --      1.0733                 1.0768                 1.0764
 Frc consts  --      5.8546                 5.8895                 5.9014
 IR Inten    --     16.0471                40.4566                73.9990

                    100                    101                    102
                      A                      A                      A
 Frequencies --   3053.4912              3054.2904              3058.6362
 Red. masses --      1.0702                 1.0758                 1.0715
 Frc consts  --      5.8792                 5.9129                 5.9062
 IR Inten    --     11.5652               115.8859                70.4634

                    103                    104                    105
                      A                      A                      A
 Frequencies --   3065.1409              3069.1793              3070.0162
 Red. masses --      1.0762                 1.1035                 1.1034
 Frc consts  --      5.9571                 6.1247                 6.1273
 IR Inten    --     21.5648                28.9246                18.6500

                    106                    107                    108
                      A                      A                      A
 Frequencies --   3075.1075              3112.2462              3115.5211
 Red. masses --      1.1039                 1.0985                 1.0986
 Frc consts  --      6.1503                 6.2691                 6.2829
 IR Inten    --    103.4949                16.9429                12.9968

                    109                    110                    111
                      A                      A                      A
 Frequencies --   3132.5906              3147.8853              3160.2097
 Red. masses --      1.0943                 1.0891                 1.0605
 Frc consts  --      6.3268                 6.3586                 6.2399
 IR Inten    --     22.0195                 9.1139                 9.0463

                    112                    113                    114
                      A                      A                      A
 Frequencies --   3175.8221              3243.7384              3680.9504
 Red. masses --      1.0929                 1.1151                 1.0821
 Frc consts  --      6.4944                 6.9131                 8.6387
 IR Inten    --      3.0025                12.0316                98.2163

 - Thermochemistry -
 -------------------
 Temperature   298.150 Kelvin.  Pressure   1.00000 Atm.
 Atom     1 has atomic number  6 and mass  12.00000

 Molecular mass:   275.14562 amu.
 Principal axes and moments of inertia in atomic units:
                           1         2         3
     Eigenvalues --  2619.976487395.227628806.55404
           X            0.99996   0.00868  -0.00056
           Y           -0.00868   0.99996   0.00018
           Z            0.00056  -0.00018   1.00000
 This molecule is an asymmetric top.
 Rotational symmetry number  1.
 Warning -- assumption of classical behavior for rotation
           may cause significant error
 Rotational temperatures (Kelvin)      0.03306     0.01171     0.00984
 Rotational constants (GHZ):           0.68884     0.24404     0.20493
 Zero-point vibrational energy     918777.0 (Joules/Mol)
                                  219.59298 (Kcal/Mol)
 Warning -- explicit consideration of  25 degrees of freedom as
           vibrations may cause significant error
 Vibrational temperatures:     60.94    72.61    88.48   142.64   179.85
          (Kelvin)            209.39   254.56   333.95   359.70   410.09
                              435.91   456.07   486.20   527.12   577.41
                              588.65   599.17   620.89   642.82   648.69
                              673.65   735.72   764.41   829.48   882.84
                              945.72   950.96   981.14   999.51  1048.91
                             1120.12  1132.65  1188.52  1195.04  1244.16
                             1300.70  1305.07  1307.48  1331.62  1362.90
                             1371.40  1375.55  1379.75  1425.84  1431.63
                             1437.57  1466.26  1492.85  1528.80  1531.79
                             1534.65  1558.80  1621.02  1628.60  1631.06
                             1641.88  1646.84  1662.35  1688.41  1742.08
                             1757.13  1759.72  1839.26  1843.87  1867.06
                             1878.48  1912.76  1918.81  1922.14  1924.68
                             1952.97  1958.01  1962.78  1968.63  1971.35
                             1990.03  2010.51  2012.51  2035.58  2041.60
                             2047.83  2062.84  2128.16  2164.25  2169.78
                             2174.35  2182.48  2189.05  2194.38  2197.12
                             2226.53  2295.56  2490.66  4359.58  4360.43
                             4361.13  4377.82  4383.70  4388.95  4393.29
                             4394.44  4400.70  4410.05  4415.86  4417.07
                             4424.39  4477.83  4482.54  4507.10  4529.10
                             4546.84  4569.30  4667.02  5296.07

 Zero-point correction=                           0.349944 (Hartree/Particle)
 Thermal correction to Energy=                    0.365682
 Thermal correction to Enthalpy=                  0.366626
 Thermal correction to Gibbs Free Energy=         0.306862
 Sum of electronic and zero-point Energies=          -1146.428543
 Sum of electronic and thermal Energies=             -1146.412805
 Sum of electronic and thermal Enthalpies=           -1146.411860
 Sum of electronic and thermal Free Energies=        -1146.471624

                     E (Thermal)             CV                S
                      KCal/Mol        Cal/Mol-Kelvin    Cal/Mol-Kelvin
 Total                  229.469             65.172            125.783
 Electronic               0.000              0.000              0.000
 Translational            0.889              2.981             42.735
 Rotational               0.889              2.981             33.500
 Vibrational            227.691             59.210             49.548
 Vibration     1          0.595              1.980              5.146
 Vibration     2          0.595              1.977              4.799
 Vibration     3          0.597              1.973              4.409
 Vibration     4          0.604              1.950              3.471
 Vibration     5          0.610              1.928              3.022
 Vibration     6          0.617              1.908              2.730
 Vibration     7          0.628              1.871              2.361
 Vibration     8          0.653              1.792              1.863
 Vibration     9          0.663              1.763              1.731
 Vibration    10          0.683              1.701              1.503
 Vibration    11          0.694              1.668              1.400
 Vibration    12          0.704              1.641              1.326
 Vibration    13          0.718              1.600              1.222
 Vibration    14          0.739              1.541              1.095
 Vibration    15          0.767              1.467              0.958
 Vibration    16          0.774              1.450              0.930
 Vibration    17          0.780              1.435              0.904
 Vibration    18          0.793              1.402              0.854
 Vibration    19          0.806              1.368              0.806
 Vibration    20          0.810              1.359              0.793
 Vibration    21          0.825              1.321              0.743
 Vibration    22          0.866              1.225              0.630
 Vibration    23          0.886              1.181              0.584
 Vibration    24          0.933              1.082              0.492
 Vibration    25          0.973              1.003              0.427

 Optimization completed.
    -- Stationary point found.
 Normal termination of Gaussian 16 at Sat Dec 12 10:37:04 2020.

 ----------------------------------------------------------------------
 # B3LYP/6-311++G(d,p) empiricaldispersion=gd3bj scf=xqc pop=npa geom=c
 heck
 ----------------------------------------------------------------------

 -------------------------------------
 CID_2919324_JID_9871_Energie_neutraal
 -------------------------------------
 Structure from the checkpoint file:  "JID_9871.chk"
 Charge =  0 Multiplicity = 1

 SCF Done:  E(RB3LYP) =  -1146.99666198     A.U. after   15 cycles
 Normal termination of Gaussian 16 at Sat Dec 12 10:49:02 2020.

 ----------------------------------------------------------------------
 # B3LYP/6-311++G(d,p) empiricaldispersion=gd3bj scf=xqc pop=npa geom=c
 heck
 ----------------------------------------------------------------------

 -----------------------------------
 CID_2919324_JID_9871_Energie_kation
 -----------------------------------
 Structure from the checkpoint file:  "JID_9871.chk"
 Charge =  1 Multiplicity = 2

 SCF Done:  E(UB3LYP) =  -1146.71724747     A.U. after   25 cycles
 Normal termination of Gaussian 16 at Sat Dec 12 11:17:25 2020.
 Gaussian 16:  ES64L-G16RevA.03 25-Dec-2016

 ----------------------------------------------------------------------
 # B3LYP/6-311++G(d,p) empiricaldispersion=gd3bj scf=xqc pop=npa geom=c
 heck
 ----------------------------------------------------------------------

 ----------------------------------
 CID_2919324_JID_9871_Energie_anion
 ----------------------------------
 Structure from the checkpoint file:  "JID_9871.chk"
 Charge = -1 Multiplicity = 2

                         Standard orientation:
 ---------------------------------------------------------------------
 Center     Atomic      Atomic             Coordinates (Angstroms)
 Number     Number       Type             X           Y           Z
 ---------------------------------------------------------------------
      1          6           0        0.816771    3.444782   -0.282191
      2          6           0        1.579532    2.368001   -0.469329
      3          6           0        1.959728    1.407059    0.619165
      4          7           0        1.860196   -0.000529    0.222376
      5          6           0        0.751269   -0.828634    0.030579
      6          7           0        1.142686   -2.037713   -0.279787
      7          7           0        2.507829   -1.973693   -0.293451
      8          6           0        3.011321   -0.754373    0.005963
      9         16           0        4.617605   -0.291998    0.090910
     10          6           0       -0.717177   -0.465749    0.055076
     11          6           0       -1.543723   -1.772892    0.185870
     12          6           0       -3.050322   -1.467791    0.151753
     13          6           0       -3.408661   -0.784396   -1.180352
     14          6           0       -2.612002    0.525183   -1.311771
     15          6           0       -1.103901    0.216243   -1.288548
     16          6           0       -2.963820    1.460036   -0.139724
     17          6           0       -2.616908    0.769110    1.192550
     18          6           0       -3.414405   -0.538407    1.321795
     19          6           0       -1.105708    0.471886    1.224817
     20          1           0        0.375294    3.671919    0.685976
     21          1           0        0.615021    4.147567   -1.084965
     22          1           0        2.018702    2.162108   -1.444247
     23          1           0        3.021009    1.537877    0.863109
     24          1           0        1.383367    1.573311    1.530173
     25          1           0        3.059961   -2.791581   -0.501377
     26          1           0       -1.275458   -2.455160   -0.625860
     27          1           0       -1.277570   -2.278223    1.122158
     28          1           0       -3.602296   -2.411546    0.242556
     29          1           0       -4.486105   -0.576523   -1.219882
     30          1           0       -3.177103   -1.452067   -2.020641
     31          1           0       -2.857380    1.016031   -2.261930
     32          1           0       -0.530107    1.138746   -1.417057
     33          1           0       -0.839570   -0.455490   -2.114541
     34          1           0       -2.408479    2.402997   -0.230518
     35          1           0       -4.032599    1.709454   -0.165554
     36          1           0       -2.859695    1.437226    2.028386
     37          1           0       -4.491410   -0.325097    1.317548
     38          1           0       -3.185478   -1.027365    2.278076
     39          1           0       -0.824794    0.009220    2.180084
     40          1           0       -0.573928    1.421760    1.146064
 ---------------------------------------------------------------------

 SCF Done:  E(UB3LYP) =  -1146.98906295     A.U. after   33 cycles
 SCF Done:  E(UB3LYP) =  -1146.98906295     a.u. after    1 cycles

 The electronic state is 2-A.
 Alpha  occ. eigenvalues --  -88.71395 -14.31659 -14.30678 -14.26780 -10.20600
 Alpha  occ. eigenvalues --  -10.17240 -10.14024 -10.11164 -10.10312 -10.09022
 Alpha  occ. eigenvalues --  -10.07525 -10.07456 -10.07429 -10.07428 -10.07321
 Alpha  occ. eigenvalues --  -10.07088 -10.06396 -10.06247 -10.06113  -7.80145
 Alpha  occ. eigenvalues --   -5.76601  -5.75906  -5.75700  -1.01349  -0.87170
 Alpha  occ. eigenvalues --   -0.80037  -0.77235  -0.72253  -0.69055  -0.67678
 Alpha  occ. eigenvalues --   -0.67572  -0.65181  -0.63084  -0.57804  -0.57571
 Alpha  occ. eigenvalues --   -0.56916  -0.54029  -0.50211  -0.49443  -0.48959
 Alpha  occ. eigenvalues --   -0.48550  -0.45855  -0.42927  -0.41571  -0.40938
 Alpha  occ. eigenvalues --   -0.38559  -0.37606  -0.36641  -0.36086  -0.35882
 Alpha  occ. eigenvalues --   -0.35585  -0.32385  -0.32258  -0.31870  -0.31536
 Alpha  occ. eigenvalues --   -0.31260  -0.30368  -0.29892  -0.29781  -0.28972
 Alpha  occ. eigenvalues --   -0.25355  -0.24828  -0.24120  -0.23848  -0.23692
 Alpha  occ. eigenvalues --   -0.23426  -0.23054  -0.21956  -0.20436  -0.19810
 Alpha  occ. eigenvalues --   -0.18894  -0.18412  -0.14107  -0.13029   0.03833
 Alpha virt. eigenvalues --    0.06107   0.06475   0.06612   0.06830   0.07648
 Alpha virt. eigenvalues --    0.07864   0.08050   0.08715   0.08855   0.09127
 Alpha virt. eigenvalues --    0.09433   0.10600   0.10788   0.11146   0.11430

  Beta  occ. eigenvalues --  -88.71395 -14.31657 -14.30669 -14.26768 -10.20601
  Beta  occ. eigenvalues --  -10.17231 -10.14015 -10.11166 -10.10291 -10.08987
  Beta  occ. eigenvalues --  -10.07501 -10.07449 -10.07423 -10.07418 -10.07308
  Beta  occ. eigenvalues --  -10.07077 -10.06377 -10.06226 -10.06086  -7.80144
  Beta  occ. eigenvalues --   -5.76601  -5.75906  -5.75699  -1.01337  -0.87153
  Beta  occ. eigenvalues --   -0.80020  -0.77210  -0.72216  -0.69032  -0.67643
  Beta  occ. eigenvalues --   -0.67542  -0.65160  -0.63064  -0.57762  -0.57535
  Beta  occ. eigenvalues --   -0.56889  -0.54005  -0.50175  -0.49392  -0.48911
  Beta  occ. eigenvalues --   -0.48515  -0.45834  -0.42855  -0.41538  -0.40915
  Beta  occ. eigenvalues --   -0.38524  -0.37565  -0.36604  -0.36052  -0.35846
  Beta  occ. eigenvalues --   -0.35546  -0.32357  -0.32238  -0.31842  -0.31510
  Beta  occ. eigenvalues --   -0.31234  -0.30352  -0.29850  -0.29747  -0.28935
  Beta  occ. eigenvalues --   -0.25325  -0.24803  -0.24091  -0.23820  -0.23668
  Beta  occ. eigenvalues --   -0.23397  -0.23026  -0.21927  -0.20397  -0.19743
  Beta  occ. eigenvalues --   -0.18851  -0.18354  -0.14103  -0.13016
  Beta virt. eigenvalues --    0.05931   0.06313   0.06746   0.07208   0.07449
  Beta virt. eigenvalues --    0.07692   0.08253   0.08552   0.09093   0.09203
  Beta virt. eigenvalues --    0.09294   0.09835   0.10961   0.11028   0.11458

 Mulliken charges and spin densities:
               1          2
     1  C    0.403043  -0.931820
     2  C   -0.532335   0.765067
     3  C    0.029620  -0.596905
     4  N    0.236002  -0.000631
     5  C   -0.160039   0.199003
     6  N    0.009356  -0.047172
     7  N    0.030145   0.013718
     8  C    0.338876   0.102823
     9  S   -0.869332  -0.008078
    10  C    1.240234  -0.463110
    11  C   -0.510180  -0.325693
    12  C   -0.182137   0.515937
    13  C    1.143763  -1.868588
    14  C   -0.361320   0.718496
    15  C   -0.959899   0.248976
    16  C    0.968261  -1.780489
    17  C    0.102701   0.372452
    18  C    0.815868  -1.617214
    19  C   -1.218529   0.401124
    20  H   -0.188201   0.347783
    21  H   -0.147839   0.294261
    22  H    0.009966   0.177670
    23  H    0.118399  -0.035099
    24  H   -0.202894   0.412477
    25  H    0.326698   0.037541
    26  H    0.129711   0.073026
    27  H    0.008057   0.198294
    28  H   -0.231857   0.467556
    29  H   -0.176595   0.339749
    30  H   -0.002941   0.133569
    31  H   -0.438724   0.682743
    32  H    0.290146  -0.115292
    33  H   -0.041209   0.227671
    34  H   -0.088217   0.225905
    35  H   -0.265241   0.444630
    36  H   -0.694584   0.953035
    37  H   -0.185761   0.349125
    38  H   -0.047446   0.181228
    39  H   -0.227165   0.467004
    40  H    0.531601  -0.560772
 Sum of Mulliken charges =  -1.00000   1.00000

 Dipole moment (field-independent basis, Debye):
    X=              5.2619    Y=             -3.2057    Z=             -1.3098  Tot=              6.2992
 Quadrupole moment (field-independent basis, Debye-Ang):
   XX=           -222.0753   YY=           -167.6336   ZZ=           -166.4328
   XY=              2.9548   XZ=              0.4102   YZ=              0.3911

 Summary of Natural Population Analysis:

                                       Natural Population
                Natural  -----------------------------------------------
    Atom  No    Charge         Core      Valence    Rydberg      Total
 -----------------------------------------------------------------------
      C    1   -0.17815      0.99956     2.17114    0.00745     3.17815
      C    2   -0.09504      0.99955     2.08601    0.00948     3.09504
      C    3   -0.11153      0.99957     2.10083    0.01113     3.11153
      N    4   -0.22404      0.99957     2.71335    0.01111     3.72404
      C    5    0.22553      0.99954     1.75632    0.01861     2.77447
      N    6   -0.15210      0.99967     2.64255    0.00988     3.65210
      N    7   -0.19220      0.99962     2.68020    0.01238     3.69220
      C    8    0.11968      0.99962     1.86030    0.02040     2.88032
      S    9   -0.14642      4.99960     3.13323    0.01359     8.14642
      C   10   -0.05802      0.99952     2.04629    0.01221     3.05802
      C   11   -0.18466      0.99959     2.17385    0.01121     3.18466
      C   12   -0.11061      0.99959     2.09910    0.01193     3.11061
      C   13   -0.18648      0.99960     2.17715    0.00973     3.18648
      C   14   -0.11050      0.99959     2.09830    0.01261     3.11050
      C   15   -0.18462      0.99958     2.17535    0.00970     3.18462
      C   16   -0.18716      0.99960     2.17730    0.01026     3.18716
      C   17   -0.10932      0.99959     2.09628    0.01345     3.10932
      C   18   -0.18667      0.99960     2.17716    0.00990     3.18667
      C   19   -0.18871      0.99958     2.17813    0.01100     3.18871
      H   20    0.09505      0.00000     0.40363    0.00132     0.40495
      H   21    0.09861      0.00000     0.40046    0.00093     0.40139
      H   22    0.09921      0.00000     0.39971    0.00108     0.40079
      H   23    0.12461      0.00000     0.37378    0.00161     0.37539
      H   24    0.10809      0.00000     0.39052    0.00139     0.39191
      H   25    0.20438      0.00000     0.29370    0.00192     0.29562
      H   26    0.10796      0.00000     0.39043    0.00161     0.39204
      H   27    0.10332      0.00000     0.39551    0.00117     0.39668
      H   28    0.10032      0.00000     0.39830    0.00137     0.39968
      H   29    0.10087      0.00000     0.39790    0.00123     0.39913
      H   30    0.09800      0.00000     0.40087    0.00113     0.40200
      H   31    0.10270      0.00000     0.39561    0.00170     0.39730
      H   32    0.10646      0.00000     0.39140    0.00214     0.39354
      H   33    0.10072      0.00000     0.39805    0.00123     0.39928
      H   34    0.10153      0.00000     0.39646    0.00201     0.39847
      H   35    0.10165      0.00000     0.39674    0.00161     0.39835
      H   36    0.10397      0.00000     0.39358    0.00245     0.39603
      H   37    0.10081      0.00000     0.39785    0.00133     0.39919
      H   38    0.09917      0.00000     0.39954    0.00129     0.40083
      H   39    0.10219      0.00000     0.39627    0.00153     0.39781
      H   40    0.10138      0.00000     0.39573    0.00289     0.39862
 =======================================================================
   * Total *    0.00000     22.99215    50.74888    0.25898    74.00000

 Normal termination of Gaussian 16 at Sat Dec 12 11:55:41 2020.
