 Gaussian 16, Revision A.03,

 -----------------------------------------------------------
 # opt freq B3LYP/6-31G(d) empiricaldispersion=gd3bj scf=xqc
 -----------------------------------------------------------

 ------------------------------
 CID_81532005_JID_6945_neutraal
 ------------------------------
 Symbolic Z-matrix:
 Charge =  0 Multiplicity = 1

 SCF Done:  E(RB3LYP) =  -1015.17845514     A.U. after   14 cycles
 SCF Done:  E(RB3LYP) =  -1015.18498739     A.U. after   12 cycles
 SCF Done:  E(RB3LYP) =  -1015.18638961     A.U. after   12 cycles
 SCF Done:  E(RB3LYP) =  -1015.18651930     A.U. after   15 cycles
 SCF Done:  E(RB3LYP) =  -1015.18690605     A.U. after   12 cycles
 SCF Done:  E(RB3LYP) =  -1015.18705165     A.U. after   12 cycles
 SCF Done:  E(RB3LYP) =  -1015.18709283     A.U. after   10 cycles
 SCF Done:  E(RB3LYP) =  -1015.18711090     A.U. after   11 cycles
 SCF Done:  E(RB3LYP) =  -1015.18711344     A.U. after   10 cycles
 SCF Done:  E(RB3LYP) =  -1015.18711424     A.U. after    8 cycles
 SCF Done:  E(RB3LYP) =  -1015.18711482     A.U. after    7 cycles
 SCF Done:  E(RB3LYP) =  -1015.18711488     A.U. after    7 cycles
 SCF Done:  E(RB3LYP) =  -1015.18711492     A.U. after    6 cycles
 SCF Done:  E(RB3LYP) =  -1015.18711494     A.U. after    6 cycles
 SCF Done:  E(RB3LYP) =  -1015.18711495     A.U. after    6 cycles
 Optimization completed.
    -- Stationary point found.
 Normal termination of Gaussian 16 at Fri Dec 11 00:20:49 2020.

 --------------------------------------------------------------------
 #N Geom=AllCheck Guess=TCheck SCRF=Check GenChk RB3LYP/6-31G(d) Freq
 --------------------------------------------------------------------

 Structure from the checkpoint file:  "JID_6945.chk"
 ------------------------------
 CID_81532005_JID_6945_neutraal
 ------------------------------
 Charge =  0 Multiplicity = 1

 SCF Done:  E(RB3LYP) =  -1015.18711495     A.U. after    1 cycles

  Exact polarizability: 185.714   0.456 157.607  -0.065  12.092 128.472
 Approx polarizability: 255.193  -0.522 239.266  -2.139  39.030 213.940

                      1                      2                      3
                      A                      A                      A
 Frequencies --     37.1587                50.1456                88.9692
 Red. masses --      4.6485                 2.7318                 3.3389
 Frc consts  --      0.0038                 0.0040                 0.0156
 IR Inten    --      0.1666                 0.0034                 0.3769

                      4                      5                      6
                      A                      A                      A
 Frequencies --    106.8457               119.3341               134.7435
 Red. masses --      3.1977                 2.5944                 1.1945
 Frc consts  --      0.0215                 0.0218                 0.0128
 IR Inten    --      1.3050                 0.6733                 0.5124

                      7                      8                      9
                      A                      A                      A
 Frequencies --    157.0174               180.8893               225.6286
 Red. masses --      2.2156                 2.1405                 3.4265
 Frc consts  --      0.0322                 0.0413                 0.1028
 IR Inten    --      1.1283                 1.8079                 2.9186

                     10                     11                     12
                      A                      A                      A
 Frequencies --    249.9779               267.2440               290.9492
 Red. masses --      2.0242                 2.5619                 2.3848
 Frc consts  --      0.0745                 0.1078                 0.1189
 IR Inten    --      1.3873                 1.0417                 1.8000

                     13                     14                     15
                      A                      A                      A
 Frequencies --    297.7552               334.9707               348.0283
 Red. masses --      3.9704                 2.7269                 2.7015
 Frc consts  --      0.2074                 0.1803                 0.1928
 IR Inten    --      0.3345                 1.3474                 9.5003

                     16                     17                     18
                      A                      A                      A
 Frequencies --    397.4731               410.8232               444.2354
 Red. masses --      2.8440                 2.5422                 2.5003
 Frc consts  --      0.2647                 0.2528                 0.2907
 IR Inten    --      1.8755                 1.8617                 0.2398

                     19                     20                     21
                      A                      A                      A
 Frequencies --    479.3997               558.6516               571.0935
 Red. masses --      2.1473                 7.0870                 4.6997
 Frc consts  --      0.2908                 1.3032                 0.9031
 IR Inten    --      0.6043                 1.6703                 1.9726

                     22                     23                     24
                      A                      A                      A
 Frequencies --    600.6033               626.8129               669.7551
 Red. masses --      3.6452                 4.1114                 6.3199
 Frc consts  --      0.7747                 0.9517                 1.6703
 IR Inten    --      1.0169                 0.4108                 0.7150

                     25                     26                     27
                      A                      A                      A
 Frequencies --    713.3064               728.3326               752.0037
 Red. masses --      2.2337                 2.9377                 1.2289
 Frc consts  --      0.6696                 0.9182                 0.4094
 IR Inten    --     41.2766                16.0237                23.1400

                     28                     29                     30
                      A                      A                      A
 Frequencies --    771.1286               794.0887               819.9135
 Red. masses --      3.7864                 3.3355                 1.2944
 Frc consts  --      1.3266                 1.2392                 0.5127
 IR Inten    --      9.2849                 2.2472                 4.1379

                     31                     32                     33
                      A                      A                      A
 Frequencies --    823.9245               855.4134               866.2165
 Red. masses --      1.3714                 3.1676                 2.5819
 Frc consts  --      0.5485                 1.3656                 1.1414
 IR Inten    --      1.0327                 1.9150                 8.2924

                     34                     35                     36
                      A                      A                      A
 Frequencies --    876.7596               913.3761               917.0595
 Red. masses --      2.4009                 2.7555                 2.0905
 Frc consts  --      1.0874                 1.3544                 1.0358
 IR Inten    --     21.6757                 6.0396                 1.0096

                     37                     38                     39
                      A                      A                      A
 Frequencies --    941.4057               957.6400               967.0999
 Red. masses --      2.5934                 1.9968                 1.8151
 Frc consts  --      1.3542                 1.0789                 1.0002
 IR Inten    --      3.0099                 9.2637                 3.4541

                     40                     41                     42
                      A                      A                      A
 Frequencies --    974.8099               984.6214               994.8130
 Red. masses --      2.3415                 1.7600                 3.5113
 Frc consts  --      1.3110                 1.0053                 2.0474
 IR Inten    --      2.5281                 0.9882                27.6578

                     43                     44                     45
                      A                      A                      A
 Frequencies --   1026.6898              1042.0867              1052.3176
 Red. masses --      1.5100                 2.0307                 2.2089
 Frc consts  --      0.9378                 1.2993                 1.4412
 IR Inten    --      3.9513                10.9805                 0.4560

                     46                     47                     48
                      A                      A                      A
 Frequencies --   1073.0126              1079.4998              1088.1321
 Red. masses --      1.5223                 1.5020                 2.0239
 Frc consts  --      1.0327                 1.0313                 1.4119
 IR Inten    --      2.8435                 2.5103                 3.9152

                     49                     50                     51
                      A                      A                      A
 Frequencies --   1129.0106              1147.8154              1157.0545
 Red. masses --      1.6887                 1.7692                 1.5358
 Frc consts  --      1.2683                 1.3733                 1.2114
 IR Inten    --     10.7290                39.7484                 1.4096

                     52                     53                     54
                      A                      A                      A
 Frequencies --   1162.4672              1177.0428              1193.7037
 Red. masses --      1.3875                 1.4062                 1.9351
 Frc consts  --      1.1047                 1.1478                 1.6246
 IR Inten    --      4.8638                 4.3617                 8.5622

                     55                     56                     57
                      A                      A                      A
 Frequencies --   1195.1549              1217.9800              1243.3202
 Red. masses --      1.8635                 2.1205                 1.9437
 Frc consts  --      1.5683                 1.8534                 1.7703
 IR Inten    --     25.8058                10.7583                 3.2959

                     58                     59                     60
                      A                      A                      A
 Frequencies --   1274.1217              1287.5476              1299.8065
 Red. masses --      1.3242                 1.6724                 1.3819
 Frc consts  --      1.2666                 1.6335                 1.3756
 IR Inten    --      5.0066                 8.4181                 2.7087

                     61                     62                     63
                      A                      A                      A
 Frequencies --   1314.3614              1328.0656              1342.9984
 Red. masses --      1.4692                 1.2916                 1.7265
 Frc consts  --      1.4954                 1.3422                 1.8347
 IR Inten    --      3.2551                 2.4263                 6.4885

                     64                     65                     66
                      A                      A                      A
 Frequencies --   1344.2014              1348.3665              1360.6275
 Red. masses --      1.6542                 3.4557                 1.5466
 Frc consts  --      1.7610                 3.7017                 1.6869
 IR Inten    --      0.1379                19.7086                 3.0785

                     67                     68                     69
                      A                      A                      A
 Frequencies --   1369.1345              1404.5107              1441.4182
 Red. masses --      1.4658                 1.2990                 1.2727
 Frc consts  --      1.6189                 1.5098                 1.5579
 IR Inten    --      0.2853                 5.1040                 0.9781

                     70                     71                     72
                      A                      A                      A
 Frequencies --   1441.7479              1497.6394              1505.8899
 Red. masses --      1.3012                 1.2159                 1.0445
 Frc consts  --      1.5935                 1.6068                 1.3955
 IR Inten    --      8.1274                13.5352                 5.7792

                     73                     74                     75
                      A                      A                      A
 Frequencies --   1513.9768              1517.8256              1523.0152
 Red. masses --      1.1825                 1.0879                 1.0633
 Frc consts  --      1.5969                 1.4767                 1.4532
 IR Inten    --      7.7900                 0.2083                 4.1350

                     76                     77                     78
                      A                      A                      A
 Frequencies --   1528.9496              1530.2129              1532.1752
 Red. masses --      1.0459                 1.1297                 1.1013
 Frc consts  --      1.4405                 1.5585                 1.5232
 IR Inten    --      1.1912                 7.2577                 8.3431

                     79                     80                     81
                      A                      A                      A
 Frequencies --   1550.8129              1552.9894              1561.7311
 Red. masses --      1.3322                 1.1116                 2.8372
 Frc consts  --      1.8877                 1.5796                 4.0771
 IR Inten    --      4.6655                 4.4460                10.1051

                     82                     83                     84
                      A                      A                      A
 Frequencies --   1599.5138              2981.4627              3045.0840
 Red. masses --      5.2263                 1.0734                 1.0396
 Frc consts  --      7.8780                 5.6216                 5.6797
 IR Inten    --     37.8316                51.2578                28.1698

                     85                     86                     87
                      A                      A                      A
 Frequencies --   3050.5362              3055.3438              3065.4974
 Red. masses --      1.0366                 1.0606                 1.0624
 Frc consts  --      5.6836                 5.8332                 5.8820
 IR Inten    --     30.3242                34.1428                31.6673

                     88                     89                     90
                      A                      A                      A
 Frequencies --   3067.9049              3075.2409              3085.2562
 Red. masses --      1.0680                 1.0683                 1.0870
 Frc consts  --      5.9222                 5.9524                 6.0960
 IR Inten    --     27.5220                37.9113                 9.4450

                     91                     92                     93
                      A                      A                      A
 Frequencies --   3092.6470              3104.7908              3105.8277
 Red. masses --      1.1000                 1.1012                 1.0906
 Frc consts  --      6.1987                 6.2544                 6.1983
 IR Inten    --     25.3121                15.7520                58.0008

                     94                     95                     96
                      A                      A                      A
 Frequencies --   3112.1043              3115.0947              3120.2962
 Red. masses --      1.0978                 1.1015                 1.1027
 Frc consts  --      6.2646                 6.2975                 6.3257
 IR Inten    --     44.2890                16.6267                59.9428

                     97                     98                     99
                      A                      A                      A
 Frequencies --   3134.5219              3136.7145              3138.0501
 Red. masses --      1.1030                 1.1016                 1.0884
 Frc consts  --      6.3853                 6.3860                 6.3147
 IR Inten    --     23.0992                17.1738                24.2579

                    100                    101                    102
                      A                      A                      A
 Frequencies --   3153.4317              3268.0433              3511.7705
 Red. masses --      1.0975                 1.0944                 1.0742
 Frc consts  --      6.4301                 6.8868                 7.8054
 IR Inten    --     12.9684                 2.3412                 0.8878

 - Thermochemistry -
 -------------------
 Temperature   298.150 Kelvin.  Pressure   1.00000 Atm.
 Atom     1 has atomic number  6 and mass  12.00000

 Molecular mass:   236.13472 amu.
 Principal axes and moments of inertia in atomic units:
                           1         2         3
     Eigenvalues --  2698.708454480.722315983.49572
           X            0.99949   0.03078   0.00827
           Y           -0.03066   0.99943  -0.01395
           Z           -0.00870   0.01369   0.99987
 This molecule is an asymmetric top.
 Rotational symmetry number  1.
 Warning -- assumption of classical behavior for rotation
           may cause significant error
 Rotational temperatures (Kelvin)      0.03209     0.01933     0.01448
 Rotational constants (GHZ):           0.66874     0.40278     0.30162
 Zero-point vibrational energy     829472.5 (Joules/Mol)
                                  198.24867 (Kcal/Mol)
 Warning -- explicit consideration of  22 degrees of freedom as
           vibrations may cause significant error
 Vibrational temperatures:     53.46    72.15   128.01   153.73   171.70
          (Kelvin)            193.87   225.91   260.26   324.63   359.66
                              384.50   418.61   428.40   481.95   500.74
                              571.88   591.08   639.16   689.75   803.78
                              821.68   864.13   901.84   963.63  1026.29
                             1047.91  1081.97  1109.48  1142.52  1179.67
                             1185.44  1230.75  1246.29  1261.46  1314.14
                             1319.44  1354.47  1377.83  1391.44  1402.53
                             1416.65  1431.31  1477.18  1499.33  1514.05
                             1543.83  1553.16  1565.58  1624.39  1651.45
                             1664.74  1672.53  1693.50  1717.47  1719.56
                             1752.40  1788.86  1833.18  1852.49  1870.13
                             1891.07  1910.79  1932.28  1934.01  1940.00
                             1957.64  1969.88  2020.78  2073.88  2074.35
                             2154.77  2166.64  2178.27  2183.81  2191.28
                             2199.82  2201.64  2204.46  2231.27  2234.41
                             2246.98  2301.34  4289.66  4381.20  4389.04
                             4395.96  4410.57  4414.03  4424.59  4439.00
                             4449.63  4467.10  4468.59  4477.62  4481.93
                             4489.41  4509.88  4513.03  4514.95  4537.08
                             4701.99  5052.65

 Zero-point correction=                           0.315929 (Hartree/Particle)
 Thermal correction to Energy=                    0.331167
 Thermal correction to Enthalpy=                  0.332111
 Thermal correction to Gibbs Free Energy=         0.273412
 Sum of electronic and zero-point Energies=          -1014.871186
 Sum of electronic and thermal Energies=             -1014.855948
 Sum of electronic and thermal Enthalpies=           -1014.855004
 Sum of electronic and thermal Free Energies=        -1014.913703

                     E (Thermal)             CV                S
                      KCal/Mol        Cal/Mol-Kelvin    Cal/Mol-Kelvin
 Total                  207.810             60.282            123.542
 Electronic               0.000              0.000              0.000
 Translational            0.889              2.981             42.279
 Rotational               0.889              2.981             32.648
 Vibrational            206.033             54.320             48.615
 Vibration     1          0.594              1.982              5.405
 Vibration     2          0.595              1.978              4.812
 Vibration     3          0.602              1.957              3.683
 Vibration     4          0.606              1.944              3.325
 Vibration     5          0.609              1.933              3.111
 Vibration     6          0.613              1.919              2.877
 Vibration     7          0.621              1.895              2.585
 Vibration     8          0.630              1.866              2.319
 Vibration     9          0.650              1.802              1.913
 Vibration    10          0.663              1.763              1.731
 Vibration    11          0.672              1.733              1.614
 Vibration    12          0.687              1.691              1.468
 Vibration    13          0.691              1.678              1.429
 Vibration    14          0.716              1.606              1.236
 Vibration    15          0.726              1.579              1.175
 Vibration    16          0.764              1.476              0.972
 Vibration    17          0.775              1.447              0.924
 Vibration    18          0.804              1.374              0.813
 Vibration    19          0.836              1.296              0.712
 Vibration    20          0.914              1.121              0.527
 Vibration    21          0.927              1.094              0.502
 Vibration    22          0.959              1.031              0.449

 Optimization completed.
    -- Stationary point found.
 Normal termination of Gaussian 16 at Fri Dec 11 00:34:00 2020.

 ----------------------------------------------------------------------
 # B3LYP/6-311++G(d,p) empiricaldispersion=gd3bj scf=xqc pop=npa geom=c
 heck
 ----------------------------------------------------------------------

 --------------------------------------
 CID_81532005_JID_6945_Energie_neutraal
 --------------------------------------
 Structure from the checkpoint file:  "JID_6945.chk"
 Charge =  0 Multiplicity = 1

 SCF Done:  E(RB3LYP) =  -1015.37699459     A.U. after   15 cycles
 Normal termination of Gaussian 16 at Fri Dec 11 00:40:01 2020.

 ----------------------------------------------------------------------
 # B3LYP/6-311++G(d,p) empiricaldispersion=gd3bj scf=xqc pop=npa geom=c
 heck
 ----------------------------------------------------------------------

 ------------------------------------
 CID_81532005_JID_6945_Energie_kation
 ------------------------------------
 Structure from the checkpoint file:  "JID_6945.chk"
 Charge =  1 Multiplicity = 2

 SCF Done:  E(UB3LYP) =  -1015.08810539     A.U. after   24 cycles
 Normal termination of Gaussian 16 at Fri Dec 11 00:52:49 2020.
 Gaussian 16:  ES64L-G16RevA.03 25-Dec-2016

 ----------------------------------------------------------------------
 # B3LYP/6-311++G(d,p) empiricaldispersion=gd3bj scf=xqc pop=npa geom=c
 heck
 ----------------------------------------------------------------------

 -----------------------------------
 CID_81532005_JID_6945_Energie_anion
 -----------------------------------
 Structure from the checkpoint file:  "JID_6945.chk"
 Charge = -1 Multiplicity = 2

                         Standard orientation:
 ---------------------------------------------------------------------
 Center     Atomic      Atomic             Coordinates (Angstroms)
 Number     Number       Type             X           Y           Z
 ---------------------------------------------------------------------
      1          6           0        1.145928    3.708008   -0.586210
      2          6           0        0.847718    2.243805   -0.889859
      3          7           0        0.999700    1.437137    0.322488
      4          6           0        0.640730    0.021299    0.203760
      5          6           0        1.140582   -0.761408    1.480491
      6          6           0        2.036285   -1.875133    0.908166
      7          6           0        3.327444   -1.236087    0.350299
      8          6           0        2.830969   -0.520306   -0.946355
      9          6           0        1.311788   -0.801400   -0.950500
     10          6           0        1.278950   -2.236638   -0.385078
     11          6           0       -0.868851   -0.034210    0.115064
     12          7           0       -1.574270   -0.909223   -0.536155
     13          6           0       -2.934963   -0.727917   -0.341768
     14          6           0       -3.255246    0.313121    0.482423
     15         16           0       -1.823611    1.125269    1.041242
     16          6           0       -3.895798   -1.649078   -1.029941
     17          1           0        0.478534    4.078480    0.198113
     18          1           0        1.016532    4.325905   -1.481210
     19          1           0        2.179611    3.836952   -0.240082
     20          1           0       -0.188618    2.140415   -1.228676
     21          1           0        1.484463    1.894019   -1.719830
     22          1           0        1.948492    1.523132    0.678415
     23          1           0        1.667977   -0.086894    2.164353
     24          1           0        0.292446   -1.181017    2.028769
     25          1           0        2.213635   -2.693240    1.611765
     26          1           0        3.784672   -0.544098    1.067134
     27          1           0        4.075242   -2.001875    0.118383
     28          1           0        3.075810    0.544983   -0.961496
     29          1           0        3.286257   -0.962745   -1.838376
     30          1           0        0.826089   -0.657946   -1.916720
     31          1           0        1.822643   -2.949186   -1.016538
     32          1           0        0.264616   -2.603575   -0.219795
     33          1           0       -4.241731    0.652611    0.767055
     34          1           0       -3.771933   -1.597771   -2.118019
     35          1           0       -3.717223   -2.689262   -0.733369
     36          1           0       -4.930972   -1.392927   -0.787038
 ---------------------------------------------------------------------

 SCF Done:  E(UB3LYP) =  -1015.36283402     A.U. after   33 cycles
 SCF Done:  E(UB3LYP) =  -1015.36283402     a.u. after    1 cycles

 The electronic state is 2-A.
 Alpha  occ. eigenvalues --  -88.77837 -14.21335 -14.20978 -10.13746 -10.12581
 Alpha  occ. eigenvalues --  -10.11300 -10.09909 -10.09784 -10.07732 -10.07664
 Alpha  occ. eigenvalues --  -10.07546 -10.07539 -10.06963 -10.06820 -10.06773
 Alpha  occ. eigenvalues --  -10.06226  -7.86429  -5.82694  -5.82345  -5.82050
 Alpha  occ. eigenvalues --   -0.86994  -0.82776  -0.76680  -0.69659  -0.69010
 Alpha  occ. eigenvalues --   -0.66152  -0.63894  -0.62290  -0.59663  -0.57677
 Alpha  occ. eigenvalues --   -0.52633  -0.52081  -0.48089  -0.47269  -0.45088
 Alpha  occ. eigenvalues --   -0.42367  -0.41577  -0.39395  -0.39131  -0.37217
 Alpha  occ. eigenvalues --   -0.35870  -0.34301  -0.33903  -0.32898  -0.31976
 Alpha  occ. eigenvalues --   -0.30805  -0.30595  -0.29648  -0.28959  -0.27656
 Alpha  occ. eigenvalues --   -0.27497  -0.26855  -0.26122  -0.25707  -0.25166
 Alpha  occ. eigenvalues --   -0.24429  -0.23940  -0.22592  -0.21857  -0.21099
 Alpha  occ. eigenvalues --   -0.18421  -0.17771  -0.14379  -0.13479   0.04127
 Alpha virt. eigenvalues --    0.05612   0.06458   0.06717   0.07379   0.07832
 Alpha virt. eigenvalues --    0.08084   0.08988   0.09186   0.09399   0.10215
 Alpha virt. eigenvalues --    0.10425   0.10835   0.11544   0.11728   0.12234

  Beta  occ. eigenvalues --  -88.77831 -14.21330 -14.20966 -10.13736 -10.12580
  Beta  occ. eigenvalues --  -10.11302 -10.09899 -10.09763 -10.07704 -10.07658
  Beta  occ. eigenvalues --  -10.07543 -10.07531 -10.06939 -10.06800 -10.06751
  Beta  occ. eigenvalues --  -10.06215  -7.86423  -5.82683  -5.82341  -5.82044
  Beta  occ. eigenvalues --   -0.86980  -0.82757  -0.76660  -0.69636  -0.68987
  Beta  occ. eigenvalues --   -0.66126  -0.63865  -0.62258  -0.59625  -0.57638
  Beta  occ. eigenvalues --   -0.52594  -0.52028  -0.48051  -0.47237  -0.45046
  Beta  occ. eigenvalues --   -0.42337  -0.41539  -0.39369  -0.39099  -0.37190
  Beta  occ. eigenvalues --   -0.35839  -0.34268  -0.33877  -0.32868  -0.31948
  Beta  occ. eigenvalues --   -0.30780  -0.30563  -0.29619  -0.28927  -0.27625
  Beta  occ. eigenvalues --   -0.27470  -0.26828  -0.26087  -0.25676  -0.25139
  Beta  occ. eigenvalues --   -0.24403  -0.23918  -0.22564  -0.21834  -0.21074
  Beta  occ. eigenvalues --   -0.18396  -0.17761  -0.14357  -0.13452
  Beta virt. eigenvalues --    0.06073   0.06618   0.06730   0.07079   0.07865
  Beta virt. eigenvalues --    0.08329   0.08631   0.09305   0.09427   0.09630
  Beta virt. eigenvalues --    0.10530   0.10758   0.11106   0.11702   0.11851

 Mulliken charges and spin densities:
               1          2
     1  C    0.402081  -1.010920
     2  C   -0.439236   0.226059
     3  N    0.066295   0.011490
     4  C    0.702607  -0.704381
     5  C   -0.446723  -0.237099
     6  C   -1.016690   1.421660
     7  C    0.973855  -1.528813
     8  C   -0.125885  -0.479923
     9  C   -0.929342   1.527849
    10  C    0.510093  -1.364329
    11  C   -0.462674   0.189868
    12  N    0.161820   0.107912
    13  C   -0.331014   0.013634
    14  C   -1.121848   1.340446
    15  S    0.741908  -1.122181
    16  C    2.462887  -2.987506
    17  H    0.014193   0.125340
    18  H   -0.079068   0.211971
    19  H   -0.282390   0.414079
    20  H    0.094766   0.059370
    21  H   -0.178272   0.308516
    22  H    0.369372  -0.106108
    23  H   -0.058113   0.199888
    24  H    0.003177   0.175258
    25  H   -0.326131   0.559458
    26  H   -0.310597   0.452924
    27  H   -0.217182   0.374989
    28  H    0.090233   0.033172
    29  H   -0.341579   0.523047
    30  H    0.149692   0.138099
    31  H   -0.121443   0.284378
    32  H    0.251239  -0.069489
    33  H   -0.843319   1.090463
    34  H   -0.060521   0.218272
    35  H   -0.080837   0.231139
    36  H   -0.221353   0.371468
 Sum of Mulliken charges =  -1.00000   1.00000

 Dipole moment (field-independent basis, Debye):
    X=             -0.5741    Y=              0.7110    Z=              0.6858  Tot=              1.1425
 Quadrupole moment (field-independent basis, Debye-Ang):
   XX=           -194.1407   YY=           -157.8056   ZZ=           -140.8032
   XY=             -0.3614   XZ=              1.0296   YZ=             -0.1706

 Summary of Natural Population Analysis:

                                       Natural Population
                Natural  -----------------------------------------------
    Atom  No    Charge         Core      Valence    Rydberg      Total
 -----------------------------------------------------------------------
      C    1   -0.28504      0.99967     2.28096    0.00441     3.28504
      C    2   -0.09237      0.99963     2.08235    0.01039     3.09237
      N    3   -0.34358      0.99971     2.83221    0.01166     3.84358
      C    4    0.04302      0.99947     1.94066    0.01685     2.95698
      C    5   -0.18102      0.99959     2.17156    0.00987     3.18102
      C    6   -0.11426      0.99960     2.10276    0.01190     3.11426
      C    7   -0.19226      0.99963     2.18372    0.00891     3.19226
      C    8   -0.19681      0.99963     2.18733    0.00985     3.19681
      C    9   -0.11182      0.99957     2.09997    0.01229     3.11182
      C   10   -0.19152      0.99961     2.18288    0.00903     3.19152
      C   11    0.05646      0.99952     1.92275    0.02127     2.94354
      N   12   -0.25324      0.99962     2.74240    0.01122     3.75324
      C   13    0.06141      0.99948     1.92419    0.01492     2.93859
      C   14   -0.21258      0.99945     2.20180    0.01133     3.21258
      S   15    0.19882      4.99942     2.78241    0.01934     7.80118
      C   16   -0.29172      0.99962     2.28707    0.00503     3.29172
      H   17    0.10030      0.00000     0.39860    0.00111     0.39970
      H   18    0.09880      0.00000     0.40033    0.00087     0.40120
      H   19    0.09594      0.00000     0.40277    0.00129     0.40406
      H   20    0.09497      0.00000     0.40355    0.00148     0.40503
      H   21    0.08242      0.00000     0.41596    0.00161     0.41758
      H   22    0.17775      0.00000     0.31923    0.00302     0.32225
      H   23    0.10125      0.00000     0.39754    0.00121     0.39875
      H   24    0.10624      0.00000     0.39271    0.00105     0.39376
      H   25    0.10259      0.00000     0.39638    0.00103     0.39741
      H   26    0.09661      0.00000     0.40200    0.00139     0.40339
      H   27    0.10055      0.00000     0.39809    0.00136     0.39945
      H   28    0.09957      0.00000     0.39875    0.00168     0.40043
      H   29    0.10215      0.00000     0.39668    0.00118     0.39785
      H   30    0.11018      0.00000     0.38806    0.00177     0.38982
      H   31    0.09848      0.00000     0.40047    0.00106     0.40152
      H   32    0.11133      0.00000     0.38705    0.00162     0.38867
      H   33    0.11227      0.00000     0.38613    0.00160     0.38773
      H   34    0.10580      0.00000     0.39284    0.00136     0.39420
      H   35    0.10592      0.00000     0.39273    0.00135     0.39408
      H   36    0.10339      0.00000     0.39543    0.00117     0.39661
 =======================================================================
   * Total *    0.00000     19.99322    43.79032    0.21646    64.00000

 Normal termination of Gaussian 16 at Fri Dec 11 01:10:49 2020.
