 Gaussian 16, Revision A.03,

 -----------------------------------------------------------
 # opt freq B3LYP/6-31G(d) empiricaldispersion=gd3bj scf=xqc
 -----------------------------------------------------------

 ------------------------------
 CID_75132412_JID_4936_neutraal
 ------------------------------
 Symbolic Z-matrix:
 Charge =  0 Multiplicity = 1

 SCF Done:  E(RB3LYP) =  -596.367216440     A.U. after   15 cycles
 SCF Done:  E(RB3LYP) =  -596.369528521     A.U. after   12 cycles
 SCF Done:  E(RB3LYP) =  -596.369606809     A.U. after   12 cycles
 SCF Done:  E(RB3LYP) =  -596.369782807     A.U. after   10 cycles
 SCF Done:  E(RB3LYP) =  -596.369821405     A.U. after   10 cycles
 SCF Done:  E(RB3LYP) =  -596.369853212     A.U. after   10 cycles
 SCF Done:  E(RB3LYP) =  -596.369860276     A.U. after    9 cycles
 SCF Done:  E(RB3LYP) =  -596.369863294     A.U. after    9 cycles
 SCF Done:  E(RB3LYP) =  -596.369864537     A.U. after    8 cycles
 SCF Done:  E(RB3LYP) =  -596.369865402     A.U. after    8 cycles
 SCF Done:  E(RB3LYP) =  -596.369889576     A.U. after    9 cycles
 SCF Done:  E(RB3LYP) =  -596.369890542     A.U. after    8 cycles
 SCF Done:  E(RB3LYP) =  -596.369891058     A.U. after    9 cycles
 SCF Done:  E(RB3LYP) =  -596.369891027     A.U. after    8 cycles
 SCF Done:  E(RB3LYP) =  -596.369891071     A.U. after    6 cycles
 Optimization completed.
    -- Stationary point found.
 Normal termination of Gaussian 16 at Thu Dec 10 11:11:27 2020.

 --------------------------------------------------------------------
 #N Geom=AllCheck Guess=TCheck SCRF=Check GenChk RB3LYP/6-31G(d) Freq
 --------------------------------------------------------------------

 Structure from the checkpoint file:  "JID_4936.chk"
 ------------------------------
 CID_75132412_JID_4936_neutraal
 ------------------------------
 Charge =  0 Multiplicity = 1

 SCF Done:  E(RB3LYP) =  -596.369891071     A.U. after    1 cycles

  Exact polarizability: 171.403  -1.169 119.105  -4.500  -4.006  96.708
 Approx polarizability: 226.459  -0.827 200.075  -2.605  -8.469 147.922

                      1                      2                      3
                      A                      A                      A
 Frequencies --     27.2467                32.1788                73.2479
 Red. masses --      4.2059                 1.0150                 3.7931
 Frc consts  --      0.0018                 0.0006                 0.0120
 IR Inten    --      1.4469                 0.3848                 0.5683

                      4                      5                      6
                      A                      A                      A
 Frequencies --     89.2695               106.8557               178.9180
 Red. masses --      4.5068                 3.9154                 2.5684
 Frc consts  --      0.0212                 0.0263                 0.0484
 IR Inten    --      0.6220                 0.4705                 2.4695

                      7                      8                      9
                      A                      A                      A
 Frequencies --    210.8503               241.3557               264.4374
 Red. masses --      3.0704                 4.1670                 2.6453
 Frc consts  --      0.0804                 0.1430                 0.1090
 IR Inten    --      1.6473                 0.2229                 1.1371

                     10                     11                     12
                      A                      A                      A
 Frequencies --    279.9345               369.6667               432.5648
 Red. masses --      4.1008                 2.5449                 4.2778
 Frc consts  --      0.1893                 0.2049                 0.4716
 IR Inten    --      2.7008                 1.8679                 3.4641

                     13                     14                     15
                      A                      A                      A
 Frequencies --    448.8420               462.7708               502.3041
 Red. masses --      3.1635                 3.2536                 2.0028
 Frc consts  --      0.3755                 0.4105                 0.2977
 IR Inten    --      9.1371                 4.3064                 7.4098

                     16                     17                     18
                      A                      A                      A
 Frequencies --    530.9158               552.5279               593.3078
 Red. masses --      5.0119                 2.2139                 3.5241
 Frc consts  --      0.8323                 0.3982                 0.7309
 IR Inten    --      1.3286                24.4016                 6.7428

                     19                     20                     21
                      A                      A                      A
 Frequencies --    617.8565               668.2280               684.3513
 Red. masses --      4.4691                 1.8989                 3.3106
 Frc consts  --      1.0052                 0.4996                 0.9135
 IR Inten    --      2.4971                67.9416                12.8752

                     22                     23                     24
                      A                      A                      A
 Frequencies --    721.1482               772.4703               802.7424
 Red. masses --      2.2124                 3.8479                 1.5303
 Frc consts  --      0.6779                 1.3528                 0.5810
 IR Inten    --     10.6921                 1.8815                18.9013

                     25                     26                     27
                      A                      A                      A
 Frequencies --    825.1342               870.1700               899.9203
 Red. masses --      2.2307                 2.8429                 1.3136
 Frc consts  --      0.8948                 1.2683                 0.6268
 IR Inten    --      3.4979                 1.6170                 1.6819

                     28                     29                     30
                      A                      A                      A
 Frequencies --    914.2270               922.8767               949.3262
 Red. masses --      1.5458                 1.7722                 2.3371
 Frc consts  --      0.7612                 0.8893                 1.2410
 IR Inten    --      1.4916                 1.4548                 2.5257

                     31                     32                     33
                      A                      A                      A
 Frequencies --    974.6478               977.5508              1003.4394
 Red. masses --      1.4031                 2.0006                 1.9884
 Frc consts  --      0.7853                 1.1264                 1.1796
 IR Inten    --      3.0122                13.8333                 3.6149

                     34                     35                     36
                      A                      A                      A
 Frequencies --   1022.1364              1032.9823              1075.9470
 Red. masses --      6.0980                 1.5499                 1.5277
 Frc consts  --      3.7537                 0.9744                 1.0420
 IR Inten    --      0.3972                 0.8470                 9.0083

                     37                     38                     39
                      A                      A                      A
 Frequencies --   1100.2697              1108.0170              1132.5604
 Red. masses --      2.0006                 2.4925                 1.5979
 Frc consts  --      1.4269                 1.8029                 1.2076
 IR Inten    --     10.7472                 7.6735                 1.6939

                     40                     41                     42
                      A                      A                      A
 Frequencies --   1145.7217              1196.5149              1199.1964
 Red. masses --      2.2463                 1.3375                 1.5528
 Frc consts  --      1.7373                 1.1282                 1.3157
 IR Inten    --     12.0105                 7.8972                 1.1673

                     43                     44                     45
                      A                      A                      A
 Frequencies --   1211.6302              1255.4472              1275.9605
 Red. masses --      1.1464                 1.3121                 1.7896
 Frc consts  --      0.9916                 1.2185                 1.7167
 IR Inten    --      0.5015                 4.1302                 1.5179

                     46                     47                     48
                      A                      A                      A
 Frequencies --   1291.1393              1308.3223              1328.0979
 Red. masses --      2.2241                 1.3680                 1.5817
 Frc consts  --      2.1845                 1.3797                 1.6438
 IR Inten    --      4.6711                 0.4289                 6.8182

                     49                     50                     51
                      A                      A                      A
 Frequencies --   1353.7196              1360.6956              1368.9199
 Red. masses --      2.2490                 1.3947                 2.5192
 Frc consts  --      2.4282                 1.5215                 2.7815
 IR Inten    --    118.8052                25.2905                 7.1280

                     52                     53                     54
                      A                      A                      A
 Frequencies --   1386.1052              1413.7921              1416.5939
 Red. masses --      1.4150                 1.6278                 1.5301
 Frc consts  --      1.6018                 1.9170                 1.8091
 IR Inten    --      6.3806                 8.5721                 8.5012

                     55                     56                     57
                      A                      A                      A
 Frequencies --   1442.6193              1485.0970              1490.9735
 Red. masses --      1.2465                 1.6795                 1.3231
 Frc consts  --      1.5284                 2.1824                 1.7329
 IR Inten    --      0.0719                 6.1904                15.7442

                     58                     59                     60
                      A                      A                      A
 Frequencies --   1506.8170              1518.4758              1518.6863
 Red. masses --      1.5688                 1.0523                 1.1742
 Frc consts  --      2.0987                 1.4296                 1.5957
 IR Inten    --     34.3297                 5.2649                14.1227

                     61                     62                     63
                      A                      A                      A
 Frequencies --   1526.2725              1545.7457              1553.7717
 Red. masses --      1.3025                 2.1030                 1.1271
 Frc consts  --      1.7877                 2.9605                 1.6033
 IR Inten    --     12.3487                13.1196                13.2495

                     64                     65                     66
                      A                      A                      A
 Frequencies --   1650.4748              1670.4236              1796.9573
 Red. masses --      5.2904                 5.7877                 8.3024
 Frc consts  --      8.4910                 9.5151                15.7953
 IR Inten    --      5.2018                19.5330               375.1705

                     67                     68                     69
                      A                      A                      A
 Frequencies --   2998.7295              3023.6203              3042.6098
 Red. masses --      1.0721                 1.0829                 1.0402
 Frc consts  --      5.6801                 5.8329                 5.6737
 IR Inten    --     56.2275                13.8601                31.2970

                     70                     71                     72
                      A                      A                      A
 Frequencies --   3054.4887              3059.3797              3076.6167
 Red. masses --      1.0655                 1.0675                 1.0891
 Frc consts  --      5.8573                 5.8869                 6.0740
 IR Inten    --      6.7271                20.8716                50.5508

                     73                     74                     75
                      A                      A                      A
 Frequencies --   3099.9023              3107.0502              3125.6079
 Red. masses --      1.0959                 1.1031                 1.0951
 Frc consts  --      6.2045                 6.2741                 6.3034
 IR Inten    --     20.7275                28.1895                 8.7582

                     76                     77                     78
                      A                      A                      A
 Frequencies --   3126.0977              3166.2524              3176.7655
 Red. masses --      1.1028                 1.0895                 1.0856
 Frc consts  --      6.3497                 6.4355                 6.4548
 IR Inten    --     16.7704                18.7300                 0.7436

                     79                     80                     81
                      A                      A                      A
 Frequencies --   3185.5770              3202.8334              3589.6266
 Red. masses --      1.0901                 1.0963                 1.0758
 Frc consts  --      6.5174                 6.6259                 8.1673
 IR Inten    --     29.6897                24.2181                17.8247

 - Thermochemistry -
 -------------------
 Temperature   298.150 Kelvin.  Pressure   1.00000 Atm.
 Atom     1 has atomic number  6 and mass  12.00000

 Molecular mass:   189.11536 amu.
 Principal axes and moments of inertia in atomic units:
                           1         2         3
     Eigenvalues --  1143.593445547.229205568.55048
           X            0.99984  -0.01740  -0.00370
           Y            0.01067   0.42059   0.90719
           Z            0.01423   0.90708  -0.42071
 This molecule is an asymmetric top.
 Rotational symmetry number  1.
 Warning -- assumption of classical behavior for rotation
           may cause significant error
 Rotational temperatures (Kelvin)      0.07574     0.01561     0.01555
 Rotational constants (GHZ):           1.57813     0.32534     0.32410
 Zero-point vibrational energy     656310.4 (Joules/Mol)
                                  156.86194 (Kcal/Mol)
 Warning -- explicit consideration of  19 degrees of freedom as
           vibrations may cause significant error
 Vibrational temperatures:     39.20    46.30   105.39   128.44   153.74
          (Kelvin)            257.42   303.37   347.26   380.47   402.76
                              531.87   622.36   645.78   665.82   722.70
                              763.87   794.96   853.64   888.96   961.43
                              984.63  1037.57  1111.41  1154.97  1187.18
                             1251.98  1294.78  1315.37  1327.81  1365.87
                             1402.30  1406.48  1443.73  1470.63  1486.23
                             1548.05  1583.04  1594.19  1629.50  1648.44
                             1721.52  1725.38  1743.27  1806.31  1835.82
                             1857.66  1882.38  1910.84  1947.70  1957.74
                             1969.57  1994.30  2034.13  2038.16  2075.61
                             2136.72  2145.18  2167.97  2184.75  2185.05
                             2195.97  2223.98  2235.53  2374.67  2403.37
                             2585.42  4314.50  4350.32  4377.64  4394.73
                             4401.77  4426.57  4460.07  4470.35  4497.05
                             4497.76  4555.53  4570.66  4583.33  4608.16
                             5164.67

 Zero-point correction=                           0.249975 (Hartree/Particle)
 Thermal correction to Energy=                    0.262795
 Thermal correction to Enthalpy=                  0.263739
 Thermal correction to Gibbs Free Energy=         0.208946
 Sum of electronic and zero-point Energies=           -596.119916
 Sum of electronic and thermal Energies=              -596.107096
 Sum of electronic and thermal Enthalpies=            -596.106152
 Sum of electronic and thermal Free Energies=         -596.160945

                     E (Thermal)             CV                S
                      KCal/Mol        Cal/Mol-Kelvin    Cal/Mol-Kelvin
 Total                  164.906             48.911            115.321
 Electronic               0.000              0.000              0.000
 Translational            0.889              2.981             41.617
 Rotational               0.889              2.981             31.935
 Vibrational            163.129             42.949             41.768
 Vibration     1          0.593              1.984              6.020
 Vibration     2          0.594              1.983              5.690
 Vibration     3          0.599              1.967              4.064
 Vibration     4          0.602              1.957              3.676
 Vibration     5          0.606              1.944              3.325
 Vibration     6          0.629              1.868              2.340
 Vibration     7          0.643              1.824              2.036
 Vibration     8          0.658              1.777              1.793
 Vibration     9          0.671              1.738              1.632
 Vibration    10          0.680              1.711              1.534
 Vibration    11          0.742              1.535              1.081
 Vibration    12          0.793              1.399              0.850
 Vibration    13          0.808              1.363              0.799
 Vibration    14          0.820              1.333              0.758
 Vibration    15          0.858              1.245              0.652
 Vibration    16          0.886              1.182              0.585
 Vibration    17          0.908              1.134              0.539
 Vibration    18          0.951              1.046              0.461
 Vibration    19          0.978              0.994              0.420

 Optimization completed.
    -- Stationary point found.
 Normal termination of Gaussian 16 at Thu Dec 10 11:19:33 2020.

 ----------------------------------------------------------------------
 # B3LYP/6-311++G(d,p) empiricaldispersion=gd3bj scf=xqc pop=npa geom=c
 heck
 ----------------------------------------------------------------------

 --------------------------------------
 CID_75132412_JID_4936_Energie_neutraal
 --------------------------------------
 Structure from the checkpoint file:  "JID_4936.chk"
 Charge =  0 Multiplicity = 1

 SCF Done:  E(RB3LYP) =  -596.534649604     A.U. after   15 cycles
 Normal termination of Gaussian 16 at Thu Dec 10 11:22:46 2020.

 ----------------------------------------------------------------------
 # B3LYP/6-311++G(d,p) empiricaldispersion=gd3bj scf=xqc pop=npa geom=c
 heck
 ----------------------------------------------------------------------

 ------------------------------------
 CID_75132412_JID_4936_Energie_kation
 ------------------------------------
 Structure from the checkpoint file:  "JID_4936.chk"
 Charge =  1 Multiplicity = 2

 SCF Done:  E(UB3LYP) =  -596.229376414     A.U. after   30 cycles
 Normal termination of Gaussian 16 at Thu Dec 10 11:32:49 2020.
 Gaussian 16:  ES64L-G16RevA.03 25-Dec-2016

 ----------------------------------------------------------------------
 # B3LYP/6-311++G(d,p) empiricaldispersion=gd3bj scf=xqc pop=npa geom=c
 heck
 ----------------------------------------------------------------------

 -----------------------------------
 CID_75132412_JID_4936_Energie_anion
 -----------------------------------
 Structure from the checkpoint file:  "JID_4936.chk"
 Charge = -1 Multiplicity = 2

                         Standard orientation:
 ---------------------------------------------------------------------
 Center     Atomic      Atomic             Coordinates (Angstroms)
 Number     Number       Type             X           Y           Z
 ---------------------------------------------------------------------
      1          6           0        4.206217   -1.612153    0.010267
      2          6           0        3.148867   -0.535413   -0.025949
      3          6           0        1.796139   -0.856541    0.137090
      4          6           0        0.791876    0.113454    0.075879
      5          6           0        1.161942    1.445066   -0.153043
      6          6           0        2.503566    1.785036   -0.311453
      7          6           0        3.491539    0.802434   -0.247455
      8          6           0       -0.661021   -0.275427    0.259252
      9          6           0       -1.324428    0.435590    1.449724
     10          6           0       -2.728758   -0.116381    1.676369
     11          7           0       -3.494127   -0.122825    0.434079
     12          6           0       -2.996588   -0.222750   -0.839590
     13          8           0       -3.730774   -0.416653   -1.799895
     14          6           0       -1.496915   -0.005276   -1.004597
     15          1           0        3.905510   -2.447570    0.651085
     16          1           0        4.389657   -2.020440   -0.992346
     17          1           0        5.160014   -1.223989    0.382522
     18          1           0        1.517113   -1.893287    0.316640
     19          1           0        0.402215    2.220503   -0.204551
     20          1           0        2.781938    2.821355   -0.482777
     21          1           0        4.536850    1.075377   -0.370088
     22          1           0       -0.694113   -1.355206    0.462028
     23          1           0       -0.730095    0.298679    2.359296
     24          1           0       -1.377799    1.513490    1.253064
     25          1           0       -2.658318   -1.135331    2.089032
     26          1           0       -3.264245    0.493471    2.412984
     27          1           0       -4.487863   -0.312018    0.488632
     28          1           0       -1.168268   -0.625357   -1.842826
     29          1           0       -1.362140    1.037491   -1.321043
 ---------------------------------------------------------------------

 SCF Done:  E(UB3LYP) =  -596.523829490     A.U. after   33 cycles
 SCF Done:  E(UB3LYP) =  -596.523829490     a.u. after    1 cycles

 The electronic state is 2-A.
 Alpha  occ. eigenvalues --  -18.98890 -14.23882 -10.17547 -10.11265 -10.09401
 Alpha  occ. eigenvalues --  -10.09366 -10.09153 -10.08577 -10.08545 -10.08145
 Alpha  occ. eigenvalues --  -10.08094 -10.08066 -10.07922 -10.07836  -0.94037
 Alpha  occ. eigenvalues --   -0.82986  -0.77475  -0.72545  -0.68019  -0.65908
 Alpha  occ. eigenvalues --   -0.65042  -0.59786  -0.56791  -0.53684  -0.51236
 Alpha  occ. eigenvalues --   -0.48025  -0.46055  -0.41969  -0.41362  -0.38687
 Alpha  occ. eigenvalues --   -0.37393  -0.36611  -0.35383  -0.34960  -0.33356
 Alpha  occ. eigenvalues --   -0.33221  -0.32503  -0.31926  -0.31245  -0.29615
 Alpha  occ. eigenvalues --   -0.28105  -0.27286  -0.26273  -0.25897  -0.24880
 Alpha  occ. eigenvalues --   -0.24261  -0.23649  -0.16614  -0.16008  -0.15812
 Alpha  occ. eigenvalues --   -0.14997   0.04034
 Alpha virt. eigenvalues --    0.05665   0.06596   0.07097   0.07488   0.07846
 Alpha virt. eigenvalues --    0.08119   0.08595   0.09558   0.09865   0.10347
 Alpha virt. eigenvalues --    0.10616   0.11309   0.11603   0.12070   0.12930

  Beta  occ. eigenvalues --  -18.98881 -14.23868 -10.17542 -10.11218 -10.09392
  Beta  occ. eigenvalues --  -10.09361 -10.09152 -10.08565 -10.08537 -10.08133
  Beta  occ. eigenvalues --  -10.08076 -10.08054 -10.07906 -10.07805  -0.94017
  Beta  occ. eigenvalues --   -0.82951  -0.77456  -0.72520  -0.67988  -0.65861
  Beta  occ. eigenvalues --   -0.65014  -0.59738  -0.56741  -0.53632  -0.51194
  Beta  occ. eigenvalues --   -0.47989  -0.46002  -0.41928  -0.41298  -0.38648
  Beta  occ. eigenvalues --   -0.37364  -0.36577  -0.35345  -0.34930  -0.33328
  Beta  occ. eigenvalues --   -0.33186  -0.32469  -0.31893  -0.31199  -0.29579
  Beta  occ. eigenvalues --   -0.28067  -0.27253  -0.26230  -0.25864  -0.24850
  Beta  occ. eigenvalues --   -0.24227  -0.23621  -0.16592  -0.15969  -0.15780
  Beta  occ. eigenvalues --   -0.14973
  Beta virt. eigenvalues --    0.06099   0.06910   0.07107   0.07225   0.07528
  Beta virt. eigenvalues --    0.08523   0.08671   0.09143   0.09988   0.10211
  Beta virt. eigenvalues --    0.10570   0.11058   0.11670   0.11948   0.12344

 Mulliken charges and spin densities:
               1          2
     1  C    2.210311  -2.727301
     2  C   -0.885296   1.287651
     3  C   -0.545988   0.174324
     4  C    0.389879   0.318228
     5  C   -0.123499  -0.164785
     6  C    0.237488  -0.408805
     7  C   -0.913840   0.380437
     8  C    0.419281  -0.264654
     9  C   -1.167206   0.773320
    10  C    2.415829  -2.949006
    11  N   -0.469477   0.240121
    12  C   -0.347767   0.324564
    13  O   -0.376116   0.011692
    14  C    0.426361  -0.910430
    15  H   -0.299993   0.450631
    16  H    0.087674   0.074156
    17  H   -0.270346   0.412881
    18  H   -0.232158   0.396157
    19  H    0.017694   0.105597
    20  H   -0.228386   0.388762
    21  H   -0.294026   0.437849
    22  H    0.082103   0.091275
    23  H   -0.121829   0.306562
    24  H   -0.034642   0.195431
    25  H   -0.452247   0.637331
    26  H   -0.753740   0.942501
    27  H   -0.030072   0.353528
    28  H    0.205590  -0.011990
    29  H    0.054418   0.133973
 Sum of Mulliken charges =  -1.00000   1.00000

 Dipole moment (field-independent basis, Debye):
    X=              2.4300    Y=              1.3860    Z=             -3.0792  Tot=              4.1602
 Quadrupole moment (field-independent basis, Debye-Ang):
   XX=           -180.2464   YY=           -117.2154   ZZ=           -131.5879
   XY=              1.6798   XZ=              0.9028   YZ=              1.5497

 Summary of Natural Population Analysis:

                                       Natural Population
                Natural  -----------------------------------------------
    Atom  No    Charge         Core      Valence    Rydberg      Total
 -----------------------------------------------------------------------
      C    1   -0.29095      0.99964     2.28625    0.00507     3.29095
      C    2   -0.01236      0.99952     2.00252    0.01032     3.01236
      C    3   -0.09770      0.99946     2.08905    0.00919     3.09770
      C    4   -0.00676      0.99950     1.99521    0.01204     3.00676
      C    5   -0.10636      0.99950     2.09879    0.00807     3.10636
      C    6   -0.09334      0.99957     2.08398    0.00979     3.09334
      C    7   -0.10651      0.99951     2.09712    0.00989     3.10651
      C    8   -0.11822      0.99956     2.10693    0.01172     3.11822
      C    9   -0.18873      0.99961     2.17970    0.00942     3.18873
      C   10   -0.08159      0.99961     2.07077    0.01121     3.08159
      N   11   -0.31940      0.99967     2.80957    0.01015     3.81940
      C   12    0.34522      0.99966     1.63185    0.02327     2.65478
      O   13   -0.32749      0.99988     3.32177    0.00585     4.32749
      C   14   -0.22617      0.99957     2.21877    0.00783     3.22617
      H   15    0.10472      0.00000     0.39392    0.00136     0.39528
      H   16    0.10339      0.00000     0.39545    0.00115     0.39661
      H   17    0.10375      0.00000     0.39489    0.00136     0.39625
      H   18    0.09978      0.00000     0.39857    0.00165     0.40022
      H   19    0.10017      0.00000     0.39846    0.00138     0.39983
      H   20    0.09932      0.00000     0.39982    0.00085     0.40068
      H   21    0.09982      0.00000     0.39912    0.00107     0.40018
      H   22    0.10019      0.00000     0.39763    0.00217     0.39981
      H   23    0.10964      0.00000     0.38900    0.00136     0.39036
      H   24    0.09738      0.00000     0.40096    0.00166     0.40262
      H   25    0.09124      0.00000     0.40576    0.00300     0.40876
      H   26    0.10185      0.00000     0.39462    0.00354     0.39815
      H   27    0.19591      0.00000     0.30139    0.00269     0.30409
      H   28    0.11299      0.00000     0.38606    0.00095     0.38701
      H   29    0.11020      0.00000     0.38860    0.00120     0.38980
 =======================================================================
   * Total *   -0.00000     13.99426    36.83653    0.16921    51.00000

 Normal termination of Gaussian 16 at Thu Dec 10 11:42:22 2020.
