 Gaussian 16, Revision A.03,

 -----------------------------------------------------------
 # opt freq B3LYP/6-31G(d) empiricaldispersion=gd3bj scf=xqc
 -----------------------------------------------------------

 ------------------------------
 CID_3337033_JID_10055_neutraal
 ------------------------------
 Symbolic Z-matrix:
 Charge =  0 Multiplicity = 1

 SCF Done:  E(RB3LYP) =  -946.002503732     A.U. after   16 cycles
 SCF Done:  E(RB3LYP) =  -946.007377201     A.U. after   14 cycles
 SCF Done:  E(RB3LYP) =  -946.008015765     A.U. after   14 cycles
 SCF Done:  E(RB3LYP) =  -946.000522465     A.U. after   17 cycles
 SCF Done:  E(RB3LYP) =  -946.008961870     A.U. after   14 cycles
 SCF Done:  E(RB3LYP) =  -946.009183372     A.U. after   14 cycles
 SCF Done:  E(RB3LYP) =  -946.009292637     A.U. after   13 cycles
 SCF Done:  E(RB3LYP) =  -946.009352311     A.U. after   13 cycles
 SCF Done:  E(RB3LYP) =  -946.009407130     A.U. after   14 cycles
 SCF Done:  E(RB3LYP) =  -946.009451615     A.U. after   14 cycles
 SCF Done:  E(RB3LYP) =  -946.011801839     A.U. after   15 cycles
 SCF Done:  E(RB3LYP) =  -946.011839426     A.U. after   14 cycles
 SCF Done:  E(RB3LYP) =  -946.011842269     A.U. after   11 cycles
 SCF Done:  E(RB3LYP) =  -946.011843575     A.U. after   11 cycles
 SCF Done:  E(RB3LYP) =  -946.011843865     A.U. after   10 cycles
 SCF Done:  E(RB3LYP) =  -946.011844027     A.U. after    9 cycles
 Optimization completed.
    -- Stationary point found.
 Normal termination of Gaussian 16 at Sun Dec 13 13:11:33 2020.

 --------------------------------------------------------------------
 #N Geom=AllCheck Guess=TCheck SCRF=Check GenChk RB3LYP/6-31G(d) Freq
 --------------------------------------------------------------------

 Structure from the checkpoint file:  "JID_10055.chk"
 ------------------------------
 CID_3337033_JID_10055_neutraal
 ------------------------------
 Charge =  0 Multiplicity = 1

 SCF Done:  E(RB3LYP) =  -946.011844027     A.U. after    1 cycles

  Exact polarizability: 200.563  36.994 168.862   4.539   2.616 121.315
 Approx polarizability: 317.639  70.953 292.483  10.126   6.359 228.271

                      1                      2                      3
                      A                      A                      A
 Frequencies --     13.0277                19.8622                39.7515
 Red. masses --      6.8994                 6.3858                 7.1733
 Frc consts  --      0.0007                 0.0015                 0.0067
 IR Inten    --      1.6292                 1.4641                 0.3206

                      4                      5                      6
                      A                      A                      A
 Frequencies --     56.6171               124.2745               136.6758
 Red. masses --     10.4343                 6.0711                 6.3722
 Frc consts  --      0.0197                 0.0552                 0.0701
 IR Inten    --      0.5535                 0.2109                 3.4711

                      7                      8                      9
                      A                      A                      A
 Frequencies --    159.3734               186.1005               218.7719
 Red. masses --      5.7941                 4.8974                 5.7991
 Frc consts  --      0.0867                 0.0999                 0.1635
 IR Inten    --      0.8987                 0.6045                 4.2470

                     10                     11                     12
                      A                      A                      A
 Frequencies --    228.8489               275.1806               308.2591
 Red. masses --      6.1618                 4.9265                 5.4197
 Frc consts  --      0.1901                 0.2198                 0.3034
 IR Inten    --      0.9828                 4.4278                 4.1175

                     13                     14                     15
                      A                      A                      A
 Frequencies --    338.1542               397.8125               430.3869
 Red. masses --      6.3818                 3.9650                 2.5781
 Frc consts  --      0.4300                 0.3697                 0.2814
 IR Inten    --      3.5777                26.7725                40.5352

                     16                     17                     18
                      A                      A                      A
 Frequencies --    436.8517               448.4511               454.7830
 Red. masses --      3.0409                 1.8248                 5.2632
 Frc consts  --      0.3419                 0.2162                 0.6414
 IR Inten    --      3.5360               103.0154                 3.7137

                     19                     20                     21
                      A                      A                      A
 Frequencies --    491.1690               505.6962               557.6042
 Red. masses --      4.9202                 6.4443                 6.3423
 Frc consts  --      0.6993                 0.9710                 1.1619
 IR Inten    --     20.6019                 3.9417                 0.3701

                     22                     23                     24
                      A                      A                      A
 Frequencies --    571.5911               593.6183               638.1175
 Red. masses --      5.9980                 4.8769                 6.4378
 Frc consts  --      1.1546                 1.0125                 1.5445
 IR Inten    --      1.5806                 1.1181                22.9448

                     25                     26                     27
                      A                      A                      A
 Frequencies --    662.3122               680.5990               685.4929
 Red. masses --      5.7176                 8.1341                 4.4334
 Frc consts  --      1.4777                 2.2199                 1.2274
 IR Inten    --      3.7362                 0.7605                 3.3460

                     28                     29                     30
                      A                      A                      A
 Frequencies --    725.1846               747.3248               758.4829
 Red. masses --      3.1294                 5.1946                 1.4543
 Frc consts  --      0.9696                 1.7093                 0.4930
 IR Inten    --     29.5853                31.7255                58.4033

                     31                     32                     33
                      A                      A                      A
 Frequencies --    778.4948               793.8460               818.0360
 Red. masses --      3.4992                 5.0746                 3.5235
 Frc consts  --      1.2495                 1.8842                 1.3892
 IR Inten    --      5.1783                27.8730                21.1573

                     34                     35                     36
                      A                      A                      A
 Frequencies --    833.6240               846.5358               861.5616
 Red. masses --      2.8120                 2.9122                 1.4757
 Frc consts  --      1.1514                 1.2296                 0.6454
 IR Inten    --     13.3433                31.3995                 0.4349

                     37                     38                     39
                      A                      A                      A
 Frequencies --    921.6467               934.9154               947.6766
 Red. masses --      3.2933                 4.1717                 1.3625
 Frc consts  --      1.6482                 2.1484                 0.7209
 IR Inten    --      5.9748                 4.7291                 0.5159

                     40                     41                     42
                      A                      A                      A
 Frequencies --    953.0635               969.4769               988.4287
 Red. masses --      2.1563                 1.3892                 1.2653
 Frc consts  --      1.1540                 0.7693                 0.7283
 IR Inten    --     11.0152                 1.5857                 0.0166

                     43                     44                     45
                      A                      A                      A
 Frequencies --   1006.7670              1024.3427              1033.8907
 Red. masses --      1.3166                 6.2315                 2.0595
 Frc consts  --      0.7862                 3.8524                 1.2971
 IR Inten    --      1.3804                 0.7124                 5.3601

                     46                     47                     48
                      A                      A                      A
 Frequencies --   1068.5715              1112.8026              1115.3724
 Red. masses --      6.6151                 3.0111                 1.6548
 Frc consts  --      4.4503                 2.1969                 1.2129
 IR Inten    --    122.9800               106.1043                16.1192

                     49                     50                     51
                      A                      A                      A
 Frequencies --   1129.1013              1141.0356              1166.0757
 Red. masses --      2.1309                 2.5684                 1.6294
 Frc consts  --      1.6006                 1.9702                 1.3053
 IR Inten    --     80.3783                 9.4494                19.9345

                     52                     53                     54
                      A                      A                      A
 Frequencies --   1190.9952              1198.7601              1233.9357
 Red. masses --      1.3368                 1.1467                 3.0348
 Frc consts  --      1.1172                 0.9708                 2.7225
 IR Inten    --     15.6919                 2.1623                26.3113

                     55                     56                     57
                      A                      A                      A
 Frequencies --   1276.2237              1310.5248              1322.9895
 Red. masses --      3.4642                 1.6837                 1.3372
 Frc consts  --      3.3243                 1.7038                 1.3789
 IR Inten    --      4.3121                46.1216                 9.9306

                     58                     59                     60
                      A                      A                      A
 Frequencies --   1328.8691              1350.7332              1372.5054
 Red. masses --      1.6949                 2.6179                 4.1995
 Frc consts  --      1.7634                 2.8141                 4.6609
 IR Inten    --     31.7207                33.8704                22.3225

                     61                     62                     63
                      A                      A                      A
 Frequencies --   1386.3583              1401.4219              1423.1067
 Red. masses --      3.1843                13.4941                 2.5374
 Frc consts  --      3.6059                15.6146                 3.0277
 IR Inten    --     14.7012               261.0032                26.2258

                     64                     65                     66
                      A                      A                      A
 Frequencies --   1434.1099              1453.7375              1482.0244
 Red. masses --      5.0791                 1.4424                 2.7966
 Frc consts  --      6.1546                 1.7960                 3.6190
 IR Inten    --      1.2106                73.9898                27.9328

                     67                     68                     69
                      A                      A                      A
 Frequencies --   1498.5084              1529.4411              1541.9069
 Red. masses --      2.7534                 2.4614                 3.2471
 Frc consts  --      3.6428                 3.3923                 4.5485
 IR Inten    --     31.2758                 5.3907                12.9420

                     70                     71                     72
                      A                      A                      A
 Frequencies --   1630.8213              1640.3790              1647.2582
 Red. masses --      9.0441                 6.8858                 6.6141
 Frc consts  --     14.1720                10.9168                10.5741
 IR Inten    --    145.1406                 7.2449                41.7127

                     73                     74                     75
                      A                      A                      A
 Frequencies --   1673.9949              1684.1836              3091.5079
 Red. masses --      7.0007                 7.9943                 1.0858
 Frc consts  --     11.5584                13.3600                 6.1141
 IR Inten    --     14.1645                33.6370                 9.7168

                     76                     77                     78
                      A                      A                      A
 Frequencies --   3197.0267              3208.4635              3209.8776
 Red. masses --      1.0864                 1.0898                 1.0891
 Frc consts  --      6.5422                 6.6099                 6.6112
 IR Inten    --      1.2505                11.0267                 7.6047

                     79                     80                     81
                      A                      A                      A
 Frequencies --   3217.8397              3229.4334              3230.6764
 Red. masses --      1.0951                 1.0955                 1.0928
 Frc consts  --      6.6806                 6.7318                 6.7203
 IR Inten    --     13.5148                 9.2412                 3.8016

                     82                     83                     84
                      A                      A                      A
 Frequencies --   3251.0063              3257.2660              3695.9322
 Red. masses --      1.0907                 1.0929                 1.0654
 Frc consts  --      6.7922                 6.8317                 8.5741
 IR Inten    --      2.2753                 1.5859                45.1001

 - Thermochemistry -
 -------------------
 Temperature   298.150 Kelvin.  Pressure   1.00000 Atm.
 Atom     1 has atomic number  6 and mass  12.00000

 Molecular mass:   270.07529 amu.
 Principal axes and moments of inertia in atomic units:
                           1         2         3
     Eigenvalues --  3389.627457412.986719414.11764
           X            0.99945   0.03288   0.00486
           Y           -0.03288   0.99946   0.00089
           Z           -0.00483  -0.00105   0.99999
 This molecule is an asymmetric top.
 Rotational symmetry number  1.
 Warning -- assumption of classical behavior for rotation
           may cause significant error
 Rotational temperatures (Kelvin)      0.02555     0.01168     0.00920
 Rotational constants (GHZ):           0.53243     0.24346     0.19171
 Zero-point vibrational energy     585796.1 (Joules/Mol)
                                  140.00863 (Kcal/Mol)
 Warning -- explicit consideration of  23 degrees of freedom as
           vibrations may cause significant error
 Vibrational temperatures:     18.74    28.58    57.19    81.46   178.80
          (Kelvin)            196.65   229.30   267.76   314.76   329.26
                              395.92   443.52   486.53   572.36   619.23
                              628.53   645.22   654.33   706.68   727.58
                              802.27   822.39   854.08   918.11   952.92
                              979.23   986.27  1043.38  1075.23  1091.29
                             1120.08  1142.17  1176.97  1199.40  1217.98
                             1239.60  1326.04  1345.13  1363.50  1371.25
                             1394.86  1422.13  1448.51  1473.80  1487.54
                             1537.44  1601.07  1604.77  1624.52  1641.70
                             1677.72  1713.58  1724.75  1775.36  1836.20
                             1885.55  1903.49  1911.95  1943.40  1974.73
                             1994.66  2016.33  2047.53  2063.36  2091.60
                             2132.30  2156.02  2200.52  2218.46  2346.39
                             2360.14  2370.04  2408.51  2423.16  4447.99
                             4599.81  4616.26  4618.30  4629.75  4646.43
                             4648.22  4677.47  4686.48  5317.62

 Zero-point correction=                           0.223118 (Hartree/Particle)
 Thermal correction to Energy=                    0.238577
 Thermal correction to Enthalpy=                  0.239521
 Thermal correction to Gibbs Free Energy=         0.177140
 Sum of electronic and zero-point Energies=           -945.788726
 Sum of electronic and thermal Energies=              -945.773267
 Sum of electronic and thermal Enthalpies=            -945.772323
 Sum of electronic and thermal Free Energies=         -945.834704

                     E (Thermal)             CV                S
                      KCal/Mol        Cal/Mol-Kelvin    Cal/Mol-Kelvin
 Total                  149.709             59.996            131.292
 Electronic               0.000              0.000              0.000
 Translational            0.889              2.981             42.680
 Rotational               0.889              2.981             33.825
 Vibrational            147.932             54.035             54.788
 Vibration     1          0.593              1.987              7.486
 Vibration     2          0.593              1.986              6.648
 Vibration     3          0.594              1.981              5.271
 Vibration     4          0.596              1.975              4.572
 Vibration     5          0.610              1.929              3.033
 Vibration     6          0.614              1.917              2.850
 Vibration     7          0.621              1.892              2.557
 Vibration     8          0.632              1.859              2.266
 Vibration     9          0.647              1.812              1.969
 Vibration    10          0.652              1.797              1.888
 Vibration    11          0.677              1.719              1.563
 Vibration    12          0.698              1.658              1.372
 Vibration    13          0.718              1.599              1.221
 Vibration    14          0.764              1.475              0.971
 Vibration    15          0.792              1.404              0.857
 Vibration    16          0.797              1.390              0.837
 Vibration    17          0.807              1.364              0.800
 Vibration    18          0.813              1.350              0.781
 Vibration    19          0.847              1.270              0.681
 Vibration    20          0.861              1.237              0.644
 Vibration    21          0.913              1.123              0.529
 Vibration    22          0.928              1.093              0.501
 Vibration    23          0.951              1.045              0.461

                           ! Non-Optimized Parameters !
 Normal termination of Gaussian 16 at Sun Dec 13 13:27:34 2020.

 ----------------------------------------------------------------------
 # B3LYP/6-311++G(d,p) empiricaldispersion=gd3bj scf=xqc pop=npa geom=c
 heck
 ----------------------------------------------------------------------

 --------------------------------------
 CID_3337033_JID_10055_Energie_neutraal
 --------------------------------------
 Structure from the checkpoint file:  "JID_10055.chk"
 Charge =  0 Multiplicity = 1

 SCF Done:  E(RB3LYP) =  -946.271448205     A.U. after   16 cycles
 Normal termination of Gaussian 16 at Sun Dec 13 13:34:29 2020.

 ----------------------------------------------------------------------
 # B3LYP/6-311++G(d,p) empiricaldispersion=gd3bj scf=xqc pop=npa geom=c
 heck
 ----------------------------------------------------------------------

 ------------------------------------
 CID_3337033_JID_10055_Energie_kation
 ------------------------------------
 Structure from the checkpoint file:  "JID_10055.chk"
 Charge =  1 Multiplicity = 2

 SCF Done:  E(UB3LYP) =  -945.948113132     A.U. after   28 cycles
 Normal termination of Gaussian 16 at Sun Dec 13 13:51:55 2020.
 Gaussian 16:  ES64L-G16RevA.03 25-Dec-2016

 ----------------------------------------------------------------------
 # B3LYP/6-311++G(d,p) empiricaldispersion=gd3bj scf=xqc pop=npa geom=c
 heck
 ----------------------------------------------------------------------

 -----------------------------------
 CID_3337033_JID_10055_Energie_anion
 -----------------------------------
 Structure from the checkpoint file:  "JID_10055.chk"
 Charge = -1 Multiplicity = 2

                         Standard orientation:
 ---------------------------------------------------------------------
 Center     Atomic      Atomic             Coordinates (Angstroms)
 Number     Number       Type             X           Y           Z
 ---------------------------------------------------------------------
      1          6           0        4.172466    1.649556    0.383755
      2          6           0        3.509037    1.244855    1.567905
      3          6           0        2.480772    0.314484    1.554715
      4          6           0        2.135019   -0.207834    0.300690
      5          6           0        2.784611    0.190116   -0.887917
      6          6           0        3.823364    1.133248   -0.853103
      7          7           0        2.216257   -0.485790   -1.949751
      8          7           0        1.277284   -1.246820   -1.492981
      9          7           0        1.207758   -1.111639   -0.134770
     10          6           0        0.172217   -1.857664    0.574660
     11          6           0       -1.199987   -1.226200    0.350492
     12          6           0       -1.331728    0.151950    0.180717
     13          6           0       -2.604751    0.688069    0.021456
     14          6           0       -3.753841   -0.098532    0.021516
     15          6           0       -3.609874   -1.472172    0.194712
     16          6           0       -2.342275   -2.032923    0.362066
     17          7           0       -2.738694    2.143413   -0.155933
     18          8           0       -3.871643    2.595788   -0.314449
     19          8           0       -1.710623    2.818338   -0.130501
     20          8           0        0.217491   -3.211933    0.221042
     21          1           0        4.968601    2.383952    0.454489
     22          1           0        3.814030    1.679921    2.514868
     23          1           0        1.975075    0.014075    2.466605
     24          1           0        4.321137    1.438362   -1.767159
     25          1           0        0.432717   -1.813262    1.636848
     26          1           0       -0.474638    0.813039    0.160532
     27          1           0       -4.721435    0.367762   -0.112171
     28          1           0       -4.488406   -2.109488    0.197737
     29          1           0       -2.226661   -3.102899    0.495126
     30          1           0        0.169365   -3.244887   -0.751556
 ---------------------------------------------------------------------

 SCF Done:  E(UB3LYP) =  -946.317063860     A.U. after   27 cycles

 The electronic state is 2-A.
 Alpha  occ. eigenvalues --  -19.04764 -18.96406 -18.96372 -14.34355 -14.29826
 Alpha  occ. eigenvalues --  -14.28244 -14.24279 -10.18592 -10.13227 -10.11094
 Alpha  occ. eigenvalues --  -10.09975 -10.09812 -10.09519 -10.09366 -10.07926
 Alpha  occ. eigenvalues --  -10.07369 -10.06252 -10.05587 -10.05393 -10.05331
 Alpha  occ. eigenvalues --   -1.04412  -1.00823  -0.95838  -0.87288  -0.82346
 Alpha  occ. eigenvalues --   -0.77898  -0.75041  -0.68872  -0.67781  -0.66467
 Alpha  occ. eigenvalues --   -0.64910  -0.60673  -0.56387  -0.55143  -0.53859
 Alpha  occ. eigenvalues --   -0.51503  -0.48713  -0.47131  -0.45429  -0.44013
 Alpha  occ. eigenvalues --   -0.41216  -0.38508  -0.38102  -0.37926  -0.37383
 Alpha  occ. eigenvalues --   -0.36512  -0.36142  -0.35887  -0.35851  -0.34333
 Alpha  occ. eigenvalues --   -0.32130  -0.31708  -0.29973  -0.29544  -0.28161
 Alpha  occ. eigenvalues --   -0.27148  -0.25389  -0.25211  -0.24762  -0.24450
 Alpha  occ. eigenvalues --   -0.22482  -0.21105  -0.18185  -0.16736  -0.15576
 Alpha  occ. eigenvalues --   -0.15181  -0.14575  -0.14133  -0.13945  -0.11980
 Alpha  occ. eigenvalues --    0.01422
 Alpha virt. eigenvalues --    0.03340   0.06524   0.07754   0.08355   0.08653
 Alpha virt. eigenvalues --    0.08966   0.09750   0.09877   0.10524   0.10780
 Alpha virt. eigenvalues --    0.11594   0.12428   0.12822   0.13430   0.13660

  Beta  occ. eigenvalues --  -19.04758 -18.95998 -18.95951 -14.33826 -14.29798
  Beta  occ. eigenvalues --  -14.28117 -14.24224 -10.18590 -10.13242 -10.11105
  Beta  occ. eigenvalues --  -10.09915 -10.09786 -10.09455 -10.09365 -10.07838
  Beta  occ. eigenvalues --  -10.07425 -10.06308 -10.05473 -10.05198 -10.05150
  Beta  occ. eigenvalues --   -1.03515  -1.00708  -0.95810  -0.86507  -0.82257
  Beta  occ. eigenvalues --   -0.77823  -0.74803  -0.68787  -0.67635  -0.66230
  Beta  occ. eigenvalues --   -0.64566  -0.60505  -0.56254  -0.54330  -0.53803
  Beta  occ. eigenvalues --   -0.51400  -0.48648  -0.46988  -0.45249  -0.43946
  Beta  occ. eigenvalues --   -0.40730  -0.38459  -0.37973  -0.37750  -0.37329
  Beta  occ. eigenvalues --   -0.36082  -0.35716  -0.35484  -0.34057  -0.33898
  Beta  occ. eigenvalues --   -0.31906  -0.31463  -0.29927  -0.29508  -0.28086
  Beta  occ. eigenvalues --   -0.26873  -0.25130  -0.24769  -0.24548  -0.24288
  Beta  occ. eigenvalues --   -0.22269  -0.21075  -0.18063  -0.16432  -0.14988
  Beta  occ. eigenvalues --   -0.14028  -0.13538  -0.13339  -0.12128  -0.11566
  Beta virt. eigenvalues --    0.04234   0.06511   0.07531   0.07849   0.08342
  Beta virt. eigenvalues --    0.08760   0.09058   0.09799   0.09979   0.10744
  Beta virt. eigenvalues --    0.11052   0.11597   0.12840   0.13186   0.13656

 Mulliken charges and spin densities:
               1          2
     1  C   -0.435679   0.000113
     2  C   -0.247206   0.027607
     3  C    0.040127   0.038780
     4  C    0.203863  -0.041695
     5  C   -0.410785   0.015771
     6  C    0.054503   0.049351
     7  N    0.048359   0.008074
     8  N   -0.341556   0.060855
     9  N    0.468351   0.022754
    10  C   -0.729946   0.002315
    11  C    1.251635  -0.040295
    12  C   -0.496349   0.132795
    13  C   -0.620182  -0.015041
    14  C    0.264358   0.151642
    15  C   -0.528261  -0.027063
    16  C   -0.563175   0.154048
    17  N   -0.214690   0.174896
    18  O   -0.156157   0.155741
    19  O   -0.171792   0.161662
    20  O   -0.196590  -0.003073
    21  H    0.136659   0.000008
    22  H    0.169703  -0.000876
    23  H    0.127942  -0.001368
    24  H    0.177598  -0.003974
    25  H    0.176104   0.000761
    26  H    0.221958  -0.004236
    27  H    0.216032  -0.008176
    28  H    0.137159   0.002684
    29  H    0.134366  -0.013315
    30  H    0.283649  -0.000745
 Sum of Mulliken charges =  -1.00000   1.00000

 Dipole moment (field-independent basis, Debye):
    X=              6.8739    Y=             -5.6485    Z=              3.4016  Tot=              9.5251
 Quadrupole moment (field-independent basis, Debye-Ang):
   XX=           -158.5299   YY=           -153.6080   ZZ=           -125.0780
   XY=             27.3920   XZ=              3.7087   YZ=              2.4088

 Summary of Natural Population Analysis:

                                       Natural Population
                Natural  -----------------------------------------------
    Atom  No    Charge         Core      Valence    Rydberg      Total
 -----------------------------------------------------------------------
      C    1   -0.11611      0.99959     2.10742    0.00910     3.11611
      C    2   -0.09246      0.99959     2.08399    0.00888     3.09246
      C    3   -0.10499      0.99954     2.09765    0.00779     3.10499
      C    4    0.06624      0.99946     1.92379    0.01050     2.93376
      C    5    0.03642      0.99947     1.95153    0.01258     2.96358
      C    6   -0.07971      0.99953     2.07147    0.00871     3.07971
      N    7   -0.12208      0.99973     2.60694    0.01541     3.62208
      N    8   -0.01051      0.99977     2.49558    0.01516     3.51051
      N    9   -0.12321      0.99961     2.60678    0.01682     3.62321
      C   10    0.16006      0.99954     1.82438    0.01601     2.83994
      C   11   -0.05673      0.99948     2.04892    0.00833     3.05673
      C   12   -0.07439      0.99947     2.06581    0.00911     3.07439
      C   13    0.05934      0.99940     1.92964    0.01163     2.94066
      C   14   -0.07068      0.99953     2.06119    0.00996     3.07068
      C   15   -0.11888      0.99958     2.11010    0.00920     3.11888
      C   16   -0.05708      0.99952     2.04855    0.00900     3.05708
      N   17    0.29462      0.99972     2.17827    0.02738     3.20538
      O   18   -0.19571      0.99990     3.18797    0.00785     4.19571
      O   19   -0.19012      0.99990     3.18235    0.00787     4.19012
      O   20   -0.36271      0.99989     3.35701    0.00581     4.36271
      H   21    0.09782      0.00000     0.40127    0.00091     0.40218
      H   22    0.09791      0.00000     0.40118    0.00091     0.40209
      H   23    0.10364      0.00000     0.39529    0.00107     0.39636
      H   24    0.10402      0.00000     0.39493    0.00105     0.39598
      H   25    0.09242      0.00000     0.40607    0.00151     0.40758
      H   26    0.11797      0.00000     0.38029    0.00174     0.38203
      H   27    0.11349      0.00000     0.38529    0.00121     0.38651
      H   28    0.09404      0.00000     0.40496    0.00100     0.40596
      H   29    0.09927      0.00000     0.39958    0.00115     0.40073
      H   30    0.23810      0.00000     0.25945    0.00245     0.26190
 =======================================================================
   * Total *    0.00000     19.99224    49.76766    0.24010    70.00000

 Normal termination of Gaussian 16 at Sun Dec 13 14:08:39 2020.
