 Gaussian 16, Revision A.03,

 -----------------------------------------------------------
 # opt freq B3LYP/6-31G(d) empiricaldispersion=gd3bj scf=xqc
 -----------------------------------------------------------

 ------------------------------
 CID_83823203_JID_6330_neutraal
 ------------------------------
 Symbolic Z-matrix:
 Charge =  0 Multiplicity = 1

 SCF Done:  E(RB3LYP) =  -760.222037758     A.U. after   14 cycles
 SCF Done:  E(RB3LYP) =  -760.229293851     A.U. after   13 cycles
 SCF Done:  E(RB3LYP) =  -760.230226818     A.U. after   12 cycles
 SCF Done:  E(RB3LYP) =  -760.230145723     A.U. after   13 cycles
 SCF Done:  E(RB3LYP) =  -760.230942251     A.U. after   12 cycles
 SCF Done:  E(RB3LYP) =  -760.230840014     A.U. after   12 cycles
 SCF Done:  E(RB3LYP) =  -760.231115062     A.U. after   12 cycles
 SCF Done:  E(RB3LYP) =  -760.231175348     A.U. after   10 cycles
 SCF Done:  E(RB3LYP) =  -760.231186865     A.U. after   11 cycles
 SCF Done:  E(RB3LYP) =  -760.231193548     A.U. after    9 cycles
 SCF Done:  E(RB3LYP) =  -760.231194796     A.U. after    8 cycles
 SCF Done:  E(RB3LYP) =  -760.231195225     A.U. after    8 cycles
 SCF Done:  E(RB3LYP) =  -760.231195323     A.U. after    7 cycles
 SCF Done:  E(RB3LYP) =  -760.231195378     A.U. after    7 cycles
 Optimization completed.
    -- Stationary point found.
 Normal termination of Gaussian 16 at Thu Dec 10 22:17:27 2020.

 --------------------------------------------------------------------
 #N Geom=AllCheck Guess=TCheck SCRF=Check GenChk RB3LYP/6-31G(d) Freq
 --------------------------------------------------------------------

 Structure from the checkpoint file:  "JID_6330.chk"
 ------------------------------
 CID_83823203_JID_6330_neutraal
 ------------------------------
 Charge =  0 Multiplicity = 1

 SCF Done:  E(RB3LYP) =  -760.231195378     A.U. after    1 cycles

  Exact polarizability: 170.376  -1.058 131.669  -5.205   5.640  95.838
 Approx polarizability: 232.795   1.394 204.744  -6.949  14.724 149.042

                      1                      2                      3
                      A                      A                      A
 Frequencies --     33.9641                54.1285                61.4262
 Red. masses --      4.0099                 4.8667                 5.4677
 Frc consts  --      0.0027                 0.0084                 0.0122
 IR Inten    --      0.5214                 1.3698                 0.6325

                      4                      5                      6
                      A                      A                      A
 Frequencies --     76.5273               113.1105               130.5178
 Red. masses --      3.8444                 6.6516                 4.1619
 Frc consts  --      0.0133                 0.0501                 0.0418
 IR Inten    --      2.4586                 0.1309                 4.3895

                      7                      8                      9
                      A                      A                      A
 Frequencies --    160.5597               196.8354               216.2637
 Red. masses --      2.7708                 1.8442                 1.4892
 Frc consts  --      0.0421                 0.0421                 0.0410
 IR Inten    --     10.3774                 3.9443                 1.3301

                     10                     11                     12
                      A                      A                      A
 Frequencies --    227.4013               235.7997               253.8142
 Red. masses --      2.4658                 1.0988                 1.1596
 Frc consts  --      0.0751                 0.0360                 0.0440
 IR Inten    --      0.6227                10.5756                26.7075

                     13                     14                     15
                      A                      A                      A
 Frequencies --    289.0165               292.6729               309.0967
 Red. masses --      1.2006                 3.5707                 3.8926
 Frc consts  --      0.0591                 0.1802                 0.2191
 IR Inten    --      3.6478                 0.2544                 1.7727

                     16                     17                     18
                      A                      A                      A
 Frequencies --    333.0943               357.3938               379.1098
 Red. masses --      2.9195                 2.7810                 2.9996
 Frc consts  --      0.1909                 0.2093                 0.2540
 IR Inten    --      5.3312                 1.0648                 2.4730

                     19                     20                     21
                      A                      A                      A
 Frequencies --    395.9254               441.3475               459.4856
 Red. masses --      2.6889                 3.3680                 2.5086
 Frc consts  --      0.2483                 0.3865                 0.3121
 IR Inten    --      1.7139                 0.3777                25.8508

                     22                     23                     24
                      A                      A                      A
 Frequencies --    470.7860               538.2895               546.8976
 Red. masses --      1.6229                 5.5355                 3.7982
 Frc consts  --      0.2119                 0.9450                 0.6693
 IR Inten    --     43.7590                17.1176                11.1186

                     25                     26                     27
                      A                      A                      A
 Frequencies --    561.3859               588.7227               621.3745
 Red. masses --      3.0872                 3.5990                 5.9561
 Frc consts  --      0.5732                 0.7349                 1.3549
 IR Inten    --      6.1406                 2.9862                 3.5488

                     28                     29                     30
                      A                      A                      A
 Frequencies --    712.8062               741.7357               761.9143
 Red. masses --      5.7720                 7.7998                 5.8602
 Frc consts  --      1.7279                 2.5283                 2.0044
 IR Inten    --      9.9617                14.6480                28.1877

                     31                     32                     33
                      A                      A                      A
 Frequencies --    793.4464               826.9042               861.6071
 Red. masses --      3.0473                 7.8751                 1.2389
 Frc consts  --      1.1303                 3.1726                 0.5419
 IR Inten    --     12.3611                 2.1343                87.2769

                     34                     35                     36
                      A                      A                      A
 Frequencies --    877.5010               924.8590               941.5856
 Red. masses --      5.5729                 2.0221                 1.4809
 Frc consts  --      2.5283                 1.0191                 0.7736
 IR Inten    --      3.9312                13.4496                 5.1551

                     37                     38                     39
                      A                      A                      A
 Frequencies --    950.9904               960.7929               991.1248
 Red. masses --      2.5440                 1.8335                 1.4294
 Frc consts  --      1.3555                 0.9972                 0.8273
 IR Inten    --      9.6615                25.5242                 0.2224

                     40                     41                     42
                      A                      A                      A
 Frequencies --   1018.5632              1037.9264              1043.8057
 Red. masses --      1.5992                 1.9031                 1.4762
 Frc consts  --      0.9775                 1.2080                 0.9476
 IR Inten    --     25.7426                62.4187                22.9210

                     43                     44                     45
                      A                      A                      A
 Frequencies --   1048.6544              1081.1250              1099.6195
 Red. masses --      1.7525                 1.5084                 2.7956
 Frc consts  --      1.1355                 1.0388                 1.9916
 IR Inten    --     91.5794                 7.7459                 8.8780

                     46                     47                     48
                      A                      A                      A
 Frequencies --   1144.5774              1163.0679              1224.2603
 Red. masses --      1.4534                 4.9558                 3.0592
 Frc consts  --      1.1218                 3.9498                 2.7015
 IR Inten    --      2.1031                 5.4973               106.6223

                     49                     50                     51
                      A                      A                      A
 Frequencies --   1231.2720              1263.2205              1275.6015
 Red. masses --      2.2955                 2.2638                 7.6561
 Frc consts  --      2.0504                 2.1283                 7.3399
 IR Inten    --     12.2436                47.6488                48.1290

                     52                     53                     54
                      A                      A                      A
 Frequencies --   1291.8212              1307.2847              1337.2937
 Red. masses --      2.7904                 3.1541                 2.0080
 Frc consts  --      2.7436                 3.1759                 2.1157
 IR Inten    --     63.6318               305.2501                 2.9737

                     55                     56                     57
                      A                      A                      A
 Frequencies --   1355.6313              1381.8208              1426.9647
 Red. masses --      1.2639                 4.0060                 1.2505
 Frc consts  --      1.3685                 4.5067                 1.5003
 IR Inten    --     12.3876               474.8092                 4.0295

                     58                     59                     60
                      A                      A                      A
 Frequencies --   1436.4842              1447.0209              1448.9241
 Red. masses --      1.3037                 1.7216                 1.4249
 Frc consts  --      1.5850                 2.1239                 1.7625
 IR Inten    --      3.4199                26.8136                12.7294

                     61                     62                     63
                      A                      A                      A
 Frequencies --   1459.8627              1485.3625              1490.6124
 Red. masses --      1.3399                 2.0911                 1.4116
 Frc consts  --      1.6824                 2.7183                 1.8480
 IR Inten    --     63.2962                27.1919                 3.7357

                     64                     65                     66
                      A                      A                      A
 Frequencies --   1515.8086              1516.5617              1524.5354
 Red. masses --      1.0920                 1.1245                 1.0489
 Frc consts  --      1.4783                 1.5238                 1.4363
 IR Inten    --     20.6794                 7.9935                 0.2041

                     67                     68                     69
                      A                      A                      A
 Frequencies --   1534.8946              1537.8020              1537.9226
 Red. masses --      1.0831                 1.1017                 1.0882
 Frc consts  --      1.5034                 1.5351                 1.5165
 IR Inten    --      3.4301                 1.0953                21.8053

                     70                     71                     72
                      A                      A                      A
 Frequencies --   1551.9383              1609.4222              1644.8939
 Red. masses --      1.0664                 5.0472                 7.2748
 Frc consts  --      1.5132                 7.7026                11.5971
 IR Inten    --     11.1841               123.7162                34.8351

                     73                     74                     75
                      A                      A                      A
 Frequencies --   1700.3760              1843.0328              2970.7054
 Red. masses --      1.0881                 9.5014                 1.0744
 Frc consts  --      1.8535                19.0154                 5.5866
 IR Inten    --     38.9287               540.1321                79.9647

                     76                     77                     78
                      A                      A                      A
 Frequencies --   3050.3588              3056.1068              3060.8340
 Red. masses --      1.0365                 1.0354                 1.0379
 Frc consts  --      5.6823                 5.6976                 5.7292
 IR Inten    --     19.4649                15.2167                24.9717

                     79                     80                     81
                      A                      A                      A
 Frequencies --   3114.3350              3125.6071              3126.0785
 Red. masses --      1.1019                 1.1011                 1.1015
 Frc consts  --      6.2970                 6.3380                 6.3420
 IR Inten    --     24.7502                 2.8246                18.0575

                     82                     83                     84
                      A                      A                      A
 Frequencies --   3130.9331              3137.4723              3140.4484
 Red. masses --      1.1037                 1.1011                 1.0884
 Frc consts  --      6.3746                 6.3860                 6.3247
 IR Inten    --     11.7847                29.1815                11.4913

                     85                     86                     87
                      A                      A                      A
 Frequencies --   3158.1372              3167.3869              3197.3341
 Red. masses --      1.1012                 1.0908                 1.0915
 Frc consts  --      6.4708                 6.4473                 6.5743
 IR Inten    --     12.6086                26.2831                28.7322

                     88                     89                     90
                      A                      A                      A
 Frequencies --   3478.3302              3559.8596              3637.9185
 Red. masses --      1.0503                 1.0921                 1.0767
 Frc consts  --      7.4866                 8.1544                 8.3954
 IR Inten    --      0.7162                 0.2044                40.4596

 - Thermochemistry -
 -------------------
 Temperature   298.150 Kelvin.  Pressure   1.00000 Atm.
 Atom     1 has atomic number  6 and mass  12.00000

 Molecular mass:   224.12733 amu.
 Principal axes and moments of inertia in atomic units:
                           1         2         3
     Eigenvalues --  1678.860705607.029106016.86061
           X            0.99991   0.01174   0.00661
           Y           -0.01171   0.99992  -0.00456
           Z           -0.00667   0.00448   0.99997
 This molecule is an asymmetric top.
 Rotational symmetry number  1.
 Warning -- assumption of classical behavior for rotation
           may cause significant error
 Rotational temperatures (Kelvin)      0.05159     0.01545     0.01440
 Rotational constants (GHZ):           1.07498     0.32187     0.29995
 Zero-point vibrational energy     704720.3 (Joules/Mol)
                                  168.43218 (Kcal/Mol)
 Warning -- explicit consideration of  26 degrees of freedom as
           vibrations may cause significant error
 Vibrational temperatures:     48.87    77.88    88.38   110.11   162.74
          (Kelvin)            187.79   231.01   283.20   311.16   327.18
                              339.26   365.18   415.83   421.09   444.72
                              479.25   514.21   545.45   569.65   635.00
                              661.10   677.36   774.48   786.86   807.71
                              847.04   894.02  1025.57  1067.19  1096.22
                             1141.59  1189.73  1239.66  1262.53  1330.67
                             1354.73  1368.26  1382.37  1426.01  1465.49
                             1493.34  1501.80  1508.78  1555.50  1582.11
                             1646.79  1673.40  1761.44  1771.53  1817.49
                             1835.31  1858.64  1880.89  1924.07  1950.45
                             1988.13  2053.08  2066.78  2081.94  2084.68
                             2100.42  2137.11  2144.66  2180.91  2181.99
                             2193.47  2208.37  2212.55  2212.73  2232.89
                             2315.60  2366.64  2446.46  2651.71  4274.18
                             4388.79  4397.06  4403.86  4480.83  4497.05
                             4497.73  4504.71  4514.12  4518.40  4543.86
                             4557.16  4600.25  5004.54  5121.84  5234.15

 Zero-point correction=                           0.268414 (Hartree/Particle)
 Thermal correction to Energy=                    0.284657
 Thermal correction to Enthalpy=                  0.285601
 Thermal correction to Gibbs Free Energy=         0.224749
 Sum of electronic and zero-point Energies=           -759.962782
 Sum of electronic and thermal Energies=              -759.946539
 Sum of electronic and thermal Enthalpies=            -759.945595
 Sum of electronic and thermal Free Energies=         -760.006447

                     E (Thermal)             CV                S
                      KCal/Mol        Cal/Mol-Kelvin    Cal/Mol-Kelvin
 Total                  178.625             61.107            128.074
 Electronic               0.000              0.000              0.000
 Translational            0.889              2.981             42.124
 Rotational               0.889              2.981             32.404
 Vibrational            176.847             55.145             53.546
 Vibration     1          0.594              1.983              5.583
 Vibration     2          0.596              1.976              4.661
 Vibration     3          0.597              1.973              4.411
 Vibration     4          0.599              1.965              3.978
 Vibration     5          0.607              1.939              3.215
 Vibration     6          0.612              1.923              2.938
 Vibration     7          0.622              1.891              2.543
 Vibration     8          0.636              1.844              2.162
 Vibration     9          0.645              1.816              1.990
 Vibration    10          0.651              1.799              1.899
 Vibration    11          0.655              1.786              1.834
 Vibration    12          0.665              1.756              1.704
 Vibration    13          0.686              1.694              1.480
 Vibration    14          0.688              1.687              1.458
 Vibration    15          0.698              1.656              1.367
 Vibration    16          0.715              1.609              1.245
 Vibration    17          0.733              1.560              1.133
 Vibration    18          0.749              1.515              1.043
 Vibration    19          0.763              1.479              0.978
 Vibration    20          0.801              1.380              0.822
 Vibration    21          0.817              1.340              0.768
 Vibration    22          0.828              1.315              0.735
 Vibration    23          0.893              1.165              0.569
 Vibration    24          0.902              1.146              0.551
 Vibration    25          0.917              1.115              0.521
 Vibration    26          0.946              1.056              0.469

                           ! Non-Optimized Parameters !
 Normal termination of Gaussian 16 at Thu Dec 10 22:28:02 2020.

 ----------------------------------------------------------------------
 # B3LYP/6-311++G(d,p) empiricaldispersion=gd3bj scf=xqc pop=npa geom=c
 heck
 ----------------------------------------------------------------------

 --------------------------------------
 CID_83823203_JID_6330_Energie_neutraal
 --------------------------------------
 Structure from the checkpoint file:  "JID_6330.chk"
 Charge =  0 Multiplicity = 1

 SCF Done:  E(RB3LYP) =  -760.452946182     A.U. after   15 cycles
 Normal termination of Gaussian 16 at Thu Dec 10 22:32:15 2020.

 ----------------------------------------------------------------------
 # B3LYP/6-311++G(d,p) empiricaldispersion=gd3bj scf=xqc pop=npa geom=c
 heck
 ----------------------------------------------------------------------

 ------------------------------------
 CID_83823203_JID_6330_Energie_kation
 ------------------------------------
 Structure from the checkpoint file:  "JID_6330.chk"
 Charge =  1 Multiplicity = 2

 SCF Done:  E(UB3LYP) =  -760.126069175     A.U. after   33 cycles
 SCF Done:  E(UB3LYP) =  -760.128868515     a.u. after   13 cycles
 Normal termination of Gaussian 16 at Fri Dec 11 00:34:45 2020.
 Gaussian 16:  ES64L-G16RevA.03 25-Dec-2016

 ----------------------------------------------------------------------
 # B3LYP/6-311++G(d,p) empiricaldispersion=gd3bj scf=xqc pop=npa geom=c
 heck
 ----------------------------------------------------------------------

 -----------------------------------
 CID_83823203_JID_6330_Energie_anion
 -----------------------------------
 Structure from the checkpoint file:  "JID_6330.chk"
 Charge = -1 Multiplicity = 2

                         Standard orientation:
 ---------------------------------------------------------------------
 Center     Atomic      Atomic             Coordinates (Angstroms)
 Number     Number       Type             X           Y           Z
 ---------------------------------------------------------------------
      1          6           0        1.409892    2.143787    0.144089
      2          6           0        2.139416    0.845188   -0.046655
      3          6           0        3.519699    0.792460   -0.251429
      4          7           0        4.213058   -0.338952   -0.433620
      5          6           0        3.491741   -1.459992   -0.415912
      6          7           0        2.170465   -1.555625   -0.232485
      7          6           0        1.524487   -0.415660   -0.044619
      8          8           0        0.153958   -0.548157    0.045134
      9          6           0       -0.478873   -0.074839    1.178426
     10          8           0        0.114036    0.311769    2.164432
     11          7           0       -1.826063   -0.143458    1.048646
     12          6           0       -2.642757   -0.440187   -0.143085
     13          6           0       -2.540900   -1.932569   -0.496130
     14          6           0       -4.087503   -0.099150    0.253212
     15          6           0       -2.221112    0.400334   -1.373866
     16          7           0       -2.062176    1.821184   -1.061775
     17          1           0        1.262758    2.341789    1.210726
     18          1           0        1.982720    2.969507   -0.290080
     19          1           0        0.413541    2.122920   -0.309835
     20          1           0        4.092214    1.719003   -0.277754
     21          1           0        4.027310   -2.394172   -0.567687
     22          1           0       -2.295659    0.277366    1.837129
     23          1           0       -2.906146   -2.543683    0.335131
     24          1           0       -3.144954   -2.158206   -1.382268
     25          1           0       -1.504508   -2.210596   -0.700433
     26          1           0       -4.192094    0.958105    0.524734
     27          1           0       -4.767159   -0.310223   -0.577557
     28          1           0       -4.405423   -0.702011    1.111033
     29          1           0       -1.258728    0.033816   -1.734310
     30          1           0       -2.963390    0.192946   -2.164339
     31          1           0       -1.668219    2.300906   -1.868112
     32          1           0       -2.967745    2.255366   -0.892450
 ---------------------------------------------------------------------

 SCF Done:  E(UB3LYP) =  -760.449348815     A.U. after   33 cycles
 SCF Done:  E(UB3LYP) =  -760.449348815     a.u. after    1 cycles

 The electronic state is 2-A.
 Alpha  occ. eigenvalues --  -19.06671 -18.99413 -14.23587 -14.19986 -14.19892
 Alpha  occ. eigenvalues --  -14.19275 -10.22016 -10.15807 -10.12868 -10.12725
 Alpha  occ. eigenvalues --  -10.09625 -10.09080 -10.08676 -10.07007 -10.06405
 Alpha  occ. eigenvalues --  -10.06320  -1.01586  -0.92652  -0.87238  -0.83892
 Alpha  occ. eigenvalues --   -0.78103  -0.77532  -0.70334  -0.69184  -0.61227
 Alpha  occ. eigenvalues --   -0.60147  -0.57359  -0.56687  -0.53054  -0.50858
 Alpha  occ. eigenvalues --   -0.48640  -0.43233  -0.42133  -0.41051  -0.39230
 Alpha  occ. eigenvalues --   -0.38316  -0.35973  -0.35316  -0.34377  -0.33707
 Alpha  occ. eigenvalues --   -0.32979  -0.32523  -0.31806  -0.30940  -0.29989
 Alpha  occ. eigenvalues --   -0.29836  -0.29325  -0.28771  -0.28106  -0.27738
 Alpha  occ. eigenvalues --   -0.25698  -0.23627  -0.22675  -0.19924  -0.19579
 Alpha  occ. eigenvalues --   -0.18320  -0.16303  -0.15759  -0.15095  -0.14645
 Alpha  occ. eigenvalues --    0.04064
 Alpha virt. eigenvalues --    0.05517   0.07270   0.07956   0.08105   0.08363
 Alpha virt. eigenvalues --    0.09319   0.09374   0.10371   0.10562   0.11316
 Alpha virt. eigenvalues --    0.11497   0.12692   0.13002   0.13183   0.13551

  Beta  occ. eigenvalues --  -19.06662 -18.99402 -14.23575 -14.19897 -14.19710
  Beta  occ. eigenvalues --  -14.19224 -10.21987 -10.15649 -10.12867 -10.12745
  Beta  occ. eigenvalues --  -10.09405 -10.09059 -10.08729 -10.06952 -10.06397
  Beta  occ. eigenvalues --  -10.06311  -1.01527  -0.92597  -0.87021  -0.83862
  Beta  occ. eigenvalues --   -0.77996  -0.77237  -0.70218  -0.69139  -0.61142
  Beta  occ. eigenvalues --   -0.60065  -0.57146  -0.56598  -0.52911  -0.50748
  Beta  occ. eigenvalues --   -0.48517  -0.43151  -0.42042  -0.40980  -0.39116
  Beta  occ. eigenvalues --   -0.38236  -0.35890  -0.35249  -0.34325  -0.33447
  Beta  occ. eigenvalues --   -0.32922  -0.32477  -0.31737  -0.30885  -0.29882
  Beta  occ. eigenvalues --   -0.29726  -0.29104  -0.28724  -0.27982  -0.27697
  Beta  occ. eigenvalues --   -0.25646  -0.23589  -0.22446  -0.19401  -0.19173
  Beta  occ. eigenvalues --   -0.18118  -0.16184  -0.15400  -0.14948  -0.14569
  Beta virt. eigenvalues --    0.06670   0.07717   0.07769   0.08154   0.08530
  Beta virt. eigenvalues --    0.08674   0.09407   0.09833   0.10727   0.10817
  Beta virt. eigenvalues --    0.11502   0.11749   0.12715   0.13125   0.13401

 Mulliken charges and spin densities:
               1          2
     1  C   -0.677208  -0.080025
     2  C    0.710130   0.151940
     3  C   -0.458416   0.112840
     4  N   -0.139240   0.034954
     5  C   -0.075483  -0.002755
     6  N   -0.145264   0.087501
     7  C   -0.324794  -0.032298
     8  O    0.083330  -0.015834
     9  C    0.219996  -0.061249
    10  O   -0.263238   0.008979
    11  N   -0.126997  -0.056488
    12  C   -1.195864   1.186986
    13  C    0.119172  -0.653185
    14  C    0.772650  -1.206164
    15  C    0.741498  -1.285319
    16  N   -0.279736  -0.022535
    17  H    0.180162   0.016116
    18  H    0.059297   0.060539
    19  H    0.249533  -0.087422
    20  H    0.145545  -0.010207
    21  H    0.164489   0.003581
    22  H    0.231220   0.108265
    23  H    0.117314   0.028277
    24  H    0.087740   0.041243
    25  H    0.153334   0.026624
    26  H   -0.333825   0.484284
    27  H   -0.333508   0.497020
    28  H   -0.193604   0.340547
    29  H    0.038876   0.151567
    30  H   -0.344381   0.511674
    31  H   -0.113301   0.355146
    32  H   -0.069430   0.305400
 Sum of Mulliken charges =  -1.00000   1.00000

 Dipole moment (field-independent basis, Debye):
    X=              2.8894    Y=             -1.5280    Z=              0.5071  Tot=              3.3076
 Quadrupole moment (field-independent basis, Debye-Ang):
   XX=           -177.3429   YY=           -122.6063   ZZ=           -126.6348
   XY=             13.1836   XZ=             -8.1498   YZ=              2.3225

 Summary of Natural Population Analysis:

                                       Natural Population
                Natural  -----------------------------------------------
    Atom  No    Charge         Core      Valence    Rydberg      Total
 -----------------------------------------------------------------------
      C    1   -0.30356      0.99963     2.29851    0.00542     3.30356
      C    2   -0.06656      0.99946     2.06024    0.00687     3.06656
      C    3    0.07551      0.99955     1.90917    0.01577     2.92449
      N    4   -0.24266      0.99972     2.73211    0.01083     3.74266
      C    5    0.12871      0.99968     1.85253    0.01908     2.87129
      N    6   -0.22937      0.99965     2.72096    0.00875     3.72937
      C    7    0.29837      0.99935     1.68568    0.01659     2.70163
      O    8   -0.28811      0.99984     3.27886    0.00941     4.28811
      C    9    0.47054      0.99967     1.50317    0.02662     2.52946
      O   10   -0.32600      0.99987     3.32145    0.00468     4.32600
      N   11   -0.32639      0.99963     2.81584    0.01092     3.82639
      C   12    0.05434      0.99958     1.93150    0.01458     2.94566
      C   13   -0.28935      0.99961     2.28315    0.00659     3.28935
      C   14   -0.29067      0.99962     2.28338    0.00767     3.29067
      C   15   -0.09399      0.99956     2.08164    0.01279     3.09399
      N   16   -0.42435      0.99977     2.91347    0.01111     3.92435
      H   17    0.11529      0.00000     0.38344    0.00127     0.38471
      H   18    0.09715      0.00000     0.40180    0.00106     0.40285
      H   19    0.11749      0.00000     0.38076    0.00175     0.38251
      H   20    0.08222      0.00000     0.41573    0.00205     0.41778
      H   21    0.07785      0.00000     0.42093    0.00122     0.42215
      H   22    0.19880      0.00000     0.29931    0.00189     0.30120
      H   23    0.09954      0.00000     0.39965    0.00081     0.40046
      H   24    0.09939      0.00000     0.39982    0.00079     0.40061
      H   25    0.11193      0.00000     0.38682    0.00125     0.38807
      H   26    0.10405      0.00000     0.39426    0.00169     0.39595
      H   27    0.10800      0.00000     0.39032    0.00168     0.39200
      H   28    0.10059      0.00000     0.39828    0.00113     0.39941
      H   29    0.10140      0.00000     0.39690    0.00170     0.39860
      H   30    0.08389      0.00000     0.41417    0.00195     0.41611
      H   31    0.17828      0.00000     0.31972    0.00199     0.32172
      H   32    0.17769      0.00000     0.31852    0.00379     0.32231
 =======================================================================
   * Total *    0.00000     15.99418    43.79211    0.21371    60.00000

 Normal termination of Gaussian 16 at Fri Dec 11 00:46:58 2020.
