 Gaussian 16, Revision A.03,

 -----------------------------------------------------------
 # opt freq B3LYP/6-31G(d) empiricaldispersion=gd3bj scf=xqc
 -----------------------------------------------------------

 ------------------------------
 CID_61427540_JID_2500_neutraal
 ------------------------------
 Symbolic Z-matrix:
 Charge =  0 Multiplicity = 1

 SCF Done:  E(RB3LYP) =  -595.533852115     A.U. after   14 cycles
 SCF Done:  E(RB3LYP) =  -595.534535967     A.U. after   13 cycles
 SCF Done:  E(RB3LYP) =  -595.529163594     A.U. after   13 cycles
 SCF Done:  E(RB3LYP) =  -595.535049273     A.U. after   13 cycles
 SCF Done:  E(RB3LYP) =  -595.537579022     A.U. after   10 cycles
 SCF Done:  E(RB3LYP) =  -595.537543198     A.U. after   12 cycles
 SCF Done:  E(RB3LYP) =  -595.538369133     A.U. after   12 cycles
 SCF Done:  E(RB3LYP) =  -595.538583796     A.U. after   12 cycles
 SCF Done:  E(RB3LYP) =  -595.538703249     A.U. after   12 cycles
 SCF Done:  E(RB3LYP) =  -595.538874435     A.U. after   12 cycles
 SCF Done:  E(RB3LYP) =  -595.539772473     A.U. after   11 cycles
 SCF Done:  E(RB3LYP) =  -595.539950956     A.U. after   11 cycles
 SCF Done:  E(RB3LYP) =  -595.539971907     A.U. after   10 cycles
 SCF Done:  E(RB3LYP) =  -595.539974690     A.U. after    8 cycles
 SCF Done:  E(RB3LYP) =  -595.539975303     A.U. after    7 cycles
 SCF Done:  E(RB3LYP) =  -595.539975544     A.U. after    7 cycles
 Optimization completed.
    -- Stationary point found.
 Normal termination of Gaussian 16 at Wed Dec  9 17:23:19 2020.

 --------------------------------------------------------------------
 #N Geom=AllCheck Guess=TCheck SCRF=Check GenChk RB3LYP/6-31G(d) Freq
 --------------------------------------------------------------------

 Structure from the checkpoint file:  "JID_2500.chk"
 ------------------------------
 CID_61427540_JID_2500_neutraal
 ------------------------------
 Charge =  0 Multiplicity = 1

 SCF Done:  E(RB3LYP) =  -595.539975543     A.U. after    1 cycles

  Exact polarizability: 104.630   3.494 104.904   1.030   0.019  89.954
 Approx polarizability: 139.007   7.418 141.332   5.892   1.562 133.805

                      1                      2                      3
                      A                      A                      A
 Frequencies --     57.6137                78.8874               107.6435
 Red. masses --      4.4046                 4.4590                 2.6215
 Frc consts  --      0.0086                 0.0163                 0.0179
 IR Inten    --      0.4825                 1.9780                 0.0564

                      4                      5                      6
                      A                      A                      A
 Frequencies --    123.1086               130.6222               164.3766
 Red. masses --      3.3968                 2.2805                 2.0616
 Frc consts  --      0.0303                 0.0229                 0.0328
 IR Inten    --      1.6130                 3.0882                 5.3467

                      7                      8                      9
                      A                      A                      A
 Frequencies --    188.3351               203.7891               210.6885
 Red. masses --      2.8694                 2.1131                 1.3787
 Frc consts  --      0.0600                 0.0517                 0.0361
 IR Inten    --      0.6247                 2.3907                 0.5343

                     10                     11                     12
                      A                      A                      A
 Frequencies --    227.9455               239.9130               256.1520
 Red. masses --      2.1487                 1.5133                 1.9813
 Frc consts  --      0.0658                 0.0513                 0.0766
 IR Inten    --      4.0262                 2.9813                 2.5129

                     13                     14                     15
                      A                      A                      A
 Frequencies --    281.0971               319.7068               355.2118
 Red. masses --      2.3692                 2.5869                 2.8800
 Frc consts  --      0.1103                 0.1558                 0.2141
 IR Inten    --      2.2941                 3.5614                 0.1419

                     16                     17                     18
                      A                      A                      A
 Frequencies --    369.6224               435.8563               470.5061
 Red. masses --      2.9261                 3.1896                 2.9964
 Frc consts  --      0.2355                 0.3570                 0.3908
 IR Inten    --      0.9712                 2.0358                10.6131

                     19                     20                     21
                      A                      A                      A
 Frequencies --    518.6708               544.3288               566.4300
 Red. masses --      2.6373                 3.1175                 2.3815
 Frc consts  --      0.4180                 0.5442                 0.4502
 IR Inten    --     11.0978                 6.1667                13.8387

                     22                     23                     24
                      A                      A                      A
 Frequencies --    654.0533               718.2179               776.7141
 Red. masses --      1.6773                 2.6352                 1.5241
 Frc consts  --      0.4228                 0.8009                 0.5417
 IR Inten    --     78.7221                76.9595                15.1448

                     25                     26                     27
                      A                      A                      A
 Frequencies --    823.1654               855.7758               885.1334
 Red. masses --      2.7430                 2.4550                 2.0574
 Frc consts  --      1.0951                 1.0593                 0.9497
 IR Inten    --     11.9615                 2.1663                10.6936

                     28                     29                     30
                      A                      A                      A
 Frequencies --    951.1051               988.7875              1040.1486
 Red. masses --      1.7930                 2.8770                 2.9123
 Frc consts  --      0.9556                 1.6573                 1.8564
 IR Inten    --      7.9316                 3.8031                45.9512

                     31                     32                     33
                      A                      A                      A
 Frequencies --   1067.9477              1089.2556              1092.9641
 Red. masses --      2.2626                 2.2186                 1.6572
 Frc consts  --      1.5204                 1.5509                 1.1664
 IR Inten    --      4.2512                29.7205                13.4433

                     34                     35                     36
                      A                      A                      A
 Frequencies --   1122.0363              1141.5406              1161.0417
 Red. masses --      1.9005                 2.4983                 1.3916
 Frc consts  --      1.4097                 1.9181                 1.1052
 IR Inten    --     66.9846                63.0597                 7.0334

                     37                     38                     39
                      A                      A                      A
 Frequencies --   1164.5387              1185.8494              1197.9501
 Red. masses --      4.1749                 1.7466                 1.6150
 Frc consts  --      3.3358                 1.4471                 1.3655
 IR Inten    --     84.9085               109.0655                70.6235

                     40                     41                     42
                      A                      A                      A
 Frequencies --   1204.4889              1243.2394              1275.8119
 Red. masses --      1.7604                 1.8126                 1.6469
 Frc consts  --      1.5048                 1.6507                 1.5794
 IR Inten    --      2.1809                10.5358                14.7124

                     43                     44                     45
                      A                      A                      A
 Frequencies --   1288.6759              1295.8826              1337.7087
 Red. masses --      1.2970                 1.3135                 1.3944
 Frc consts  --      1.2690                 1.2996                 1.4701
 IR Inten    --      5.0760                 4.0015                 6.6584

                     46                     47                     48
                      A                      A                      A
 Frequencies --   1365.7901              1382.6341              1387.1836
 Red. masses --      1.6450                 1.5067                 1.4403
 Frc consts  --      1.8079                 1.6970                 1.6330
 IR Inten    --      4.1145                10.8376                 8.0366

                     49                     50                     51
                      A                      A                      A
 Frequencies --   1407.6382              1420.6141              1438.7619
 Red. masses --      1.3150                 1.5348                 1.3078
 Frc consts  --      1.5352                 1.8250                 1.5950
 IR Inten    --     20.3024                 8.2750                 7.8405

                     52                     53                     54
                      A                      A                      A
 Frequencies --   1440.1024              1483.2520              1497.1068
 Red. masses --      1.2717                 1.1325                 1.1603
 Frc consts  --      1.5539                 1.4680                 1.5322
 IR Inten    --      4.2060                 3.2882                 1.9044

                     55                     56                     57
                      A                      A                      A
 Frequencies --   1500.3559              1511.8781              1517.0529
 Red. masses --      1.1014                 1.0799                 1.0493
 Frc consts  --      1.4608                 1.4543                 1.4229
 IR Inten    --      7.4845                 2.8267                 7.2372

                     58                     59                     60
                      A                      A                      A
 Frequencies --   1527.4053              1531.9664              1532.5722
 Red. masses --      1.0477                 1.0678                 1.0662
 Frc consts  --      1.4401                 1.4765                 1.4754
 IR Inten    --      2.1046                 0.4291                 5.2134

                     61                     62                     63
                      A                      A                      A
 Frequencies --   1544.7772              1545.5037              1553.1518
 Red. masses --      1.0623                 1.0685                 1.0550
 Frc consts  --      1.4936                 1.5037                 1.4995
 IR Inten    --      3.2139                 8.4984                 8.0820

                     64                     65                     66
                      A                      A                      A
 Frequencies --   1818.4067              2981.4705              2995.1762
 Red. masses --      9.4401                 1.0653                 1.0808
 Frc consts  --     18.3911                 5.5793                 5.7126
 IR Inten    --    219.2327                60.9193                22.5058

                     67                     68                     69
                      A                      A                      A
 Frequencies --   3003.4384              3024.9875              3048.3577
 Red. masses --      1.0392                 1.0345                 1.0415
 Frc consts  --      5.5233                 5.5773                 5.7020
 IR Inten    --     82.1322                55.8237                38.4142

                     70                     71                     72
                      A                      A                      A
 Frequencies --   3050.3028              3055.9298              3058.4912
 Red. masses --      1.0751                 1.0964                 1.0850
 Frc consts  --      5.8935                 6.0329                 5.9800
 IR Inten    --     19.3472                74.0144                14.5556

                     73                     74                     75
                      A                      A                      A
 Frequencies --   3068.3455              3078.0989              3097.9946
 Red. masses --      1.0653                 1.1037                 1.1028
 Frc consts  --      5.9092                 6.1611                 6.2362
 IR Inten    --     23.3120                43.0703                30.9482

                     76                     77                     78
                      A                      A                      A
 Frequencies --   3104.0359              3105.9391              3129.1363
 Red. masses --      1.0992                 1.1016                 1.0984
 Frc consts  --      6.2397                 6.2612                 6.3365
 IR Inten    --     25.4350                39.5806                19.4072

                     79                     80                     81
                      A                      A                      A
 Frequencies --   3134.6200              3152.3806              3670.2280
 Red. masses --      1.0988                 1.0994                 1.0639
 Frc consts  --      6.3613                 6.4367                 8.4437
 IR Inten    --     27.3577                22.0581                28.5618

 - Thermochemistry -
 -------------------
 Temperature   298.150 Kelvin.  Pressure   1.00000 Atm.
 Atom     1 has atomic number  6 and mass  12.00000

 Molecular mass:   175.12084 amu.
 Principal axes and moments of inertia in atomic units:
                           1         2         3
     Eigenvalues --  1780.974392147.032002621.74123
           X            0.99982  -0.00526   0.01804
           Y            0.00461   0.99934   0.03593
           Z           -0.01822  -0.03584   0.99919
 This molecule is an asymmetric top.
 Rotational symmetry number  1.
 Warning -- assumption of classical behavior for rotation
           may cause significant error
 Rotational temperatures (Kelvin)      0.04863     0.04034     0.03304
 Rotational constants (GHZ):           1.01334     0.84057     0.68838
 Zero-point vibrational energy     673363.7 (Joules/Mol)
                                  160.93779 (Kcal/Mol)
 Warning -- explicit consideration of  21 degrees of freedom as
           vibrations may cause significant error
 Vibrational temperatures:     82.89   113.50   154.88   177.13   187.94
          (Kelvin)            236.50   270.97   293.21   303.13   327.96
                              345.18   368.55   404.44   459.99   511.07
                              531.80   627.10   676.95   746.25   783.17
                              814.97   941.04  1033.36  1117.52  1184.35
                             1231.27  1273.51  1368.43  1422.64  1496.54
                             1536.54  1567.20  1572.53  1614.36  1642.42
                             1670.48  1675.51  1706.17  1723.58  1732.99
                             1788.74  1835.61  1854.12  1864.49  1924.66
                             1965.07  1989.30  1995.85  2025.28  2043.95
                             2070.06  2071.99  2134.07  2154.00  2158.68
                             2175.26  2182.70  2197.60  2204.16  2205.03
                             2222.59  2223.64  2234.64  2616.28  4289.67
                             4309.39  4321.28  4352.28  4385.91  4388.71
                             4396.80  4400.49  4414.66  4428.70  4457.32
                             4466.02  4468.75  4502.13  4510.02  4535.57
                             5280.64

 Zero-point correction=                           0.256471 (Hartree/Particle)
 Thermal correction to Energy=                    0.270429
 Thermal correction to Enthalpy=                  0.271373
 Thermal correction to Gibbs Free Energy=         0.216730
 Sum of electronic and zero-point Energies=           -595.283505
 Sum of electronic and thermal Energies=              -595.269546
 Sum of electronic and thermal Enthalpies=            -595.268602
 Sum of electronic and thermal Free Energies=         -595.323245

                     E (Thermal)             CV                S
                      KCal/Mol        Cal/Mol-Kelvin    Cal/Mol-Kelvin
 Total                  169.697             51.069            115.006
 Electronic               0.000              0.000              0.000
 Translational            0.889              2.981             41.388
 Rotational               0.889              2.981             30.684
 Vibrational            167.919             45.108             42.934
 Vibration     1          0.596              1.974              4.537
 Vibration     2          0.600              1.963              3.918
 Vibration     3          0.606              1.943              3.311
 Vibration     4          0.610              1.930              3.051
 Vibration     5          0.612              1.923              2.937
 Vibration     6          0.623              1.886              2.499
 Vibration     7          0.633              1.856              2.244
 Vibration     8          0.639              1.835              2.099
 Vibration     9          0.643              1.825              2.038
 Vibration    10          0.651              1.798              1.895
 Vibration    11          0.657              1.779              1.804
 Vibration    12          0.666              1.752              1.688
 Vibration    13          0.681              1.709              1.527
 Vibration    14          0.706              1.636              1.312
 Vibration    15          0.731              1.565              1.143
 Vibration    16          0.742              1.535              1.081
 Vibration    17          0.796              1.392              0.840
 Vibration    18          0.828              1.315              0.736
 Vibration    19          0.874              1.209              0.613
 Vibration    20          0.899              1.152              0.556
 Vibration    21          0.922              1.104              0.511

                           ! Non-Optimized Parameters !
 Normal termination of Gaussian 16 at Wed Dec  9 17:30:56 2020.

 ----------------------------------------------------------------------
 # B3LYP/6-311++G(d,p) empiricaldispersion=gd3bj scf=xqc pop=npa geom=c
 heck
 ----------------------------------------------------------------------

 --------------------------------------
 CID_61427540_JID_2500_Energie_neutraal
 --------------------------------------
 Structure from the checkpoint file:  "JID_2500.chk"
 Charge =  0 Multiplicity = 1

 SCF Done:  E(RB3LYP) =  -595.723356719     A.U. after   14 cycles
 Normal termination of Gaussian 16 at Wed Dec  9 17:33:48 2020.

 ----------------------------------------------------------------------
 # B3LYP/6-311++G(d,p) empiricaldispersion=gd3bj scf=xqc pop=npa geom=c
 heck
 ----------------------------------------------------------------------

 ------------------------------------
 CID_61427540_JID_2500_Energie_kation
 ------------------------------------
 Structure from the checkpoint file:  "JID_2500.chk"
 Charge =  1 Multiplicity = 2

 SCF Done:  E(UB3LYP) =  -595.438393095     A.U. after   19 cycles
 Normal termination of Gaussian 16 at Wed Dec  9 17:38:35 2020.
 Gaussian 16:  ES64L-G16RevA.03 25-Dec-2016

 ----------------------------------------------------------------------
 # B3LYP/6-311++G(d,p) empiricaldispersion=gd3bj scf=xqc pop=npa geom=c
 heck
 ----------------------------------------------------------------------

 -----------------------------------
 CID_61427540_JID_2500_Energie_anion
 -----------------------------------
 Structure from the checkpoint file:  "JID_2500.chk"
 Charge = -1 Multiplicity = 2

                         Standard orientation:
 ---------------------------------------------------------------------
 Center     Atomic      Atomic             Coordinates (Angstroms)
 Number     Number       Type             X           Y           Z
 ---------------------------------------------------------------------
      1          6           0       -3.115860   -0.623544   -0.853841
      2          6           0       -1.722952   -0.030867   -1.087029
      3          6           0       -1.054301    0.520516    0.189883
      4          6           0       -0.407985   -0.560066    1.076144
      5          8           0        0.453963   -0.359269    1.908088
      6          8           0       -0.957373   -1.790588    0.921975
      7          7           0       -0.170429    1.643385   -0.101987
      8          6           0        0.208070    2.470218    1.035893
      9          6           0        0.898216    1.430297   -1.069722
     10          6           0        1.981706    0.413014   -0.711486
     11          8           0        1.427514   -0.885196   -0.876193
     12          6           0        2.248784   -1.905562   -0.349070
     13          1           0       -3.080389   -1.479849   -0.176415
     14          1           0       -3.551533   -0.959430   -1.801399
     15          1           0       -3.794004    0.125013   -0.425028
     16          1           0       -1.067541   -0.769466   -1.556120
     17          1           0       -1.809390    0.816723   -1.775914
     18          1           0       -1.854957    0.933266    0.824801
     19          1           0       -0.501542   -2.359585    1.571027
     20          1           0        0.973611    2.031437    1.689678
     21          1           0        0.571563    3.436247    0.663614
     22          1           0       -0.680239    2.659892    1.648833
     23          1           0        0.462196    1.122866   -2.026969
     24          1           0        1.376044    2.403445   -1.236411
     25          1           0        2.851117    0.534905   -1.379941
     26          1           0        2.323596    0.551758    0.323414
     27          1           0        3.238223   -1.915956   -0.832073
     28          1           0        2.383234   -1.782874    0.735614
     29          1           0        1.746113   -2.855693   -0.548401
 ---------------------------------------------------------------------

 SCF Done:  E(UB3LYP) =  -595.707158000     A.U. after   32 cycles

 The electronic state is 2-A.
 Alpha  occ. eigenvalues --  -19.06019 -19.02465 -19.00560 -14.20424 -10.19769
 Alpha  occ. eigenvalues --  -10.11293 -10.10851 -10.10421 -10.09239 -10.08170
 Alpha  occ. eigenvalues --  -10.06387 -10.05511  -1.00247  -0.93704  -0.91107
 Alpha  occ. eigenvalues --   -0.82400  -0.68889  -0.65359  -0.60985  -0.58482
 Alpha  occ. eigenvalues --   -0.54618  -0.51848  -0.50873  -0.45782  -0.41019
 Alpha  occ. eigenvalues --   -0.40028  -0.38640  -0.37695  -0.37400  -0.35733
 Alpha  occ. eigenvalues --   -0.34381  -0.33948  -0.32474  -0.31472  -0.30713
 Alpha  occ. eigenvalues --   -0.29494  -0.28455  -0.27826  -0.26814  -0.26290
 Alpha  occ. eigenvalues --   -0.24860  -0.23820  -0.23535  -0.22446  -0.21424
 Alpha  occ. eigenvalues --   -0.17873  -0.16338  -0.10905   0.04639
 Alpha virt. eigenvalues --    0.06771   0.06919   0.07953   0.08823   0.09480
 Alpha virt. eigenvalues --    0.09746   0.10523   0.10909   0.11042   0.11875
 Alpha virt. eigenvalues --    0.12521   0.12732   0.13043   0.13843   0.14262

  Beta  occ. eigenvalues --  -19.05973 -19.02455 -19.00545 -14.20424 -10.19764
  Beta  occ. eigenvalues --  -10.11276 -10.10831 -10.10386 -10.09224 -10.08150
  Beta  occ. eigenvalues --  -10.06379 -10.05487  -1.00188  -0.93687  -0.91057
  Beta  occ. eigenvalues --   -0.82387  -0.68862  -0.65330  -0.60940  -0.58430
  Beta  occ. eigenvalues --   -0.54550  -0.51775  -0.50816  -0.45720  -0.40990
  Beta  occ. eigenvalues --   -0.39987  -0.38602  -0.37670  -0.37370  -0.35692
  Beta  occ. eigenvalues --   -0.34350  -0.33920  -0.32449  -0.31435  -0.30678
  Beta  occ. eigenvalues --   -0.29463  -0.28428  -0.27792  -0.26771  -0.26267
  Beta  occ. eigenvalues --   -0.24831  -0.23797  -0.23502  -0.22397  -0.21385
  Beta  occ. eigenvalues --   -0.17831  -0.16317  -0.10890
  Beta virt. eigenvalues --    0.06838   0.07703   0.07917   0.08481   0.09755
  Beta virt. eigenvalues --    0.09818   0.10067   0.10746   0.11165   0.11345
  Beta virt. eigenvalues --    0.12449   0.12912   0.12965   0.13406   0.14117

 Mulliken charges and spin densities:
               1          2
     1  C    0.962290  -1.626133
     2  C   -0.463532   0.152374
     3  C   -0.291144   0.585049
     4  C    0.488915  -0.963665
     5  O   -0.310843   0.052737
     6  O   -0.163880   0.070499
     7  N    0.141027  -0.000525
     8  C    0.471928  -0.757429
     9  C   -0.354179  -0.086147
    10  C    0.288616  -0.556680
    11  O   -0.161570   0.047223
    12  C    0.583646  -0.849045
    13  H   -0.033271   0.197246
    14  H   -0.106223   0.232543
    15  H   -0.174728   0.308321
    16  H    0.198205   0.017243
    17  H   -0.101703   0.232067
    18  H   -0.056599   0.247853
    19  H   -0.362420   0.668933
    20  H    0.021283   0.138471
    21  H   -0.134005   0.252163
    22  H   -0.127790   0.259423
    23  H    0.055337   0.111967
    24  H   -0.474356   0.651935
    25  H   -0.488413   0.622442
    26  H    0.346496  -0.191250
    27  H   -0.395256   0.528650
    28  H   -0.162806   0.312975
    29  H   -0.195023   0.340758
 Sum of Mulliken charges =  -1.00000   1.00000

 Dipole moment (field-independent basis, Debye):
    X=             -1.0952    Y=              1.9377    Z=             -0.2375  Tot=              2.2384
 Quadrupole moment (field-independent basis, Debye-Ang):
   XX=           -126.7818   YY=           -126.0926   ZZ=           -111.0362
   XY=             -0.3092   XZ=              4.1891   YZ=              4.7177

 Summary of Natural Population Analysis:

                                       Natural Population
                Natural  -----------------------------------------------
    Atom  No    Charge         Core      Valence    Rydberg      Total
 -----------------------------------------------------------------------
      C    1   -0.28325      0.99966     2.27955    0.00404     3.28325
      C    2   -0.19715      0.99961     2.18972    0.00781     3.19715
      C    3   -0.04315      0.99951     2.02804    0.01560     3.04315
      C    4    0.40900      0.99969     1.56423    0.02707     2.59100
      O    5   -0.31854      0.99987     3.31227    0.00640     4.31854
      O    6   -0.34694      0.99987     3.33895    0.00811     4.34694
      N    7   -0.27974      0.99972     2.76508    0.01494     3.77974
      C    8   -0.17381      0.99963     2.16706    0.00712     3.17381
      C    9   -0.09313      0.99959     2.08034    0.01320     3.09313
      C   10   -0.02217      0.99958     2.01022    0.01237     3.02217
      O   11   -0.30289      0.99989     3.29196    0.01105     4.30289
      C   12   -0.10055      0.99962     2.09110    0.00983     3.10055
      H   13    0.10620      0.00000     0.39223    0.00157     0.39380
      H   14    0.09616      0.00000     0.40277    0.00107     0.40384
      H   15    0.09206      0.00000     0.40661    0.00133     0.40794
      H   16    0.10821      0.00000     0.38957    0.00222     0.39179
      H   17    0.09970      0.00000     0.39859    0.00172     0.40030
      H   18    0.10721      0.00000     0.39092    0.00187     0.39279
      H   19    0.24375      0.00000     0.24563    0.01063     0.25625
      H   20    0.09201      0.00000     0.40636    0.00164     0.40799
      H   21    0.09018      0.00000     0.40849    0.00133     0.40982
      H   22    0.09342      0.00000     0.40543    0.00115     0.40658
      H   23    0.09885      0.00000     0.39933    0.00182     0.40115
      H   24    0.09832      0.00000     0.40045    0.00123     0.40168
      H   25    0.08146      0.00000     0.41674    0.00180     0.41854
      H   26    0.08766      0.00000     0.41086    0.00148     0.41234
      H   27    0.07898      0.00000     0.41944    0.00159     0.42102
      H   28    0.08573      0.00000     0.41272    0.00155     0.41427
      H   29    0.09243      0.00000     0.40619    0.00137     0.40757
 =======================================================================
   * Total *   -0.00000     11.99624    35.83085    0.17291    48.00000

 Normal termination of Gaussian 16 at Wed Dec  9 17:48:56 2020.
