 Gaussian 16, Revision A.03,

 -----------------------------------------------------------
 # opt freq B3LYP/6-31G(d) empiricaldispersion=gd3bj scf=xqc
 -----------------------------------------------------------

 -------------------------------
 CID_129717866_JID_5502_neutraal
 -------------------------------
 Symbolic Z-matrix:
 Charge =  0 Multiplicity = 1

 SCF Done:  E(RB3LYP) =  -746.970494467     A.U. after   14 cycles
 SCF Done:  E(RB3LYP) =  -746.976802317     A.U. after   13 cycles
 SCF Done:  E(RB3LYP) =  -746.975817724     A.U. after   13 cycles
 SCF Done:  E(RB3LYP) =  -746.976849410     A.U. after   12 cycles
 SCF Done:  E(RB3LYP) =  -746.976832234     A.U. after   13 cycles
 SCF Done:  E(RB3LYP) =  -746.978559320     A.U. after   12 cycles
 SCF Done:  E(RB3LYP) =  -746.978782179     A.U. after   12 cycles
 SCF Done:  E(RB3LYP) =  -746.978634841     A.U. after   12 cycles
 SCF Done:  E(RB3LYP) =  -746.978874718     A.U. after   12 cycles
 SCF Done:  E(RB3LYP) =  -746.978880428     A.U. after   10 cycles
 SCF Done:  E(RB3LYP) =  -746.978880262     A.U. after    8 cycles
 SCF Done:  E(RB3LYP) =  -746.978880618     A.U. after    8 cycles
 SCF Done:  E(RB3LYP) =  -746.978881156     A.U. after    8 cycles
 Optimization completed.
    -- Stationary point found.
 Normal termination of Gaussian 16 at Thu Dec 10 16:24:59 2020.

 --------------------------------------------------------------------
 #N Geom=AllCheck Guess=TCheck SCRF=Check GenChk RB3LYP/6-31G(d) Freq
 --------------------------------------------------------------------

 Structure from the checkpoint file:  "JID_5502.chk"
 -------------------------------
 CID_129717866_JID_5502_neutraal
 -------------------------------
 Charge =  0 Multiplicity = 1

 SCF Done:  E(RB3LYP) =  -746.978881156     A.U. after    1 cycles

  Exact polarizability: 149.405  -7.013 108.434  -8.230   2.354 112.368
 Approx polarizability: 208.973 -21.102 157.113 -25.682   8.083 177.571

                      1                      2                      3
                      A                      A                      A
 Frequencies --     20.5309                43.3802                66.8322
 Red. masses --      3.4755                 4.1805                 3.1861
 Frc consts  --      0.0009                 0.0046                 0.0084
 IR Inten    --      0.1914                 0.2844                 0.1846

                      4                      5                      6
                      A                      A                      A
 Frequencies --     67.6769               102.8150               128.2761
 Red. masses --      8.9070                 2.7240                 2.9061
 Frc consts  --      0.0240                 0.0170                 0.0282
 IR Inten    --      1.9357                 0.4609                 0.2424

                      7                      8                      9
                      A                      A                      A
 Frequencies --    135.8947               157.4510               167.5780
 Red. masses --      4.1774                 4.3844                 3.9786
 Frc consts  --      0.0455                 0.0640                 0.0658
 IR Inten    --      6.1915                 2.7855                 5.8278

                     10                     11                     12
                      A                      A                      A
 Frequencies --    188.6191               210.2646               238.7594
 Red. masses --      3.7423                 3.1182                 2.3193
 Frc consts  --      0.0784                 0.0812                 0.0779
 IR Inten    --      1.5804                 2.9797                 3.2885

                     13                     14                     15
                      A                      A                      A
 Frequencies --    262.5169               284.0429               296.9845
 Red. masses --      1.6443                 3.1367                 2.3995
 Frc consts  --      0.0668                 0.1491                 0.1247
 IR Inten    --      1.1825                 0.5362                12.6099

                     16                     17                     18
                      A                      A                      A
 Frequencies --    304.8810               353.0056               370.6759
 Red. masses --      2.6084                 2.6785                 1.6708
 Frc consts  --      0.1429                 0.1967                 0.1353
 IR Inten    --      7.5152                 7.5445                15.7663

                     19                     20                     21
                      A                      A                      A
 Frequencies --    385.6600               421.8077               458.7774
 Red. masses --      3.3070                 3.8771                 2.4056
 Frc consts  --      0.2898                 0.4064                 0.2983
 IR Inten    --      5.2359                 2.8224                 0.3404

                     22                     23                     24
                      A                      A                      A
 Frequencies --    478.9328               538.9109               551.0250
 Red. masses --      4.5404                 3.8994                 2.7359
 Frc consts  --      0.6136                 0.6672                 0.4894
 IR Inten    --     10.9607                 6.1907                 0.8190

                     25                     26                     27
                      A                      A                      A
 Frequencies --    607.3964               644.9336               667.4357
 Red. masses --      1.3478                 1.3391                 2.7466
 Frc consts  --      0.2930                 0.3282                 0.7209
 IR Inten    --    107.6459               169.4338                85.2498

                     28                     29                     30
                      A                      A                      A
 Frequencies --    688.6821               728.9995               779.0255
 Red. masses --      2.6427                 3.2000                 1.2814
 Frc consts  --      0.7385                 1.0020                 0.4582
 IR Inten    --     12.3239                 2.2676                16.9440

                     31                     32                     33
                      A                      A                      A
 Frequencies --    793.5974               850.6554               860.6441
 Red. masses --      4.8102                 2.0926                 2.3186
 Frc consts  --      1.7849                 0.8922                 1.0119
 IR Inten    --     64.5213                26.2250                 1.6221

                     34                     35                     36
                      A                      A                      A
 Frequencies --    882.2380               905.2903               916.3135
 Red. masses --      1.8626                 2.0295                 1.6041
 Frc consts  --      0.8542                 0.9800                 0.7935
 IR Inten    --     11.2844                 6.2392                13.1860

                     37                     38                     39
                      A                      A                      A
 Frequencies --    956.5373               968.5569              1014.2552
 Red. masses --      2.1603                 2.3678                 1.5082
 Frc consts  --      1.1646                 1.3087                 0.9141
 IR Inten    --     89.8596                45.5284                 6.8192

                     40                     41                     42
                      A                      A                      A
 Frequencies --   1030.8788              1042.7450              1065.6007
 Red. masses --      2.2040                 1.2065                 2.3750
 Frc consts  --      1.3800                 0.7729                 1.5889
 IR Inten    --     24.0027                18.7752                16.1499

                     43                     44                     45
                      A                      A                      A
 Frequencies --   1090.0470              1100.4374              1123.7284
 Red. masses --      3.1222                 2.2680                 1.6370
 Frc consts  --      2.1858                 1.6182                 1.2179
 IR Inten    --    113.2877                42.6254                 1.8841

                     46                     47                     48
                      A                      A                      A
 Frequencies --   1147.5888              1167.4527              1210.0359
 Red. masses --      2.3522                 2.7952                 2.1757
 Frc consts  --      1.8251                 2.2446                 1.8769
 IR Inten    --      2.7458               127.0010                79.4350

                     49                     50                     51
                      A                      A                      A
 Frequencies --   1226.1160              1249.4549              1277.8615
 Red. masses --      1.9124                 1.2567                 1.6429
 Frc consts  --      1.6939                 1.1559                 1.5806
 IR Inten    --     90.8184                19.3010                21.8109

                     52                     53                     54
                      A                      A                      A
 Frequencies --   1287.3943              1296.6210              1339.2727
 Red. masses --      1.5407                 1.2898                 1.3621
 Frc consts  --      1.5045                 1.2776                 1.4395
 IR Inten    --     17.7353                 0.4598                 0.8713

                     55                     56                     57
                      A                      A                      A
 Frequencies --   1346.9725              1355.2998              1379.1433
 Red. masses --      1.6249                 1.2012                 1.3690
 Frc consts  --      1.7370                 1.3000                 1.5341
 IR Inten    --     13.6264                 1.5328                 1.9395

                     58                     59                     60
                      A                      A                      A
 Frequencies --   1383.8553              1397.1020              1408.2633
 Red. masses --      1.4882                 1.3818                 2.2116
 Frc consts  --      1.6792                 1.5891                 2.5842
 IR Inten    --     20.2616                10.1842                11.4036

                     61                     62                     63
                      A                      A                      A
 Frequencies --   1429.4938              1446.6168              1456.4693
 Red. masses --      1.2713                 1.2580                 1.1670
 Frc consts  --      1.5306                 1.5510                 1.4586
 IR Inten    --      0.9355                 8.0620                72.2667

                     64                     65                     66
                      A                      A                      A
 Frequencies --   1499.1190              1510.4845              1519.8856
 Red. masses --      1.0905                 1.1042                 1.0652
 Frc consts  --      1.4439                 1.4844                 1.4497
 IR Inten    --     14.1274                 6.3736                 1.1188

                     67                     68                     69
                      A                      A                      A
 Frequencies --   1531.8393              1537.1708              1538.2205
 Red. masses --      1.0527                 1.0819                 1.0580
 Frc consts  --      1.4554                 1.5061                 1.4749
 IR Inten    --      2.8749                 1.3726                 5.3844

                     70                     71                     72
                      A                      A                      A
 Frequencies --   1686.4413              1713.9842              1736.9220
 Red. masses --      1.1054                 5.6042                10.6786
 Frc consts  --      1.8523                 9.7001                18.9812
 IR Inten    --     42.5534                38.7453               223.4997

                     73                     74                     75
                      A                      A                      A
 Frequencies --   1842.2748              3020.8553              3026.1297
 Red. masses --      9.0399                 1.0695                 1.0659
 Frc consts  --     18.0768                 5.7502                 5.7510
 IR Inten    --    214.7709                44.5664                16.8885

                     76                     77                     78
                      A                      A                      A
 Frequencies --   3045.9506              3048.6088              3078.8985
 Red. masses --      1.0539                 1.0433                 1.0617
 Frc consts  --      5.7610                 5.7131                 5.9298
 IR Inten    --     14.2538                33.5934                 7.8673

                     79                     80                     81
                      A                      A                      A
 Frequencies --   3081.3888              3091.0825              3103.1526
 Red. masses --      1.1018                 1.0976                 1.0941
 Frc consts  --      6.1638                 6.1790                 6.2075
 IR Inten    --     12.8183                21.9290                42.2337

                     82                     83                     84
                      A                      A                      A
 Frequencies --   3113.8920              3121.2920              3128.4208
 Red. masses --      1.1027                 1.1015                 1.1050
 Frc consts  --      6.2997                 6.3227                 6.3718
 IR Inten    --     54.9819                42.9987                21.8601

                     85                     86                     87
                      A                      A                      A
 Frequencies --   3176.5115              3200.6654              3484.9825
 Red. masses --      1.0912                 1.0870                 1.0490
 Frc consts  --      6.4870                 6.5610                 7.5066
 IR Inten    --      6.6247                 6.4661                18.8628

                     88                     89                     90
                      A                      A                      A
 Frequencies --   3578.5708              3653.4375              3672.0714
 Red. masses --      1.0941                 1.0664                 1.0639
 Frc consts  --      8.2550                 8.3866                 8.4521
 IR Inten    --     21.2287                86.7464                50.5484

 - Thermochemistry -
 -------------------
 Temperature   298.150 Kelvin.  Pressure   1.00000 Atm.
 Atom     1 has atomic number  6 and mass  12.00000

 Molecular mass:   215.11576 amu.
 Principal axes and moments of inertia in atomic units:
                           1         2         3
     Eigenvalues --  2424.403114448.410195037.81582
           X            0.99996   0.00844  -0.00382
           Y           -0.00849   0.99985  -0.01478
           Z            0.00370   0.01481   0.99988
 This molecule is an asymmetric top.
 Rotational symmetry number  1.
 Warning -- assumption of classical behavior for rotation
           may cause significant error
 Rotational temperatures (Kelvin)      0.03573     0.01947     0.01719
 Rotational constants (GHZ):           0.74441     0.40570     0.35824
 Zero-point vibrational energy     714772.1 (Joules/Mol)
                                  170.83463 (Kcal/Mol)
 Warning -- explicit consideration of  25 degrees of freedom as
           vibrations may cause significant error
 Vibrational temperatures:     29.54    62.41    96.16    97.37   147.93
          (Kelvin)            184.56   195.52   226.54   241.11   271.38
                              302.52   343.52   377.70   408.67   427.29
                              438.66   507.90   533.32   554.88   606.89
                              660.08   689.08   775.37   792.80   873.91
                              927.92   960.29   990.86  1048.87  1120.84
                             1141.81  1223.90  1238.27  1269.34  1302.51
                             1318.37  1376.24  1393.54  1459.29  1483.20
                             1500.28  1533.16  1568.33  1583.28  1616.79
                             1651.12  1679.70  1740.97  1764.11  1797.69
                             1838.56  1852.27  1865.55  1926.91  1937.99
                             1949.97  1984.28  1991.06  2010.12  2026.18
                             2056.72  2081.36  2095.53  2156.90  2173.25
                             2186.78  2203.98  2211.65  2213.16  2426.41
                             2466.04  2499.04  2650.62  4346.34  4353.93
                             4382.44  4386.27  4429.85  4433.43  4447.38
                             4464.74  4480.20  4490.84  4501.10  4570.29
                             4605.04  5014.11  5148.77  5256.48  5283.29

 Zero-point correction=                           0.272242 (Hartree/Particle)
 Thermal correction to Energy=                    0.288918
 Thermal correction to Enthalpy=                  0.289862
 Thermal correction to Gibbs Free Energy=         0.227234
 Sum of electronic and zero-point Energies=           -746.706639
 Sum of electronic and thermal Energies=              -746.689963
 Sum of electronic and thermal Enthalpies=            -746.689019
 Sum of electronic and thermal Free Energies=         -746.751647

                     E (Thermal)             CV                S
                      KCal/Mol        Cal/Mol-Kelvin    Cal/Mol-Kelvin
 Total                  181.299             61.235            131.812
 Electronic               0.000              0.000              0.000
 Translational            0.889              2.981             42.001
 Rotational               0.889              2.981             32.363
 Vibrational            179.521             55.274             57.448
 Vibration     1          0.593              1.986              6.582
 Vibration     2          0.595              1.980              5.098
 Vibration     3          0.598              1.970              4.245
 Vibration     4          0.598              1.970              4.220
 Vibration     5          0.605              1.947              3.400
 Vibration     6          0.611              1.925              2.972
 Vibration     7          0.614              1.917              2.861
 Vibration     8          0.621              1.894              2.580
 Vibration     9          0.624              1.882              2.462
 Vibration    10          0.633              1.856              2.241
 Vibration    11          0.642              1.825              2.041
 Vibration    12          0.657              1.781              1.812
 Vibration    13          0.670              1.741              1.645
 Vibration    14          0.682              1.703              1.509
 Vibration    15          0.691              1.679              1.434
 Vibration    16          0.696              1.664              1.390
 Vibration    17          0.729              1.569              1.153
 Vibration    18          0.743              1.532              1.077
 Vibration    19          0.754              1.501              1.017
 Vibration    20          0.784              1.423              0.886
 Vibration    21          0.817              1.341              0.770
 Vibration    22          0.835              1.297              0.713
 Vibration    23          0.894              1.164              0.568
 Vibration    24          0.906              1.137              0.542
 Vibration    25          0.966              1.016              0.437

                           ! Non-Optimized Parameters !
 Normal termination of Gaussian 16 at Thu Dec 10 16:36:50 2020.

 ----------------------------------------------------------------------
 # B3LYP/6-311++G(d,p) empiricaldispersion=gd3bj scf=xqc pop=npa geom=c
 heck
 ----------------------------------------------------------------------

 ---------------------------------------
 CID_129717866_JID_5502_Energie_neutraal
 ---------------------------------------
 Structure from the checkpoint file:  "JID_5502.chk"
 Charge =  0 Multiplicity = 1

 SCF Done:  E(RB3LYP) =  -747.219951351     A.U. after   15 cycles
 Normal termination of Gaussian 16 at Thu Dec 10 16:42:16 2020.

 ----------------------------------------------------------------------
 # B3LYP/6-311++G(d,p) empiricaldispersion=gd3bj scf=xqc pop=npa geom=c
 heck
 ----------------------------------------------------------------------

 -------------------------------------
 CID_129717866_JID_5502_Energie_kation
 -------------------------------------
 Structure from the checkpoint file:  "JID_5502.chk"
 Charge =  1 Multiplicity = 2

 SCF Done:  E(UB3LYP) =  -746.895511417     A.U. after   26 cycles
 Normal termination of Gaussian 16 at Thu Dec 10 16:56:22 2020.
 Gaussian 16:  ES64L-G16RevA.03 25-Dec-2016

 ----------------------------------------------------------------------
 # B3LYP/6-311++G(d,p) empiricaldispersion=gd3bj scf=xqc pop=npa geom=c
 heck
 ----------------------------------------------------------------------

 ------------------------------------
 CID_129717866_JID_5502_Energie_anion
 ------------------------------------
 Structure from the checkpoint file:  "JID_5502.chk"
 Charge = -1 Multiplicity = 2

                         Standard orientation:
 ---------------------------------------------------------------------
 Center     Atomic      Atomic             Coordinates (Angstroms)
 Number     Number       Type             X           Y           Z
 ---------------------------------------------------------------------
      1          6           0       -3.819237   -0.411536    1.390081
      2          6           0       -3.825540   -0.921172   -0.053749
      3          6           0       -3.081862   -0.001601   -1.048567
      4          6           0       -1.629508    0.153251   -0.719947
      5          6           0       -0.627869   -0.318695   -1.479028
      6          6           0        0.806878   -0.279180   -1.151386
      7          8           0        1.601087   -0.902012   -1.851205
      8          6           0        1.348816    0.440065    0.122826
      9          6           0        1.103306   -0.474017    1.347629
     10          6           0        1.412594   -1.958130    1.082851
     11          8           0        2.690187   -2.193424    0.499076
     12          6           0        0.734267    1.836106    0.227750
     13          8           0        0.745455    2.631193   -0.684865
     14          8           0        0.216959    2.126813    1.444903
     15          7           0        2.783680    0.724253    0.047905
     16          1           0       -2.806917   -0.382188    1.808754
     17          1           0       -4.420992   -1.060178    2.035202
     18          1           0       -4.235501    0.601348    1.453789
     19          1           0       -3.378522   -1.922381   -0.096737
     20          1           0       -4.861219   -1.025468   -0.399801
     21          1           0       -3.191561   -0.395635   -2.065216
     22          1           0       -3.558071    0.989828   -1.030278
     23          1           0       -1.410139    0.661305    0.215398
     24          1           0       -0.843988   -0.836850   -2.411592
     25          1           0        1.738410   -0.092555    2.152942
     26          1           0        0.064703   -0.396451    1.683954
     27          1           0        1.401868   -2.493185    2.037583
     28          1           0        0.620774   -2.396808    0.458034
     29          1           0        2.597972   -2.009808   -0.454374
     30          1           0       -0.067638    3.059708    1.395535
     31          1           0        3.294346   -0.145656    0.184330
     32          1           0        3.010153    1.084109   -0.876892
 ---------------------------------------------------------------------

 SCF Done:  E(UB3LYP) =  -747.240863348     A.U. after   27 cycles

 The electronic state is 2-A.
 Alpha  occ. eigenvalues --  -19.06519 -18.99764 -18.99540 -18.92559 -14.16762
 Alpha  occ. eigenvalues --  -10.18752 -10.09801 -10.09087 -10.06404 -10.05462
 Alpha  occ. eigenvalues --  -10.05375 -10.05035 -10.04389 -10.00871 -10.00648
 Alpha  occ. eigenvalues --   -1.00108  -0.90821  -0.89972  -0.86754  -0.76788
 Alpha  occ. eigenvalues --   -0.68363  -0.65108  -0.62640  -0.58447  -0.56109
 Alpha  occ. eigenvalues --   -0.50877  -0.49814  -0.47548  -0.42846  -0.41245
 Alpha  occ. eigenvalues --   -0.39269  -0.38483  -0.37519  -0.34729  -0.34551
 Alpha  occ. eigenvalues --   -0.33954  -0.32177  -0.31653  -0.31158  -0.30371
 Alpha  occ. eigenvalues --   -0.29183  -0.28803  -0.27458  -0.26726  -0.25801
 Alpha  occ. eigenvalues --   -0.24345  -0.24151  -0.23264  -0.22458  -0.21815
 Alpha  occ. eigenvalues --   -0.21225  -0.20549  -0.19953  -0.17208  -0.15565
 Alpha  occ. eigenvalues --   -0.12802  -0.11962  -0.09009   0.03920
 Alpha virt. eigenvalues --    0.07209   0.08279   0.09185   0.09730   0.10350
 Alpha virt. eigenvalues --    0.11039   0.11166   0.11909   0.11989   0.12917
 Alpha virt. eigenvalues --    0.13177   0.13731   0.14485   0.14623   0.15657

  Beta  occ. eigenvalues --  -19.06518 -18.99757 -18.99532 -18.91965 -14.16758
  Beta  occ. eigenvalues --  -10.18737 -10.09801 -10.09118 -10.05955 -10.05448
  Beta  occ. eigenvalues --  -10.05311 -10.05003 -10.04431 -10.00667 -10.00343
  Beta  occ. eigenvalues --   -1.00098  -0.90807  -0.89918  -0.85720  -0.76714
  Beta  occ. eigenvalues --   -0.68073  -0.64972  -0.62218  -0.58338  -0.55909
  Beta  occ. eigenvalues --   -0.50773  -0.49339  -0.47440  -0.42126  -0.41008
  Beta  occ. eigenvalues --   -0.39220  -0.38339  -0.37483  -0.34603  -0.34363
  Beta  occ. eigenvalues --   -0.33870  -0.32060  -0.31599  -0.31053  -0.30217
  Beta  occ. eigenvalues --   -0.28982  -0.28659  -0.27257  -0.26638  -0.25355
  Beta  occ. eigenvalues --   -0.24197  -0.23601  -0.22956  -0.21861  -0.21566
  Beta  occ. eigenvalues --   -0.20747  -0.19865  -0.19195  -0.17175  -0.15531
  Beta  occ. eigenvalues --   -0.12614  -0.09763  -0.08550
  Beta virt. eigenvalues --    0.07161   0.08134   0.09126   0.09655   0.10343
  Beta virt. eigenvalues --    0.11066   0.11154   0.11529   0.11968   0.12323
  Beta virt. eigenvalues --    0.12849   0.13154   0.13706   0.14529   0.14594

 Mulliken charges and spin densities:
               1          2
     1  C   -0.353408  -0.187952
     2  C   -0.058277  -0.190384
     3  C   -0.590020   0.116162
     4  C    0.306360   0.365089
     5  C    0.307810  -0.172686
     6  C   -0.917198   0.359882
     7  O   -0.352487   0.194961
     8  C    0.176971  -0.014820
     9  C   -0.060277   0.010134
    10  C   -0.647542  -0.009363
    11  O   -0.261121  -0.001405
    12  C   -0.252758   0.004384
    13  O   -0.232119   0.001431
    14  O   -0.102744  -0.002293
    15  N   -0.225411  -0.010741
    16  H    0.101295   0.018738
    17  H    0.013743   0.104424
    18  H    0.094530   0.026052
    19  H    0.115370   0.007416
    20  H   -0.162464   0.279783
    21  H    0.117183   0.015611
    22  H    0.051635   0.091307
    23  H    0.097160  -0.041327
    24  H    0.137993  -0.005080
    25  H    0.200263   0.010221
    26  H    0.122499   0.008088
    27  H    0.152012   0.000812
    28  H    0.187961   0.001758
    29  H    0.248502   0.012758
    30  H    0.253570   0.006437
    31  H    0.257709   0.000238
    32  H    0.273261   0.000365
 Sum of Mulliken charges =  -1.00000   1.00000

 Dipole moment (field-independent basis, Debye):
    X=             -1.5431    Y=              1.1695    Z=              4.0246  Tot=              4.4661
 Quadrupole moment (field-independent basis, Debye-Ang):
   XX=           -137.7534   YY=           -110.3598   ZZ=           -110.9205
   XY=              1.4054   XZ=             -0.0270   YZ=              2.8793

 Summary of Natural Population Analysis:

                                       Natural Population
                Natural  -----------------------------------------------
    Atom  No    Charge         Core      Valence    Rydberg      Total
 -----------------------------------------------------------------------
      C    1   -0.28904      0.99967     2.28283    0.00654     3.28904
      C    2   -0.18063      0.99964     2.17300    0.00800     3.18063
      C    3   -0.20829      0.99962     2.19775    0.01091     3.20829
      C    4    0.02286      0.99953     1.96760    0.01001     2.97714
      C    5   -0.15435      0.99948     2.14402    0.01085     3.15435
      C    6    0.31898      0.99960     1.65773    0.02369     2.68102
      O    7   -0.27260      0.99987     3.26517    0.00756     4.27260
      C    8   -0.02095      0.99949     2.00297    0.01848     3.02095
      C    9   -0.19894      0.99960     2.19151    0.00783     3.19894
      C   10   -0.01275      0.99960     2.00085    0.01229     3.01275
      O   11   -0.39067      0.99990     3.38409    0.00668     4.39067
      C   12    0.42159      0.99964     1.55040    0.02838     2.57841
      O   13   -0.30983      0.99986     3.30317    0.00680     4.30983
      O   14   -0.34856      0.99987     3.34184    0.00684     4.34856
      N   15   -0.42703      0.99975     2.91730    0.00998     3.92703
      H   16    0.09977      0.00000     0.39916    0.00106     0.40023
      H   17    0.09313      0.00000     0.40612    0.00075     0.40687
      H   18    0.09301      0.00000     0.40610    0.00090     0.40699
      H   19    0.09278      0.00000     0.40607    0.00115     0.40722
      H   20    0.08929      0.00000     0.40905    0.00166     0.41071
      H   21    0.09585      0.00000     0.40308    0.00107     0.40415
      H   22    0.09636      0.00000     0.40242    0.00122     0.40364
      H   23    0.07792      0.00000     0.41961    0.00246     0.42208
      H   24    0.09106      0.00000     0.40716    0.00178     0.40894
      H   25    0.09946      0.00000     0.39914    0.00141     0.40054
      H   26    0.10845      0.00000     0.39056    0.00099     0.39155
      H   27    0.07833      0.00000     0.42029    0.00137     0.42167
      H   28    0.08570      0.00000     0.41275    0.00155     0.41430
      H   29    0.24728      0.00000     0.24987    0.00284     0.25272
      H   30    0.23305      0.00000     0.26251    0.00445     0.26695
      H   31    0.18672      0.00000     0.31127    0.00201     0.31328
      H   32    0.18204      0.00000     0.31640    0.00156     0.31796
 =======================================================================
   * Total *   -0.00000     14.99513    42.80182    0.20305    58.00000

 Normal termination of Gaussian 16 at Thu Dec 10 17:11:18 2020.
