 Gaussian 16, Revision A.03,

 -----------------------------------------------------------
 # opt freq B3LYP/6-31G(d) empiricaldispersion=gd3bj scf=xqc
 -----------------------------------------------------------

 ------------------------------
 CID_77686866_JID_1749_neutraal
 ------------------------------
 Symbolic Z-matrix:
 Charge =  0 Multiplicity = 1

 SCF Done:  E(RB3LYP) =  -517.896222556     A.U. after   14 cycles
 SCF Done:  E(RB3LYP) =  -517.899386090     A.U. after   12 cycles
 SCF Done:  E(RB3LYP) =  -517.898745028     A.U. after   12 cycles
 SCF Done:  E(RB3LYP) =  -517.899575219     A.U. after   11 cycles
 SCF Done:  E(RB3LYP) =  -517.899637912     A.U. after    9 cycles
 SCF Done:  E(RB3LYP) =  -517.899643899     A.U. after    9 cycles
 SCF Done:  E(RB3LYP) =  -517.899644445     A.U. after    8 cycles
 SCF Done:  E(RB3LYP) =  -517.899644596     A.U. after    7 cycles
 SCF Done:  E(RB3LYP) =  -517.899644663     A.U. after    7 cycles
 SCF Done:  E(RB3LYP) =  -517.899644686     A.U. after    6 cycles
 Optimization completed.
    -- Stationary point found.
 Normal termination of Gaussian 16 at Tue Dec  8 20:58:14 2020.

 --------------------------------------------------------------------
 #N Geom=AllCheck Guess=TCheck SCRF=Check GenChk RB3LYP/6-31G(d) Freq
 --------------------------------------------------------------------

 Structure from the checkpoint file:  "JID_1749.chk"
 ------------------------------
 CID_77686866_JID_1749_neutraal
 ------------------------------
 Charge =  0 Multiplicity = 1

 SCF Done:  E(RB3LYP) =  -517.899644686     A.U. after    1 cycles

  Exact polarizability: 123.191   5.474  83.675  -9.980  -2.401  75.517
 Approx polarizability: 147.525   6.780 123.552 -17.762 -11.661 123.277

                      1                      2                      3
                      A                      A                      A
 Frequencies --     38.4010                67.3099               115.5414
 Red. masses --      4.5271                 3.9691                 2.0872
 Frc consts  --      0.0039                 0.0106                 0.0164
 IR Inten    --      1.2213                 0.7031                 0.7634

                      4                      5                      6
                      A                      A                      A
 Frequencies --    138.1308               159.4137               203.6027
 Red. masses --      1.3523                 3.3243                 2.1743
 Frc consts  --      0.0152                 0.0498                 0.0531
 IR Inten    --      0.1332                 1.2865                 2.7866

                      7                      8                      9
                      A                      A                      A
 Frequencies --    234.9968               284.7309               302.8103
 Red. masses --      3.8227                 3.5702                 5.5773
 Frc consts  --      0.1244                 0.1705                 0.3013
 IR Inten    --      5.1496                 5.0377                 5.9051

                     10                     11                     12
                      A                      A                      A
 Frequencies --    371.8118               399.6447               421.9905
 Red. masses --      3.8458                 2.2218                 1.9625
 Frc consts  --      0.3132                 0.2091                 0.2059
 IR Inten    --     12.7726                 1.4827                 1.4931

                     13                     14                     15
                      A                      A                      A
 Frequencies --    453.7052               516.5657               653.5403
 Red. masses --      2.9397                 3.0422                 3.2998
 Frc consts  --      0.3565                 0.4783                 0.8304
 IR Inten    --      1.5418                 2.3723                14.4322

                     16                     17                     18
                      A                      A                      A
 Frequencies --    718.3909               741.0688               775.5045
 Red. masses --      2.9842                 1.3853                 4.0079
 Frc consts  --      0.9074                 0.4482                 1.4201
 IR Inten    --      6.9405                 2.1453                25.8773

                     19                     20                     21
                      A                      A                      A
 Frequencies --    781.9558               810.2143               887.3950
 Red. masses --      2.2893                 1.5759                 2.0524
 Frc consts  --      0.8247                 0.6095                 0.9522
 IR Inten    --     35.5891                45.9326                14.0604

                     22                     23                     24
                      A                      A                      A
 Frequencies --    900.8735               927.8707               938.8270
 Red. masses --      2.4156                 1.4231                 2.4225
 Frc consts  --      1.1551                 0.7219                 1.2580
 IR Inten    --     32.2867                38.9389                 1.1265

                     25                     26                     27
                      A                      A                      A
 Frequencies --    970.2265              1006.4309              1024.7363
 Red. masses --      2.0287                 2.6792                 1.8626
 Frc consts  --      1.1252                 1.5989                 1.1524
 IR Inten    --     11.8990                 6.4770                 0.7272

                     28                     29                     30
                      A                      A                      A
 Frequencies --   1059.0295              1063.9295              1118.1715
 Red. masses --      2.6613                 2.6150                 2.5157
 Frc consts  --      1.7585                 1.7440                 1.8532
 IR Inten    --     21.7380                 6.3854                 4.0173

                     31                     32                     33
                      A                      A                      A
 Frequencies --   1155.7441              1181.9757              1186.9747
 Red. masses --      3.0896                 1.2105                 1.2665
 Frc consts  --      2.4315                 0.9964                 1.0513
 IR Inten    --     44.6603                 1.0980                 1.4451

                     34                     35                     36
                      A                      A                      A
 Frequencies --   1209.0418              1228.2284              1251.2197
 Red. masses --      1.6229                 1.5357                 1.8031
 Frc consts  --      1.3978                 1.3649                 1.6632
 IR Inten    --     96.3628                75.5897               147.7344

                     37                     38                     39
                      A                      A                      A
 Frequencies --   1300.8487              1323.7415              1343.2310
 Red. masses --      1.8655                 1.6595                 1.3885
 Frc consts  --      1.8600                 1.7133                 1.4761
 IR Inten    --     31.0542                 1.8764                71.4089

                     40                     41                     42
                      A                      A                      A
 Frequencies --   1366.3629              1377.3903              1390.8742
 Red. masses --      1.4089                 1.4283                 1.4027
 Frc consts  --      1.5497                 1.5965                 1.5987
 IR Inten    --      2.6647                 6.9040                15.3473

                     43                     44                     45
                      A                      A                      A
 Frequencies --   1400.1458              1479.3851              1492.5326
 Red. masses --      1.5049                 1.1673                 1.1955
 Frc consts  --      1.7382                 1.5052                 1.5691
 IR Inten    --     89.0124                 3.4404                16.4616

                     46                     47                     48
                      A                      A                      A
 Frequencies --   1499.3317              1508.6414              1512.8330
 Red. masses --      1.1059                 1.1924                 1.0543
 Frc consts  --      1.4648                 1.5989                 1.4216
 IR Inten    --      1.1285                 9.5154                 5.8064

                     49                     50                     51
                      A                      A                      A
 Frequencies --   1513.2277              1524.1053              1524.8036
 Red. masses --      1.0985                 1.1381                 1.0560
 Frc consts  --      1.4820                 1.5576                 1.4466
 IR Inten    --      8.3019                 6.4389                 5.1840

                     52                     53                     54
                      A                      A                      A
 Frequencies --   1745.1134              1825.8608              3007.3238
 Red. masses --      5.5451                10.9663                 1.0689
 Frc consts  --      9.9496                21.5401                 5.6959
 IR Inten    --      8.4508               187.6477                13.5206

                     55                     56                     57
                      A                      A                      A
 Frequencies --   3013.7045              3044.4847              3057.6359
 Red. masses --      1.0696                 1.0620                 1.0820
 Frc consts  --      5.7238                 5.7996                 5.9603
 IR Inten    --     55.7284                17.7709                19.1246

                     58                     59                     60
                      A                      A                      A
 Frequencies --   3077.4538              3087.9370              3096.0328
 Red. masses --      1.0296                 1.0931                 1.1051
 Frc consts  --      5.7450                 6.1412                 6.2409
 IR Inten    --     32.8042                34.5123                39.2412

                     61                     62                     63
                      A                      A                      A
 Frequencies --   3103.3436              3150.7840              3152.7455
 Red. masses --      1.0945                 1.0597                 1.1075
 Frc consts  --      6.2106                 6.1981                 6.4860
 IR Inten    --     27.1979                13.9634                20.1132

                     64                     65                     66
                      A                      A                      A
 Frequencies --   3185.2147              3226.7401              3495.8434
 Red. masses --      1.1073                 1.1160                 1.0736
 Frc consts  --      6.6190                 6.8458                 7.7303
 IR Inten    --     17.2452                18.8902                 3.0932

 - Thermochemistry -
 -------------------
 Temperature   298.150 Kelvin.  Pressure   1.00000 Atm.
 Atom     1 has atomic number  6 and mass  12.00000

 Molecular mass:   155.09463 amu.
 Principal axes and moments of inertia in atomic units:
                           1         2         3
     Eigenvalues --   624.958063128.001673379.02332
           X            0.99998   0.00556  -0.00231
           Y           -0.00549   0.99952   0.03044
           Z            0.00248  -0.03043   0.99953
 This molecule is an asymmetric top.
 Rotational symmetry number  1.
 Warning -- assumption of classical behavior for rotation
           may cause significant error
 Rotational temperatures (Kelvin)      0.13859     0.02769     0.02563
 Rotational constants (GHZ):           2.88778     0.57696     0.53410
 Zero-point vibrational energy     545064.6 (Joules/Mol)
                                  130.27356 (Kcal/Mol)
 Warning -- explicit consideration of  14 degrees of freedom as
           vibrations may cause significant error
 Vibrational temperatures:     55.25    96.84   166.24   198.74   229.36
          (Kelvin)            292.94   338.11   409.66   435.68   534.95
                              575.00   607.15   652.78   743.22   940.30
                             1033.60  1066.23  1115.78  1125.06  1165.72
                             1276.76  1296.16  1335.00  1350.76  1395.94
                             1448.03  1474.37  1523.71  1530.76  1608.80
                             1662.86  1700.60  1707.79  1739.54  1767.15
                             1800.23  1871.63  1904.57  1932.61  1965.89
                             1981.76  2001.16  2014.50  2128.51  2147.42
                             2157.20  2170.60  2176.63  2177.20  2192.85
                             2193.85  2510.83  2627.01  4326.87  4336.05
                             4380.33  4399.26  4427.77  4442.85  4454.50
                             4465.02  4533.28  4536.10  4582.81  4642.56
                             5029.74

 Zero-point correction=                           0.207604 (Hartree/Particle)
 Thermal correction to Energy=                    0.218602
 Thermal correction to Enthalpy=                  0.219547
 Thermal correction to Gibbs Free Energy=         0.170288
 Sum of electronic and zero-point Energies=           -517.692041
 Sum of electronic and thermal Energies=              -517.681042
 Sum of electronic and thermal Enthalpies=            -517.680098
 Sum of electronic and thermal Free Energies=         -517.729357

                     E (Thermal)             CV                S
                      KCal/Mol        Cal/Mol-Kelvin    Cal/Mol-Kelvin
 Total                  137.175             40.796            103.673
 Electronic               0.000              0.000              0.000
 Translational            0.889              2.981             41.026
 Rotational               0.889              2.981             30.269
 Vibrational            135.398             34.834             32.378
 Vibration     1          0.594              1.982              5.340
 Vibration     2          0.598              1.970              4.231
 Vibration     3          0.608              1.937              3.174
 Vibration     4          0.614              1.915              2.830
 Vibration     5          0.621              1.892              2.557
 Vibration     6          0.639              1.835              2.100
 Vibration     7          0.655              1.787              1.840
 Vibration     8          0.683              1.702              1.505
 Vibration     9          0.694              1.668              1.401
 Vibration    10          0.744              1.530              1.072
 Vibration    11          0.766              1.471              0.964
 Vibration    12          0.784              1.422              0.885
 Vibration    13          0.812              1.353              0.785
 Vibration    14          0.872              1.213              0.618

                           ! Non-Optimized Parameters !
 Normal termination of Gaussian 16 at Tue Dec  8 21:03:18 2020.

 ----------------------------------------------------------------------
 # B3LYP/6-311++G(d,p) empiricaldispersion=gd3bj scf=xqc pop=npa geom=c
 heck
 ----------------------------------------------------------------------

 --------------------------------------
 CID_77686866_JID_1749_Energie_neutraal
 --------------------------------------
 Structure from the checkpoint file:  "JID_1749.chk"
 Charge =  0 Multiplicity = 1

 SCF Done:  E(RB3LYP) =  -518.053396697     A.U. after   14 cycles
 Normal termination of Gaussian 16 at Tue Dec  8 21:06:21 2020.

 ----------------------------------------------------------------------
 # B3LYP/6-311++G(d,p) empiricaldispersion=gd3bj scf=xqc pop=npa geom=c
 heck
 ----------------------------------------------------------------------

 ------------------------------------
 CID_77686866_JID_1749_Energie_kation
 ------------------------------------
 Structure from the checkpoint file:  "JID_1749.chk"
 Charge =  1 Multiplicity = 2

 SCF Done:  E(UB3LYP) =  -517.746115250     A.U. after   21 cycles
 Normal termination of Gaussian 16 at Tue Dec  8 21:13:18 2020.
 Gaussian 16:  ES64L-G16RevA.03 25-Dec-2016

 ----------------------------------------------------------------------
 # B3LYP/6-311++G(d,p) empiricaldispersion=gd3bj scf=xqc pop=npa geom=c
 heck
 ----------------------------------------------------------------------

 -----------------------------------
 CID_77686866_JID_1749_Energie_anion
 -----------------------------------
 Structure from the checkpoint file:  "JID_1749.chk"
 Charge = -1 Multiplicity = 2

                         Standard orientation:
 ---------------------------------------------------------------------
 Center     Atomic      Atomic             Coordinates (Angstroms)
 Number     Number       Type             X           Y           Z
 ---------------------------------------------------------------------
      1          6           0        3.908579    0.326738    0.031160
      2          8           0        2.582364    0.449752   -0.509956
      3          6           0        1.641950   -0.295005    0.104801
      4          8           0        1.866760   -1.033656    1.039534
      5          6           0        0.261047   -0.030500   -0.464609
      6          6           0       -0.349138    1.187970    0.274957
      7          6           0       -1.812128    1.399606   -0.153768
      8          6           0       -2.589239    0.112735   -0.021914
      9          6           0       -3.714962   -0.002729    0.684197
     10          6           0       -1.932950   -1.054523   -0.726434
     11          7           0       -0.527524   -1.253300   -0.348141
     12          1           0        4.531820    0.989924   -0.568707
     13          1           0        4.257177   -0.706078   -0.046469
     14          1           0        3.922481    0.628156    1.081825
     15          1           0        0.358573    0.219218   -1.528604
     16          1           0        0.249456    2.085132    0.077629
     17          1           0       -0.310033    0.991072    1.354110
     18          1           0       -1.824345    1.723963   -1.206246
     19          1           0       -2.272798    2.199995    0.435587
     20          1           0       -4.239848   -0.951587    0.768761
     21          1           0       -4.159041    0.846998    1.197906
     22          1           0       -2.475224   -1.986129   -0.537386
     23          1           0       -1.954392   -0.883092   -1.813838
     24          1           0       -0.463105   -1.578986    0.615455
 ---------------------------------------------------------------------

 SCF Done:  E(UB3LYP) =  -518.037625928     A.U. after   33 cycles
 SCF Done:  E(UB3LYP) =  -518.037625928     a.u. after    1 cycles

 The electronic state is 2-A.
 Alpha  occ. eigenvalues --  -19.07243 -19.01668 -14.20273 -10.20221 -10.12065
 Alpha  occ. eigenvalues --  -10.11224 -10.09850 -10.07901 -10.07468 -10.07299
 Alpha  occ. eigenvalues --  -10.06026  -1.01226  -0.92586  -0.82260  -0.70583
 Alpha  occ. eigenvalues --   -0.68478  -0.63468  -0.59022  -0.54997  -0.51470
 Alpha  occ. eigenvalues --   -0.46821  -0.44452  -0.42600  -0.38780  -0.38682
 Alpha  occ. eigenvalues --   -0.37135  -0.36106  -0.34709  -0.34005  -0.32969
 Alpha  occ. eigenvalues --   -0.31015  -0.29859  -0.27745  -0.27233  -0.27090
 Alpha  occ. eigenvalues --   -0.25712  -0.25334  -0.23408  -0.21186  -0.18589
 Alpha  occ. eigenvalues --   -0.16110  -0.12953   0.04652
 Alpha virt. eigenvalues --    0.06410   0.07681   0.07831   0.09272   0.09540
 Alpha virt. eigenvalues --    0.09797   0.09995   0.10613   0.10843   0.10996
 Alpha virt. eigenvalues --    0.11877   0.12557   0.13412   0.14060   0.14285

  Beta  occ. eigenvalues --  -19.07235 -19.01661 -14.20268 -10.20221 -10.12010
  Beta  occ. eigenvalues --  -10.11213 -10.09834 -10.07876 -10.07448 -10.07274
  Beta  occ. eigenvalues --  -10.05978  -1.01212  -0.92570  -0.82239  -0.70517
  Beta  occ. eigenvalues --   -0.68444  -0.63405  -0.58950  -0.54942  -0.51394
  Beta  occ. eigenvalues --   -0.46775  -0.44379  -0.42557  -0.38749  -0.38652
  Beta  occ. eigenvalues --   -0.37100  -0.36047  -0.34679  -0.33956  -0.32913
  Beta  occ. eigenvalues --   -0.30975  -0.29812  -0.27706  -0.27194  -0.27046
  Beta  occ. eigenvalues --   -0.25671  -0.25299  -0.23368  -0.21166  -0.18577
  Beta  occ. eigenvalues --   -0.15922  -0.12911
  Beta virt. eigenvalues --    0.06912   0.07602   0.08154   0.08448   0.09682
  Beta virt. eigenvalues --    0.09737   0.10389   0.10529   0.11103   0.11215
  Beta virt. eigenvalues --    0.11568   0.12208   0.12895   0.13838   0.14259

 Mulliken charges and spin densities:
               1          2
     1  C    1.343121  -1.581026
     2  O   -0.127517   0.088539
     3  C   -1.634764   1.556535
     4  O   -0.261886   0.008059
     5  C    0.794292  -1.458884
     6  C    0.343786  -0.367670
     7  C    0.562898  -1.148155
     8  C   -1.079870   2.143565
     9  C    0.579935  -1.232288
    10  C    0.890006  -1.725113
    11  N   -0.087277   0.171269
    12  H   -0.764970   0.927174
    13  H   -0.292484   0.462646
    14  H   -0.378540   0.553339
    15  H   -0.000859   0.254989
    16  H   -0.202154   0.379808
    17  H    0.142724   0.001648
    18  H   -0.161666   0.318290
    19  H   -0.423108   0.601288
    20  H   -0.047509   0.150963
    21  H   -0.123778   0.247561
    22  H    0.066873   0.095304
    23  H   -0.315650   0.495294
    24  H    0.178397   0.056865
 Sum of Mulliken charges =  -1.00000   1.00000

 Dipole moment (field-independent basis, Debye):
    X=             -3.4420    Y=             -2.9332    Z=              1.6464  Tot=              4.8126
 Quadrupole moment (field-independent basis, Debye-Ang):
   XX=           -150.3136   YY=           -104.3301   ZZ=            -96.7652
   XY=             -1.0595   XZ=             -1.6019   YZ=              1.6752

 Summary of Natural Population Analysis:

                                       Natural Population
                Natural  -----------------------------------------------
    Atom  No    Charge         Core      Valence    Rydberg      Total
 -----------------------------------------------------------------------
      C    1   -0.10388      0.99959     2.09532    0.00897     3.10388
      O    2   -0.27425      0.99986     3.26489    0.00950     4.27425
      C    3    0.41525      0.99965     1.55877    0.02633     2.58475
      O    4   -0.31012      0.99987     3.30477    0.00548     4.31012
      C    5   -0.05307      0.99955     2.04011    0.01341     3.05307
      C    6   -0.18979      0.99961     2.18101    0.00917     3.18979
      C    7   -0.20529      0.99958     2.19475    0.01097     3.20529
      C    8   -0.00477      0.99953     1.99409    0.01116     3.00477
      C    9   -0.19352      0.99948     2.18687    0.00717     3.19352
      C   10   -0.10128      0.99957     2.08968    0.01204     3.10128
      N   11   -0.33339      0.99975     2.82171    0.01193     3.83339
      H   12    0.09622      0.00000     0.40076    0.00303     0.40378
      H   13    0.09135      0.00000     0.40719    0.00146     0.40865
      H   14    0.09199      0.00000     0.40633    0.00168     0.40801
      H   15    0.10546      0.00000     0.39247    0.00207     0.39454
      H   16    0.10766      0.00000     0.39080    0.00154     0.39234
      H   17    0.09668      0.00000     0.40193    0.00139     0.40332
      H   18    0.10429      0.00000     0.39305    0.00266     0.39571
      H   19    0.10442      0.00000     0.39414    0.00145     0.39558
      H   20    0.09051      0.00000     0.40844    0.00105     0.40949
      H   21    0.09320      0.00000     0.40565    0.00116     0.40680
      H   22    0.09750      0.00000     0.40161    0.00089     0.40250
      H   23    0.09650      0.00000     0.40184    0.00166     0.40350
      H   24    0.17837      0.00000     0.31874    0.00289     0.32163
 =======================================================================
   * Total *    0.00000     10.99603    30.85492    0.14905    42.00000

 Normal termination of Gaussian 16 at Tue Dec  8 21:21:44 2020.
