 Gaussian 16, Revision A.03,

 -----------------------------------------------------------
 # opt freq B3LYP/6-31G(d) empiricaldispersion=gd3bj scf=xqc
 -----------------------------------------------------------

 -------------------------------
 CID_130965152_JID_1915_neutraal
 -------------------------------
 Symbolic Z-matrix:
 Charge =  0 Multiplicity = 1

 SCF Done:  E(RB3LYP) =  -850.495034492     A.U. after   15 cycles
 SCF Done:  E(RB3LYP) =  -850.521080383     A.U. after   16 cycles
 SCF Done:  E(RB3LYP) =  -850.524888669     A.U. after   15 cycles
 SCF Done:  E(RB3LYP) =  -850.543419098     A.U. after   15 cycles
 SCF Done:  E(RB3LYP) =  -850.540535142     A.U. after   15 cycles
 SCF Done:  E(RB3LYP) =  -850.544874832     A.U. after   14 cycles
 SCF Done:  E(RB3LYP) =  -850.544993045     A.U. after   15 cycles
 SCF Done:  E(RB3LYP) =  -850.546936473     A.U. after   11 cycles
 SCF Done:  E(RB3LYP) =  -850.547706558     A.U. after   13 cycles
 SCF Done:  E(RB3LYP) =  -850.548779268     A.U. after   13 cycles
 SCF Done:  E(RB3LYP) =  -850.554405875     A.U. after   11 cycles
 SCF Done:  E(RB3LYP) =  -850.554414977     A.U. after   11 cycles
 SCF Done:  E(RB3LYP) =  -850.554417098     A.U. after    9 cycles
 SCF Done:  E(RB3LYP) =  -850.554417565     A.U. after    8 cycles
 SCF Done:  E(RB3LYP) =  -850.554417709     A.U. after    8 cycles
 Optimization completed.
    -- Stationary point found.
 Normal termination of Gaussian 16 at Tue Dec  8 21:52:12 2020.

 --------------------------------------------------------------------
 #N Geom=AllCheck Guess=TCheck SCRF=Check GenChk RB3LYP/6-31G(d) Freq
 --------------------------------------------------------------------

 Structure from the checkpoint file:  "JID_1915.chk"
 -------------------------------
 CID_130965152_JID_1915_neutraal
 -------------------------------
 Charge =  0 Multiplicity = 1

 SCF Done:  E(RB3LYP) =  -850.554417709     A.U. after    1 cycles

  Exact polarizability:  99.097   0.126  90.187  -8.546   2.195  96.972
 Approx polarizability: 153.155   1.166 142.274 -27.344   9.453 170.119

                      1                      2                      3
                      A                      A                      A
 Frequencies --     47.2882                58.5010               100.8833
 Red. masses --      6.0865                 4.8007                 2.7254
 Frc consts  --      0.0080                 0.0097                 0.0163
 IR Inten    --      2.0279                 0.8669                 0.2557

                      4                      5                      6
                      A                      A                      A
 Frequencies --    119.2200               141.9924               171.3009
 Red. masses --      3.3145                 4.5598                 5.1816
 Frc consts  --      0.0278                 0.0542                 0.0896
 IR Inten    --      0.3589                 0.9068                 0.1165

                      7                      8                      9
                      A                      A                      A
 Frequencies --    206.1433               257.6026               296.5400
 Red. masses --      1.5848                 1.8275                 6.8514
 Frc consts  --      0.0397                 0.0715                 0.3550
 IR Inten    --      2.2382                 0.9859                 0.7027

                     10                     11                     12
                      A                      A                      A
 Frequencies --    330.4494               393.6689               438.7930
 Red. masses --      3.0021                 3.7591                 5.3103
 Frc consts  --      0.1931                 0.3432                 0.6024
 IR Inten    --      5.5814                 1.6663                 0.5680

                     13                     14                     15
                      A                      A                      A
 Frequencies --    468.6138               517.7215               625.8281
 Red. masses --     10.1122                 7.8307                 1.2944
 Frc consts  --      1.3084                 1.2366                 0.2987
 IR Inten    --      3.3675                 3.6330                31.3385

                     16                     17                     18
                      A                      A                      A
 Frequencies --    627.6229               676.4416               690.2444
 Red. masses --      1.2831                 3.8366                 3.9892
 Frc consts  --      0.2978                 1.0343                 1.1198
 IR Inten    --     37.7889                24.8831                 6.8806

                     19                     20                     21
                      A                      A                      A
 Frequencies --    717.9024               733.8927               812.8214
 Red. masses --      7.9130                12.5037                 1.1680
 Frc consts  --      2.4028                 3.9678                 0.4546
 IR Inten    --      1.6127                 0.3090                 1.7621

                     22                     23                     24
                      A                      A                      A
 Frequencies --    910.5605               983.7509               988.1303
 Red. masses --      1.6020                 2.2700                 3.9697
 Frc consts  --      0.7826                 1.2944                 2.2837
 IR Inten    --      6.3424                 6.4234                 3.6406

                     25                     26                     27
                      A                      A                      A
 Frequencies --   1015.5638              1072.3938              1110.1658
 Red. masses --      9.0687                 3.5891                 3.5576
 Frc consts  --      5.5107                 2.4319                 2.5833
 IR Inten    --      2.4097                 5.3294                 3.3772

                     28                     29                     30
                      A                      A                      A
 Frequencies --   1127.8580              1198.3861              1206.1525
 Red. masses --      2.5441                 2.7365                 1.2190
 Frc consts  --      1.9068                 2.3155                 1.0449
 IR Inten    --     11.8213                14.0059                 1.9049

                     31                     32                     33
                      A                      A                      A
 Frequencies --   1234.9715              1287.7852              1295.1125
 Red. masses --      4.1046                 1.2957                 2.8994
 Frc consts  --      3.6883                 1.2660                 2.8653
 IR Inten    --     12.7018                17.2955                 4.7020

                     34                     35                     36
                      A                      A                      A
 Frequencies --   1353.4912              1406.3338              1434.8471
 Red. masses --      1.9963                 1.3410                 5.3877
 Frc consts  --      2.1547                 1.5626                 6.5353
 IR Inten    --     11.1187                 7.5442                44.2923

                     37                     38                     39
                      A                      A                      A
 Frequencies --   1445.9613              1471.4212              1495.0027
 Red. masses --      1.3902                 4.4129                 1.1107
 Frc consts  --      1.7125                 5.6292                 1.4626
 IR Inten    --      5.3226                13.8041                 3.0647

                     40                     41                     42
                      A                      A                      A
 Frequencies --   1517.4369              1521.3195              1540.6174
 Red. masses --      1.0435                 1.0887                 1.0592
 Frc consts  --      1.4156                 1.4845                 1.4812
 IR Inten    --      3.5362                 9.7471                 4.6483

                     43                     44                     45
                      A                      A                      A
 Frequencies --   2245.1002              3069.1793              3072.7370
 Red. masses --      5.9605                 1.0356                 1.0570
 Frc consts  --     17.7012                 5.7479                 5.8802
 IR Inten    --      3.3590                12.1731                12.5654

                     46                     47                     48
                      A                      A                      A
 Frequencies --   3096.0801              3115.3476              3136.4974
 Red. masses --      1.0599                 1.1067                 1.1059
 Frc consts  --      5.9862                 6.3284                 6.4099
 IR Inten    --     11.5825                 2.3635                 0.2669

                     49                     50                     51
                      A                      A                      A
 Frequencies --   3144.3346              3159.1069              3494.5843
 Red. masses --      1.1020                 1.1056                 1.1611
 Frc consts  --      6.4193                 6.5010                 8.3545
 IR Inten    --     17.0338                12.3560                58.2355

 - Thermochemistry -
 -------------------
 Temperature   298.150 Kelvin.  Pressure   1.00000 Atm.
 Atom     1 has atomic number  6 and mass  12.00000

 Molecular mass:   168.04697 amu.
 Principal axes and moments of inertia in atomic units:
                           1         2         3
     Eigenvalues --  1528.540312031.858902317.58711
           X            0.99859   0.04829   0.02213
           Y           -0.04917   0.99795   0.04087
           Z           -0.02011  -0.04190   0.99892
 This molecule is an asymmetric top.
 Rotational symmetry number  1.
 Warning -- assumption of classical behavior for rotation
           may cause significant error
 Rotational temperatures (Kelvin)      0.05666     0.04263     0.03737
 Rotational constants (GHZ):           1.18070     0.88822     0.77872
 Zero-point vibrational energy     374333.7 (Joules/Mol)
                                   89.46789 (Kcal/Mol)
 Warning -- explicit consideration of  14 degrees of freedom as
           vibrations may cause significant error
 Vibrational temperatures:     68.04    84.17   145.15   171.53   204.30
          (Kelvin)            246.46   296.59   370.63   426.65   475.44
                              566.40   631.33   674.23   744.89   900.43
                              903.01   973.25   993.11  1032.90  1055.91
                             1169.47  1310.09  1415.40  1421.70  1461.17
                             1542.94  1597.28  1622.74  1724.21  1735.38
                             1776.85  1852.84  1863.38  1947.37  2023.40
                             2064.42  2080.42  2117.05  2150.98  2183.25
                             2188.84  2216.60  3230.20  4415.86  4420.98
                             4454.57  4482.29  4512.72  4524.00  4545.25
                             5027.93

 Zero-point correction=                           0.142576 (Hartree/Particle)
 Thermal correction to Energy=                    0.153819
 Thermal correction to Enthalpy=                  0.154763
 Thermal correction to Gibbs Free Energy=         0.104614
 Sum of electronic and zero-point Energies=           -850.411842
 Sum of electronic and thermal Energies=              -850.400598
 Sum of electronic and thermal Enthalpies=            -850.399654
 Sum of electronic and thermal Free Energies=         -850.449804

                     E (Thermal)             CV                S
                      KCal/Mol        Cal/Mol-Kelvin    Cal/Mol-Kelvin
 Total                   96.523             39.866            105.548
 Electronic               0.000              0.000              0.000
 Translational            0.889              2.981             41.265
 Rotational               0.889              2.981             30.355
 Vibrational             94.746             33.905             33.928
 Vibration     1          0.595              1.979              4.928
 Vibration     2          0.596              1.974              4.507
 Vibration     3          0.604              1.948              3.437
 Vibration     4          0.609              1.933              3.113
 Vibration     5          0.615              1.911              2.777
 Vibration     6          0.626              1.878              2.421
 Vibration     7          0.641              1.831              2.078
 Vibration     8          0.667              1.750              1.678
 Vibration     9          0.690              1.680              1.436
 Vibration    10          0.713              1.615              1.258
 Vibration    11          0.761              1.484              0.986
 Vibration    12          0.799              1.386              0.830
 Vibration    13          0.826              1.320              0.741
 Vibration    14          0.873              1.211              0.615

                           ! Non-Optimized Parameters !
 Normal termination of Gaussian 16 at Tue Dec  8 21:56:37 2020.

 ----------------------------------------------------------------------
 # B3LYP/6-311++G(d,p) empiricaldispersion=gd3bj scf=xqc pop=npa geom=c
 heck
 ----------------------------------------------------------------------

 ---------------------------------------
 CID_130965152_JID_1915_Energie_neutraal
 ---------------------------------------
 Structure from the checkpoint file:  "JID_1915.chk"
 Charge =  0 Multiplicity = 1

 SCF Done:  E(RB3LYP) =  -850.704673039     A.U. after   16 cycles
 Normal termination of Gaussian 16 at Tue Dec  8 21:58:37 2020.

 ----------------------------------------------------------------------
 # B3LYP/6-311++G(d,p) empiricaldispersion=gd3bj scf=xqc pop=npa geom=c
 heck
 ----------------------------------------------------------------------

 -------------------------------------
 CID_130965152_JID_1915_Energie_kation
 -------------------------------------
 Structure from the checkpoint file:  "JID_1915.chk"
 Charge =  1 Multiplicity = 2

 SCF Done:  E(UB3LYP) =  -850.361838838     A.U. after   27 cycles
 Normal termination of Gaussian 16 at Tue Dec  8 22:02:59 2020.
 Gaussian 16:  ES64L-G16RevA.03 25-Dec-2016

 ----------------------------------------------------------------------
 # B3LYP/6-311++G(d,p) empiricaldispersion=gd3bj scf=xqc pop=npa geom=c
 heck
 ----------------------------------------------------------------------

 ------------------------------------
 CID_130965152_JID_1915_Energie_anion
 ------------------------------------
 Structure from the checkpoint file:  "JID_1915.chk"
 Charge = -1 Multiplicity = 2

                         Standard orientation:
 ---------------------------------------------------------------------
 Center     Atomic      Atomic             Coordinates (Angstroms)
 Number     Number       Type             X           Y           Z
 ---------------------------------------------------------------------
      1          6           0       -0.890425   -2.533484    0.009452
      2          6           0       -1.190062   -1.409039   -0.980175
      3          7           0       -1.206126   -0.104873   -0.326342
      4          6           0       -0.287951    0.895018   -0.311834
      5          7           0       -0.741584    1.861620    0.472409
      6          7           0       -1.940571    1.433755    0.937536
      7          7           0       -2.225275    0.251068    0.479217
      8         16           0        1.204788    0.950409   -1.232857
      9          6           0        2.180144   -0.413346   -0.400712
     10          6           0        2.019424   -0.430116    1.038295
     11          6           0        1.808547   -0.435344    2.226575
     12          1           0        0.067729   -2.372412    0.511994
     13          1           0       -0.860033   -3.493311   -0.516161
     14          1           0       -1.671046   -2.578414    0.773873
     15          1           0       -0.441682   -1.348649   -1.774503
     16          1           0       -2.169337   -1.544658   -1.445837
     17          1           0        1.896169   -1.374339   -0.840281
     18          1           0        3.214983   -0.206049   -0.692961
     19          1           0        1.643443   -0.421824    3.280245
 ---------------------------------------------------------------------

 SCF Done:  E(UB3LYP) =  -850.702694234     A.U. after   33 cycles
 SCF Done:  E(UB3LYP) =  -850.702845576     a.u. after    4 cycles

 The electronic state is 2-A.
 Alpha  occ. eigenvalues --  -88.72918 -14.27074 -14.23958 -14.23377 -14.19924
 Alpha  occ. eigenvalues --  -10.12560 -10.11744 -10.09123 -10.06869 -10.06434
 Alpha  occ. eigenvalues --  -10.05026  -7.81410  -5.77826  -5.77474  -5.76774
 Alpha  occ. eigenvalues --   -1.00128  -0.82273  -0.75919  -0.69100  -0.67057
 Alpha  occ. eigenvalues --   -0.62465  -0.56982  -0.55705  -0.51848  -0.47041
 Alpha  occ. eigenvalues --   -0.42513  -0.40271  -0.37402  -0.36044  -0.35493
 Alpha  occ. eigenvalues --   -0.33357  -0.30773  -0.30251  -0.28491  -0.26748
 Alpha  occ. eigenvalues --   -0.25851  -0.22787  -0.18265  -0.17834  -0.17079
 Alpha  occ. eigenvalues --   -0.16374  -0.15654  -0.15476  -0.11667   0.04971
 Alpha virt. eigenvalues --    0.07390   0.09092   0.09206   0.10021   0.10807
 Alpha virt. eigenvalues --    0.11377   0.12113   0.13013   0.13528   0.14099
 Alpha virt. eigenvalues --    0.14530   0.15448   0.15544   0.16614   0.17620

  Beta  occ. eigenvalues --  -88.72869 -14.26814 -14.23733 -14.23421 -14.19864
  Beta  occ. eigenvalues --  -10.12447 -10.11750 -10.08788 -10.06853 -10.06438
  Beta  occ. eigenvalues --  -10.04963  -7.81361  -5.77704  -5.77418  -5.76743
  Beta  occ. eigenvalues --   -0.99874  -0.81991  -0.75600  -0.68732  -0.66979
  Beta  occ. eigenvalues --   -0.62206  -0.56684  -0.55530  -0.51664  -0.46859
  Beta  occ. eigenvalues --   -0.42355  -0.40081  -0.36892  -0.35757  -0.35297
  Beta  occ. eigenvalues --   -0.33112  -0.30610  -0.29916  -0.28318  -0.26694
  Beta  occ. eigenvalues --   -0.25333  -0.22425  -0.17650  -0.17502  -0.16497
  Beta  occ. eigenvalues --   -0.16166  -0.15477  -0.15121  -0.11414
  Beta virt. eigenvalues --    0.07582   0.08766   0.09399   0.09775   0.10575
  Beta virt. eigenvalues --    0.11348   0.11886   0.12474   0.13449   0.13938
  Beta virt. eigenvalues --    0.14283   0.14751   0.15618   0.15774   0.16650

 Mulliken charges and spin densities:
               1          2
     1  C   -0.349556  -0.113524
     2  C   -0.135571  -0.111696
     3  N    0.266391   0.047589
     4  C   -0.469927   0.287266
     5  N   -0.011824   0.005412
     6  N   -0.063904  -0.027499
     7  N   -0.179597   0.124202
     8  S   -0.307356   0.212981
     9  C    2.990510  -3.113425
    10  C    0.828941  -0.135300
    11  C   -2.814232   1.770882
    12  H    0.261283  -0.123129
    13  H   -0.008953   0.117982
    14  H    0.140488   0.012858
    15  H    0.090716   0.074858
    16  H    0.145705   0.022887
    17  H   -0.533418   0.697722
    18  H   -0.884156   1.139245
    19  H    0.034461   0.110686
 Sum of Mulliken charges =  -1.00000   1.00000

 Dipole moment (field-independent basis, Debye):
    X=             -4.0585    Y=             -3.0261    Z=              0.0386  Tot=              5.0627
 Quadrupole moment (field-independent basis, Debye-Ang):
   XX=           -122.0866   YY=            -98.9908   ZZ=            -87.9468
   XY=             12.6792   XZ=             12.0606   YZ=             -4.2529

 Summary of Natural Population Analysis:

                                       Natural Population
                Natural  -----------------------------------------------
    Atom  No    Charge         Core      Valence    Rydberg      Total
 -----------------------------------------------------------------------
      C    1   -0.29045      0.99966     2.28563    0.00516     3.29045
      C    2   -0.08858      0.99963     2.07912    0.00982     3.08858
      N    3   -0.09664      0.99958     2.58181    0.01525     3.59664
      C    4    0.11338      0.99955     1.86363    0.02344     2.88662
      N    5   -0.16152      0.99967     2.64646    0.01538     3.66152
      N    6   -0.06569      0.99981     2.54836    0.01752     3.56569
      N    7   -0.02559      0.99977     2.50871    0.01711     3.52559
      S    8    0.14071      4.99956     2.83969    0.02005     7.85929
      C    9   -0.26125      0.99949     2.24514    0.01662     3.26125
      C   10   -0.00447      0.99937     1.99637    0.00873     3.00447
      C   11   -0.11493      0.99925     2.11213    0.00355     3.11493
      H   12    0.10996      0.00000     0.38888    0.00116     0.39004
      H   13    0.09566      0.00000     0.40362    0.00072     0.40434
      H   14    0.10244      0.00000     0.39673    0.00084     0.39756
      H   15    0.10749      0.00000     0.39129    0.00121     0.39251
      H   16    0.09866      0.00000     0.40021    0.00113     0.40134
      H   17    0.11012      0.00000     0.38699    0.00290     0.38988
      H   18    0.12284      0.00000     0.37331    0.00384     0.37716
      H   19    0.10784      0.00000     0.39109    0.00107     0.39216
 =======================================================================
   * Total *   -0.00000     14.99534    28.83917    0.16550    44.00000

 Normal termination of Gaussian 16 at Tue Dec  8 22:21:34 2020.
