 Gaussian 16, Revision A.03,

 -----------------------------------------------------------
 # opt freq B3LYP/6-31G(d) empiricaldispersion=gd3bj scf=xqc
 -----------------------------------------------------------

 -------------------------------
 CID_103033199_JID_4473_neutraal
 -------------------------------
 Symbolic Z-matrix:
 Charge =  0 Multiplicity = 1

 SCF Done:  E(RB3LYP) =  -603.570377077     A.U. after   13 cycles
 SCF Done:  E(RB3LYP) =  -603.569709972     A.U. after   11 cycles
 SCF Done:  E(RB3LYP) =  -603.571896503     A.U. after   11 cycles
 SCF Done:  E(RB3LYP) =  -603.573631885     A.U. after   11 cycles
 SCF Done:  E(RB3LYP) =  -603.573722975     A.U. after   11 cycles
 SCF Done:  E(RB3LYP) =  -603.573834555     A.U. after   10 cycles
 SCF Done:  E(RB3LYP) =  -603.573883533     A.U. after    9 cycles
 SCF Done:  E(RB3LYP) =  -603.573889836     A.U. after    9 cycles
 SCF Done:  E(RB3LYP) =  -603.573904268     A.U. after    8 cycles
 SCF Done:  E(RB3LYP) =  -603.573909237     A.U. after    8 cycles
 SCF Done:  E(RB3LYP) =  -603.573910699     A.U. after    8 cycles
 SCF Done:  E(RB3LYP) =  -603.573911319     A.U. after    7 cycles
 SCF Done:  E(RB3LYP) =  -603.573911785     A.U. after    8 cycles
 SCF Done:  E(RB3LYP) =  -603.573912015     A.U. after    7 cycles
 SCF Done:  E(RB3LYP) =  -603.573912066     A.U. after    7 cycles
 SCF Done:  E(RB3LYP) =  -603.573912069     A.U. after    6 cycles
 Optimization completed.
    -- Stationary point found.
 Normal termination of Gaussian 16 at Thu Dec 10 09:58:04 2020.

 --------------------------------------------------------------------
 #N Geom=AllCheck Guess=TCheck SCRF=Check GenChk RB3LYP/6-31G(d) Freq
 --------------------------------------------------------------------

 Structure from the checkpoint file:  "JID_4473.chk"
 -------------------------------
 CID_103033199_JID_4473_neutraal
 -------------------------------
 Charge =  0 Multiplicity = 1

 SCF Done:  E(RB3LYP) =  -603.573912069     A.U. after    1 cycles

  Exact polarizability: 152.133   1.565 139.872   0.150   1.765 121.292
 Approx polarizability: 192.517   1.414 185.632   0.401   3.059 180.726

                      1                      2                      3
                      A                      A                      A
 Frequencies --     19.8422                37.8047                62.0105
 Red. masses --      3.2343                 2.7462                 1.9993
 Frc consts  --      0.0008                 0.0023                 0.0045
 IR Inten    --      0.0391                 0.2264                 1.4513

                      4                      5                      6
                      A                      A                      A
 Frequencies --     66.8741                71.6708                91.2271
 Red. masses --      2.9287                 3.4779                 2.6920
 Frc consts  --      0.0077                 0.0105                 0.0132
 IR Inten    --      0.5070                 0.3507                 0.0629

                      7                      8                      9
                      A                      A                      A
 Frequencies --    163.7132               171.4177               183.3176
 Red. masses --      2.8790                 1.5641                 1.5785
 Frc consts  --      0.0455                 0.0271                 0.0313
 IR Inten    --      0.0200                 0.2775                 0.8739

                     10                     11                     12
                      A                      A                      A
 Frequencies --    200.5230               225.4221               236.0521
 Red. masses --      2.3331                 1.8832                 1.2691
 Frc consts  --      0.0553                 0.0564                 0.0417
 IR Inten    --      0.6551                 0.7567                 0.9612

                     13                     14                     15
                      A                      A                      A
 Frequencies --    256.6479               268.9622               272.4736
 Red. masses --      1.3340                 1.7471                 1.2489
 Frc consts  --      0.0518                 0.0745                 0.0546
 IR Inten    --      0.4277                 2.1508                 0.1075

                     16                     17                     18
                      A                      A                      A
 Frequencies --    280.4017               314.1996               329.2485
 Red. masses --      1.3575                 2.1019                 2.1250
 Frc consts  --      0.0629                 0.1223                 0.1357
 IR Inten    --      1.8029                 0.3849                 1.5451

                     19                     20                     21
                      A                      A                      A
 Frequencies --    350.0147               375.9089               380.9078
 Red. masses --      2.1025                 2.5406                 2.0563
 Frc consts  --      0.1518                 0.2115                 0.1758
 IR Inten    --      0.6999                 1.7528                 0.3329

                     22                     23                     24
                      A                      A                      A
 Frequencies --    397.9177               427.0661               440.6598
 Red. masses --      2.3030                 1.8854                 2.2298
 Frc consts  --      0.2148                 0.2026                 0.2551
 IR Inten    --      3.7440                 0.2774                 2.3611

                     25                     26                     27
                      A                      A                      A
 Frequencies --    472.2685               484.1099               546.7625
 Red. masses --      2.5954                 2.4587                 2.5254
 Frc consts  --      0.3411                 0.3395                 0.4448
 IR Inten    --      2.1036                 0.6572                 0.2884

                     28                     29                     30
                      A                      A                      A
 Frequencies --    568.6767               710.5273               744.2976
 Red. masses --      2.4317                 3.3210                 1.6846
 Frc consts  --      0.4633                 0.9878                 0.5498
 IR Inten    --      1.7827                16.8293                 3.1044

                     31                     32                     33
                      A                      A                      A
 Frequencies --    811.9673               825.5489               845.1791
 Red. masses --      2.0889                 1.9868                 1.8769
 Frc consts  --      0.8114                 0.7978                 0.7899
 IR Inten    --     31.8200                 3.4964                27.3042

                     34                     35                     36
                      A                      A                      A
 Frequencies --    862.9375               893.9837               914.3108
 Red. masses --      1.8680                 2.1279                 1.7451
 Frc consts  --      0.8196                 1.0020                 0.8595
 IR Inten    --     17.3604                10.0326                32.2142

                     37                     38                     39
                      A                      A                      A
 Frequencies --    935.0643               944.4555               961.4439
 Red. masses --      1.5161                 1.2062                 1.9693
 Frc consts  --      0.7810                 0.6339                 1.0726
 IR Inten    --      3.4305                 0.5296                 0.6358

                     40                     41                     42
                      A                      A                      A
 Frequencies --    972.1336               982.4289               999.2400
 Red. masses --      1.4361                 1.5792                 1.7237
 Frc consts  --      0.7996                 0.8980                 1.0141
 IR Inten    --      3.6451                 0.8421                 4.3941

                     43                     44                     45
                      A                      A                      A
 Frequencies --   1008.1162              1042.6586              1058.1127
 Red. masses --      1.5018                 1.6813                 1.5895
 Frc consts  --      0.8993                 1.0769                 1.0485
 IR Inten    --      4.2006                 2.3623                13.7457

                     46                     47                     48
                      A                      A                      A
 Frequencies --   1077.9936              1103.2604              1120.3662
 Red. masses --      1.6000                 2.8280                 4.5265
 Frc consts  --      1.0955                 2.0281                 3.3476
 IR Inten    --      4.3661                15.0996                66.2862

                     49                     50                     51
                      A                      A                      A
 Frequencies --   1143.7153              1160.9539              1169.5377
 Red. masses --      2.1379                 2.1762                 1.8039
 Frc consts  --      1.6477                 1.7282                 1.4537
 IR Inten    --     14.1631                 8.4430                25.8633

                     52                     53                     54
                      A                      A                      A
 Frequencies --   1190.4962              1201.5708              1209.3055
 Red. masses --      1.2853                 2.0464                 1.9548
 Frc consts  --      1.0732                 1.7408                 1.6843
 IR Inten    --      2.5723                67.6089                 7.1345

                     55                     56                     57
                      A                      A                      A
 Frequencies --   1215.6473              1226.2631              1252.2788
 Red. masses --      2.0143                 1.6111                 1.3002
 Frc consts  --      1.7539                 1.4274                 1.2013
 IR Inten    --     12.6575                23.2984                 3.7007

                     58                     59                     60
                      A                      A                      A
 Frequencies --   1260.4823              1283.9902              1311.5173
 Red. masses --      1.6012                 1.9514                 1.4550
 Frc consts  --      1.4988                 1.8955                 1.4746
 IR Inten    --      1.9607                24.9950                 6.4436

                     61                     62                     63
                      A                      A                      A
 Frequencies --   1319.3266              1355.8883              1366.1906
 Red. masses --      1.4174                 1.2617                 1.2119
 Frc consts  --      1.4536                 1.3667                 1.3327
 IR Inten    --      6.8885                 6.7547                 7.2533

                     64                     65                     66
                      A                      A                      A
 Frequencies --   1391.5296              1398.8492              1408.8922
 Red. masses --      1.3613                 1.4363                 1.3767
 Frc consts  --      1.5531                 1.6559                 1.6101
 IR Inten    --      5.2574                 3.3701                10.6217

                     67                     68                     69
                      A                      A                      A
 Frequencies --   1414.1609              1418.9284              1424.4591
 Red. masses --      1.3906                 1.3223                 1.2733
 Frc consts  --      1.6385                 1.5686                 1.5222
 IR Inten    --     12.3221                 0.8694                14.7987

                     70                     71                     72
                      A                      A                      A
 Frequencies --   1429.1968              1435.3116              1443.4685
 Red. masses --      1.3095                 1.3495                 1.2453
 Frc consts  --      1.5759                 1.6380                 1.5288
 IR Inten    --      5.8109                 6.8343                 8.1709

                     73                     74                     75
                      A                      A                      A
 Frequencies --   1448.0700              1499.0717              1500.1322
 Red. masses --      1.2485                 1.1050                 1.1036
 Frc consts  --      1.5425                 1.4630                 1.4632
 IR Inten    --      5.0760                 2.1357                 0.9368

                     76                     77                     78
                      A                      A                      A
 Frequencies --   1505.9361              1509.7994              1513.5215
 Red. masses --      1.0815                 1.0658                 1.0629
 Frc consts  --      1.4451                 1.4314                 1.4346
 IR Inten    --      0.7001                 4.5725                 4.2247

                     79                     80                     81
                      A                      A                      A
 Frequencies --   1516.1988              1519.8527              1523.8459
 Red. masses --      1.0647                 1.0613                 1.0499
 Frc consts  --      1.4421                 1.4444                 1.4365
 IR Inten    --      0.8471                 2.9070                 4.4643

                     82                     83                     84
                      A                      A                      A
 Frequencies --   1526.3366              1529.7634              1534.0622
 Red. masses --      1.0894                 1.0707                 1.0572
 Frc consts  --      1.4954                 1.4763                 1.4659
 IR Inten    --      7.0487                 7.3884                 0.7863

                     85                     86                     87
                      A                      A                      A
 Frequencies --   1538.1554              1542.0881              1543.1108
 Red. masses --      1.0547                 1.0531                 1.0750
 Frc consts  --      1.4703                 1.4755                 1.5082
 IR Inten    --      0.7816                 7.0400                 0.8016

                     88                     89                     90
                      A                      A                      A
 Frequencies --   1545.2340              1548.7377              1552.7322
 Red. masses --      1.0686                 1.0782                 1.1341
 Frc consts  --      1.5034                 1.5238                 1.6110
 IR Inten    --     13.9268                 8.1918                36.7052

                     91                     92                     93
                      A                      A                      A
 Frequencies --   2947.6843              3018.2956              3025.2354
 Red. masses --      1.0719                 1.0617                 1.0357
 Frc consts  --      5.4872                 5.6985                 5.5850
 IR Inten    --     58.6621                21.5004                48.6701

                     94                     95                     96
                      A                      A                      A
 Frequencies --   3032.0327              3035.1257              3036.5088
 Red. masses --      1.0362                 1.0626                 1.0586
 Frc consts  --      5.6124                 5.7675                 5.7508
 IR Inten    --     38.0613                20.3708                 3.9714

                     97                     98                     99
                      A                      A                      A
 Frequencies --   3039.6084              3045.4910              3045.9676
 Red. masses --      1.0619                 1.0801                 1.0598
 Frc consts  --      5.7805                 5.9024                 5.7932
 IR Inten    --     46.2347                 0.7105                31.4202

                    100                    101                    102
                      A                      A                      A
 Frequencies --   3050.7054              3055.2717              3060.7629
 Red. masses --      1.0776                 1.0382                 1.0886
 Frc consts  --      5.9091                 5.7098                 6.0087
 IR Inten    --     54.2232                 9.1897                58.8452

                    103                    104                    105
                      A                      A                      A
 Frequencies --   3064.5886              3073.2403              3078.5643
 Red. masses --      1.0384                 1.1031                 1.1020
 Frc consts  --      5.7461                 6.1384                 6.1534
 IR Inten    --     14.2970                32.6248                50.7626

                    106                    107                    108
                      A                      A                      A
 Frequencies --   3085.3091              3090.4784              3093.9397
 Red. masses --      1.1033                 1.0995                 1.1010
 Frc consts  --      6.1878                 6.1870                 6.2098
 IR Inten    --     41.4585                61.9471                24.6787

                    109                    110                    111
                      A                      A                      A
 Frequencies --   3099.8695              3104.6438              3118.2637
 Red. masses --      1.1012                 1.1011                 1.0999
 Frc consts  --      6.2346                 6.2531                 6.3013
 IR Inten    --     59.3319                69.2542                36.3897

                    112                    113                    114
                      A                      A                      A
 Frequencies --   3122.2167              3128.3545              3131.9017
 Red. masses --      1.1019                 1.1010                 1.1032
 Frc consts  --      6.3290                 6.3484                 6.3753
 IR Inten    --      1.4557                60.4419                27.0432

                    115                    116                    117
                      A                      A                      A
 Frequencies --   3139.0636              3151.9238              3521.5868
 Red. masses --      1.1021                 1.0975                 1.0721
 Frc consts  --      6.3987                 6.4242                 7.8334
 IR Inten    --     22.7670                18.8523                13.7737

 - Thermochemistry -
 -------------------
 Temperature   298.150 Kelvin.  Pressure   1.00000 Atm.
 Atom     1 has atomic number  6 and mass  12.00000

 Molecular mass:   201.20926 amu.
 Principal axes and moments of inertia in atomic units:
                           1         2         3
     Eigenvalues --  2087.727194268.153695329.79113
           X            0.99999   0.00409  -0.00224
           Y           -0.00406   0.99990   0.01349
           Z            0.00230  -0.01348   0.99991
 This molecule is an asymmetric top.
 Rotational symmetry number  1.
 Warning -- assumption of classical behavior for rotation
           may cause significant error
 Rotational temperatures (Kelvin)      0.04149     0.02029     0.01625
 Rotational constants (GHZ):           0.86445     0.42284     0.33861
 Zero-point vibrational energy    1009261.6 (Joules/Mol)
                                  241.21932 (Kcal/Mol)
 Warning -- explicit consideration of  28 degrees of freedom as
           vibrations may cause significant error
 Vibrational temperatures:     28.55    54.39    89.22    96.22   103.12
          (Kelvin)            131.26   235.55   246.63   263.75   288.51
                              324.33   339.63   369.26   386.98   392.03
                              403.44   452.06   473.72   503.59   540.85
                              548.04   572.51   614.45   634.01   679.49
                              696.53   786.67   818.20  1022.29  1070.88
                             1168.24  1187.78  1216.02  1241.57  1286.24
                             1315.49  1345.35  1358.86  1383.30  1398.68
                             1413.50  1437.68  1450.45  1500.15  1522.39
                             1550.99  1587.35  1611.96  1645.55  1670.35
                             1682.70  1712.86  1728.79  1739.92  1749.05
                             1764.32  1801.75  1813.55  1847.38  1886.98
                             1898.22  1950.82  1965.64  2002.10  2012.63
                             2027.08  2034.66  2041.52  2049.48  2056.30
                             2065.09  2076.83  2083.45  2156.83  2158.36
                             2166.71  2172.26  2177.62  2181.47  2186.73
                             2192.47  2196.06  2200.99  2207.17  2213.06
                             2218.72  2220.19  2223.25  2228.29  2234.04
                             4241.06  4342.65  4352.64  4362.42  4366.87
                             4368.86  4373.32  4381.78  4382.47  4389.28
                             4395.85  4403.76  4409.26  4421.71  4429.37
                             4439.07  4446.51  4451.49  4460.02  4466.89
                             4486.49  4492.17  4501.00  4506.11  4516.41
                             4534.92  5066.78

 Zero-point correction=                           0.384407 (Hartree/Particle)
 Thermal correction to Energy=                    0.402293
 Thermal correction to Enthalpy=                  0.403237
 Thermal correction to Gibbs Free Energy=         0.338411
 Sum of electronic and zero-point Energies=           -603.189505
 Sum of electronic and thermal Energies=              -603.171619
 Sum of electronic and thermal Enthalpies=            -603.170675
 Sum of electronic and thermal Free Energies=         -603.235502

                     E (Thermal)             CV                S
                      KCal/Mol        Cal/Mol-Kelvin    Cal/Mol-Kelvin
 Total                  252.443             66.895            136.440
 Electronic               0.000              0.000              0.000
 Translational            0.889              2.981             41.802
 Rotational               0.889              2.981             32.229
 Vibrational            250.665             60.933             62.408
 Vibration     1          0.593              1.986              6.650
 Vibration     2          0.594              1.982              5.371
 Vibration     3          0.597              1.972              4.392
 Vibration     4          0.598              1.970              4.243
 Vibration     5          0.598              1.968              4.107
 Vibration     6          0.602              1.955              3.634
 Vibration     7          0.623              1.887              2.506
 Vibration     8          0.626              1.878              2.420
 Vibration     9          0.631              1.863              2.294
 Vibration    10          0.638              1.839              2.128
 Vibration    11          0.650              1.802              1.915
 Vibration    12          0.655              1.786              1.832
 Vibration    13          0.666              1.752              1.684
 Vibration    14          0.673              1.730              1.603
 Vibration    15          0.675              1.724              1.580
 Vibration    16          0.680              1.710              1.531
 Vibration    17          0.702              1.647              1.340
 Vibration    18          0.712              1.617              1.264
 Vibration    19          0.727              1.575              1.166
 Vibration    20          0.747              1.521              1.056
 Vibration    21          0.751              1.511              1.036
 Vibration    22          0.764              1.475              0.970
 Vibration    23          0.789              1.411              0.868
 Vibration    24          0.801              1.381              0.825
 Vibration    25          0.829              1.312              0.731
 Vibration    26          0.840              1.285              0.699
 Vibration    27          0.902              1.147              0.551
 Vibration    28          0.925              1.099              0.507

                           ! Non-Optimized Parameters !
 Normal termination of Gaussian 16 at Thu Dec 10 10:11:19 2020.

 ----------------------------------------------------------------------
 # B3LYP/6-311++G(d,p) empiricaldispersion=gd3bj scf=xqc pop=npa geom=c
 heck
 ----------------------------------------------------------------------

 ---------------------------------------
 CID_103033199_JID_4473_Energie_neutraal
 ---------------------------------------
 Structure from the checkpoint file:  "JID_4473.chk"
 Charge =  0 Multiplicity = 1

 SCF Done:  E(RB3LYP) =  -603.748896874     A.U. after   13 cycles
 Normal termination of Gaussian 16 at Thu Dec 10 10:18:12 2020.

 ----------------------------------------------------------------------
 # B3LYP/6-311++G(d,p) empiricaldispersion=gd3bj scf=xqc pop=npa geom=c
 heck
 ----------------------------------------------------------------------

 -------------------------------------
 CID_103033199_JID_4473_Energie_kation
 -------------------------------------
 Structure from the checkpoint file:  "JID_4473.chk"
 Charge =  1 Multiplicity = 2

 SCF Done:  E(UB3LYP) =  -603.461621477     A.U. after   18 cycles
 Normal termination of Gaussian 16 at Thu Dec 10 10:31:02 2020.
 Gaussian 16:  ES64L-G16RevA.03 25-Dec-2016

 ----------------------------------------------------------------------
 # B3LYP/6-311++G(d,p) empiricaldispersion=gd3bj scf=xqc pop=npa geom=c
 heck
 ----------------------------------------------------------------------

 ------------------------------------
 CID_103033199_JID_4473_Energie_anion
 ------------------------------------
 Structure from the checkpoint file:  "JID_4473.chk"
 Charge = -1 Multiplicity = 2

                         Standard orientation:
 ---------------------------------------------------------------------
 Center     Atomic      Atomic             Coordinates (Angstroms)
 Number     Number       Type             X           Y           Z
 ---------------------------------------------------------------------
      1          6           0       -3.188893   -0.728233    1.465776
      2          6           0       -2.386578   -0.835063    0.163097
      3          6           0       -2.679664   -2.169396   -0.535176
      4          6           0       -2.673545    0.332478   -0.798973
      5          6           0       -2.428215    1.744019   -0.242389
      6          6           0       -1.022162    1.978325    0.316072
      7          7           0       -0.001142    1.799707   -0.712570
      8          6           0        1.356567    2.086983   -0.253619
      9          6           0        1.968879    1.113372    0.774874
     10          6           0        2.362814   -0.282698    0.254112
     11          6           0        3.423706   -0.191443   -0.852297
     12          6           0        2.883222   -1.124814    1.427727
     13          8           0        1.133877   -0.848934   -0.258848
     14          6           0        1.200233   -2.134258   -0.847808
     15          1           0       -4.266617   -0.691200    1.258075
     16          1           0       -2.927889    0.169974    2.034852
     17          1           0       -3.004529   -1.595002    2.111559
     18          1           0       -1.318117   -0.817080    0.415803
     19          1           0       -3.747992   -2.260648   -0.771338
     20          1           0       -2.127565   -2.256519   -1.479037
     21          1           0       -2.405128   -3.021504    0.098079
     22          1           0       -2.067677    0.195273   -1.705248
     23          1           0       -3.720730    0.265875   -1.129158
     24          1           0       -2.607610    2.470875   -1.043885
     25          1           0       -3.155123    1.960327    0.550950
     26          1           0       -0.952760    3.013523    0.676946
     27          1           0       -0.871436    1.333013    1.201223
     28          1           0       -0.013289    0.829481   -1.018478
     29          1           0        2.007319    2.147904   -1.134700
     30          1           0        1.350881    3.092214    0.187750
     31          1           0        2.873238    1.571067    1.197169
     32          1           0        1.271021    0.978062    1.609681
     33          1           0        4.277360    0.400858   -0.506478
     34          1           0        3.801913   -1.180087   -1.131042
     35          1           0        3.017437    0.283845   -1.749780
     36          1           0        2.098227   -1.246756    2.181162
     37          1           0        3.214017   -2.117779    1.106560
     38          1           0        3.740103   -0.630721    1.897637
     39          1           0        1.824638   -2.148009   -1.751104
     40          1           0        1.572496   -2.896339   -0.150475
     41          1           0        0.176598   -2.392757   -1.126322
 ---------------------------------------------------------------------

 SCF Done:  E(UB3LYP) =  -603.734587750     A.U. after   27 cycles

 The electronic state is 2-A.
 Alpha  occ. eigenvalues --  -19.02432 -14.18682 -10.13173 -10.10745 -10.08999
 Alpha  occ. eigenvalues --  -10.08918 -10.07301 -10.06878 -10.06779 -10.06428
 Alpha  occ. eigenvalues --  -10.06186 -10.06174 -10.05926 -10.05647  -0.93387
 Alpha  occ. eigenvalues --   -0.80224  -0.71853  -0.70414  -0.66032  -0.61665
 Alpha  occ. eigenvalues --   -0.59512  -0.59019  -0.58748  -0.57172  -0.51925
 Alpha  occ. eigenvalues --   -0.49531  -0.45276  -0.45160  -0.39356  -0.39045
 Alpha  occ. eigenvalues --   -0.38052  -0.37014  -0.36705  -0.35418  -0.33881
 Alpha  occ. eigenvalues --   -0.33588  -0.32615  -0.32417  -0.30701  -0.30145
 Alpha  occ. eigenvalues --   -0.29732  -0.29068  -0.28615  -0.28093  -0.27605
 Alpha  occ. eigenvalues --   -0.26886  -0.26294  -0.25569  -0.24905  -0.24380
 Alpha  occ. eigenvalues --   -0.23348  -0.22514  -0.22242  -0.21557  -0.20243
 Alpha  occ. eigenvalues --   -0.16473  -0.12078   0.04366
 Alpha virt. eigenvalues --    0.06346   0.06783   0.07482   0.08208   0.08438
 Alpha virt. eigenvalues --    0.08696   0.09598   0.09751   0.10524   0.10565
 Alpha virt. eigenvalues --    0.11058   0.11232   0.11685   0.12637   0.12815

  Beta  occ. eigenvalues --  -19.02427 -14.18680 -10.13170 -10.10707 -10.08991
  Beta  occ. eigenvalues --  -10.08911 -10.07298 -10.06873 -10.06773 -10.06413
  Beta  occ. eigenvalues --  -10.06166 -10.06152 -10.05888 -10.05609  -0.93379
  Beta  occ. eigenvalues --   -0.80216  -0.71838  -0.70391  -0.66012  -0.61632
  Beta  occ. eigenvalues --   -0.59448  -0.58969  -0.58689  -0.57143  -0.51888
  Beta  occ. eigenvalues --   -0.49499  -0.45249  -0.45098  -0.39329  -0.39012
  Beta  occ. eigenvalues --   -0.38033  -0.36986  -0.36672  -0.35389  -0.33858
  Beta  occ. eigenvalues --   -0.33567  -0.32581  -0.32386  -0.30664  -0.30106
  Beta  occ. eigenvalues --   -0.29708  -0.29044  -0.28583  -0.28061  -0.27583
  Beta  occ. eigenvalues --   -0.26859  -0.26269  -0.25547  -0.24879  -0.24352
  Beta  occ. eigenvalues --   -0.23326  -0.22498  -0.22223  -0.21540  -0.20218
  Beta  occ. eigenvalues --   -0.16455  -0.12070
  Beta virt. eigenvalues --    0.06310   0.07135   0.07299   0.07869   0.08708
  Beta virt. eigenvalues --    0.08807   0.09084   0.09832   0.10181   0.10839
  Beta virt. eigenvalues --    0.10983   0.11311   0.11529   0.12077   0.12713

 Mulliken charges and spin densities:
               1          2
     1  C    0.030612  -0.738495
     2  C   -0.694207   0.974904
     3  C    0.243712  -0.840172
     4  C   -0.125548  -0.089633
     5  C   -0.247716  -0.220091
     6  C   -0.430447  -0.016593
     7  N    0.022295   0.026502
     8  C   -0.239246  -0.357794
     9  C    0.129700   0.037365
    10  C   -2.462912   2.096098
    11  C    1.357851  -1.988005
    12  C    1.335633  -1.698743
    13  O    0.021121  -0.003905
    14  C    0.652863  -0.944946
    15  H   -0.040214   0.179665
    16  H   -0.110793   0.245808
    17  H   -0.110458   0.250665
    18  H    0.948664  -0.700096
    19  H   -0.033680   0.157724
    20  H   -0.087996   0.223952
    21  H   -0.144794   0.293412
    22  H    0.087844   0.064336
    23  H    0.053156   0.094207
    24  H    0.123274   0.038275
    25  H    0.099054   0.035230
    26  H    0.014034   0.111188
    27  H    0.129892  -0.040681
    28  H    0.245348   0.024438
    29  H    0.063070   0.087473
    30  H    0.010459   0.137280
    31  H   -0.212919   0.386423
    32  H    0.062535   0.103709
    33  H   -0.291996   0.455746
    34  H   -0.272824   0.437858
    35  H    0.063907   0.098349
    36  H   -0.253356   0.416120
    37  H   -0.255453   0.409895
    38  H   -0.252231   0.406011
    39  H   -0.460404   0.608148
    40  H   -0.257568   0.402036
    41  H    0.289737  -0.163659
 Sum of Mulliken charges =  -1.00000   1.00000

 Dipole moment (field-independent basis, Debye):
    X=             -4.7699    Y=              3.8010    Z=             -0.8690  Tot=              6.1607
 Quadrupole moment (field-independent basis, Debye-Ang):
   XX=           -170.6481   YY=           -142.3267   ZZ=           -133.8518
   XY=              2.2560   XZ=              0.4160   YZ=              1.8494

 Summary of Natural Population Analysis:

                                       Natural Population
                Natural  -----------------------------------------------
    Atom  No    Charge         Core      Valence    Rydberg      Total
 -----------------------------------------------------------------------
      C    1   -0.28571      0.99965     2.27987    0.00619     3.28571
      C    2   -0.13039      0.99961     2.12120    0.00958     3.13039
      C    3   -0.28160      0.99965     2.27588    0.00607     3.28160
      C    4   -0.18749      0.99961     2.18029    0.00759     3.18749
      C    5   -0.19039      0.99962     2.18252    0.00824     3.19039
      C    6   -0.08863      0.99962     2.07840    0.01061     3.08863
      N    7   -0.34904      0.99974     2.83831    0.01098     3.84904
      C    8   -0.08545      0.99962     2.07344    0.01239     3.08545
      C    9   -0.20460      0.99956     2.19506    0.00999     3.20460
      C   10    0.13873      0.99952     1.84537    0.01638     2.86127
      C   11   -0.30422      0.99960     2.29763    0.00698     3.30422
      C   12   -0.29873      0.99961     2.29221    0.00692     3.29873
      O   13   -0.31977      0.99987     3.30816    0.01174     4.31977
      C   14   -0.09868      0.99958     2.08958    0.00952     3.09868
      H   15    0.09315      0.00000     0.40600    0.00085     0.40685
      H   16    0.09874      0.00000     0.40030    0.00096     0.40126
      H   17    0.10045      0.00000     0.39873    0.00082     0.39955
      H   18    0.10519      0.00000     0.39147    0.00334     0.39481
      H   19    0.09361      0.00000     0.40550    0.00090     0.40639
      H   20    0.09773      0.00000     0.40125    0.00102     0.40227
      H   21    0.10036      0.00000     0.39875    0.00089     0.39964
      H   22    0.09734      0.00000     0.40139    0.00127     0.40266
      H   23    0.09408      0.00000     0.40492    0.00099     0.40592
      H   24    0.09763      0.00000     0.40117    0.00120     0.40237
      H   25    0.09437      0.00000     0.40466    0.00097     0.40563
      H   26    0.08840      0.00000     0.41040    0.00120     0.41160
      H   27    0.07970      0.00000     0.41872    0.00158     0.42030
      H   28    0.18293      0.00000     0.31225    0.00482     0.31707
      H   29    0.09257      0.00000     0.40617    0.00126     0.40743
      H   30    0.08962      0.00000     0.40932    0.00106     0.41038
      H   31    0.10196      0.00000     0.39690    0.00114     0.39804
      H   32    0.10088      0.00000     0.39765    0.00147     0.39912
      H   33    0.10549      0.00000     0.39321    0.00131     0.39451
      H   34    0.10429      0.00000     0.39435    0.00136     0.39571
      H   35    0.10243      0.00000     0.39637    0.00120     0.39757
      H   36    0.10399      0.00000     0.39467    0.00134     0.39601
      H   37    0.10238      0.00000     0.39623    0.00140     0.39762
      H   38    0.10442      0.00000     0.39412    0.00146     0.39558
      H   39    0.08085      0.00000     0.41765    0.00150     0.41915
      H   40    0.08236      0.00000     0.41604    0.00160     0.41764
      H   41    0.09105      0.00000     0.40755    0.00140     0.40895
 =======================================================================
   * Total *   -0.00000     13.99488    42.83363    0.17149    57.00000

 Normal termination of Gaussian 16 at Thu Dec 10 10:51:39 2020.
