 Gaussian 16, Revision A.03,

 -----------------------------------------------------------
 # opt freq B3LYP/6-31G(d) empiricaldispersion=gd3bj scf=xqc
 -----------------------------------------------------------

 -------------------------------
 CID_118013512_JID_1481_neutraal
 -------------------------------
 Symbolic Z-matrix:
 Charge =  0 Multiplicity = 1

 SCF Done:  E(RB3LYP) =  -504.247986386     A.U. after   13 cycles
 SCF Done:  E(RB3LYP) =  -504.250392191     A.U. after   11 cycles
 SCF Done:  E(RB3LYP) =  -504.250643097     A.U. after   11 cycles
 SCF Done:  E(RB3LYP) =  -504.250787172     A.U. after   11 cycles
 SCF Done:  E(RB3LYP) =  -504.250903216     A.U. after   10 cycles
 SCF Done:  E(RB3LYP) =  -504.251020732     A.U. after   11 cycles
 SCF Done:  E(RB3LYP) =  -504.251088013     A.U. after   10 cycles
 SCF Done:  E(RB3LYP) =  -504.251281094     A.U. after   11 cycles
 SCF Done:  E(RB3LYP) =  -504.251413477     A.U. after   11 cycles
 SCF Done:  E(RB3LYP) =  -504.251778788     A.U. after   11 cycles
 SCF Done:  E(RB3LYP) =  -504.251510686     A.U. after   11 cycles
 SCF Done:  E(RB3LYP) =  -504.252674807     A.U. after   10 cycles
 SCF Done:  E(RB3LYP) =  -504.252730018     A.U. after   10 cycles
 SCF Done:  E(RB3LYP) =  -504.252736696     A.U. after    9 cycles
 SCF Done:  E(RB3LYP) =  -504.252738561     A.U. after    7 cycles
 SCF Done:  E(RB3LYP) =  -504.252738814     A.U. after    7 cycles
 Optimization completed.
    -- Stationary point found.

 1\1\GINC-NODE103\FOpt\RB3LYP\6-31G(d)\C9H18O2\VSC10255\08-Dec-2020\0\\
 # opt freq B3LYP/6-31G(d) empiricaldispersion=gd3bj scf=xqc\\CID_11801
 3512_JID_1481_neutraal\\0,1\C,1.2982526106,-0.0631906897,-0.533976794\
 C,0.2701345182,0.7629830463,-1.2695975471\C,-0.7263572637,0.2864457846
 ,-2.0290389158\C,-1.1359002896,-1.1506748105,-2.338487106\C,-2.4966059
 699,-1.1084941333,-3.0624373643\C,-0.1072505566,-1.8127343682,-3.28070
 47462\C,-1.3048446285,-1.9943147641,-1.0584463865\C,0.3908880441,2.275
 0077292,-1.1009448131\C,-0.0549699819,2.7680708432,0.2907164287\O,0.97

 Normal termination of Gaussian 16 at Tue Dec  8 20:12:59 2020.

 --------------------------------------------------------------------
 #N Geom=AllCheck Guess=TCheck SCRF=Check GenChk RB3LYP/6-31G(d) Freq
 --------------------------------------------------------------------

 Structure from the checkpoint file:  "JID_1481.chk"
 -------------------------------
 CID_118013512_JID_1481_neutraal
 -------------------------------
 Charge =  0 Multiplicity = 1

 SCF Done:  E(RB3LYP) =  -504.252738814     A.U. after    1 cycles

  Exact polarizability: 126.895   4.249  96.035   2.087   1.472  84.973
 Approx polarizability: 163.283  11.416 141.307   6.128   1.719 122.006

                      1                      2                      3
                      A                      A                      A
 Frequencies --     29.1525                64.9725               115.0789
 Red. masses --      3.9798                 3.0959                 2.5594
 Frc consts  --      0.0020                 0.0077                 0.0200
 IR Inten    --      1.0105                 0.4142                 0.6757

                      4                      5                      6
                      A                      A                      A
 Frequencies --    119.8188               170.3385               209.9314
 Red. masses --      2.6714                 3.1965                 1.4327
 Frc consts  --      0.0226                 0.0546                 0.0372
 IR Inten    --      1.6665                 1.2945                 0.0668

                      7                      8                      9
                      A                      A                      A
 Frequencies --    221.5113               246.5899               254.7982
 Red. masses --      1.4510                 1.2658                 1.1453
 Frc consts  --      0.0419                 0.0453                 0.0438
 IR Inten    --      0.5432                 0.9197                 0.6500

                     10                     11                     12
                      A                      A                      A
 Frequencies --    260.1077               292.7714               302.9805
 Red. masses --      3.0065                 1.2527                 2.8467
 Frc consts  --      0.1198                 0.0633                 0.1540
 IR Inten    --      2.1181                 0.4603                 4.1426

                     13                     14                     15
                      A                      A                      A
 Frequencies --    316.1822               322.0140               371.7062
 Red. masses --      2.9700                 2.9062                 1.4479
 Frc consts  --      0.1749                 0.1775                 0.1179
 IR Inten    --      5.1894                 3.7357                53.8536

                     16                     17                     18
                      A                      A                      A
 Frequencies --    375.6090               402.6348               455.2147
 Red. masses --      1.7223                 2.1520                 2.3981
 Frc consts  --      0.1432                 0.2055                 0.2928
 IR Inten    --     26.3870                10.7898                 3.4922

                     19                     20                     21
                      A                      A                      A
 Frequencies --    493.0626               539.3230               572.3134
 Red. masses --      2.5740                 2.2884                 1.1982
 Frc consts  --      0.3687                 0.3922                 0.2312
 IR Inten    --      2.3687                 5.4104                95.6222

                     22                     23                     24
                      A                      A                      A
 Frequencies --    608.6176               743.2413               764.5013
 Red. masses --      2.4046                 3.4120                 3.6907
 Frc consts  --      0.5248                 1.1105                 1.2709
 IR Inten    --     75.3023                 7.8066                 3.9919

                     25                     26                     27
                      A                      A                      A
 Frequencies --    803.0050               878.5903               900.5465
 Red. masses --      3.6599                 1.8701                 2.1174
 Frc consts  --      1.3904                 0.8505                 1.0117
 IR Inten    --      2.9652                 4.0277                25.2639

                     28                     29                     30
                      A                      A                      A
 Frequencies --    943.3363               944.6147               952.1712
 Red. masses --      1.7577                 1.7416                 1.7903
 Frc consts  --      0.9215                 0.9156                 0.9563
 IR Inten    --      1.1051                 0.8841                17.4923

                     31                     32                     33
                      A                      A                      A
 Frequencies --    973.1928               978.6357              1051.6464
 Red. masses --      1.2035                 2.3236                 1.4911
 Frc consts  --      0.6716                 1.3111                 0.9716
 IR Inten    --      0.4203                11.9212                55.5205

                     34                     35                     36
                      A                      A                      A
 Frequencies --   1061.7526              1065.7645              1070.1523
 Red. masses --      1.4270                 1.5605                 1.5443
 Frc consts  --      0.9478                 1.0444                 1.0420
 IR Inten    --      4.4210                10.8666                 0.0905

                     37                     38                     39
                      A                      A                      A
 Frequencies --   1081.7981              1106.8989              1181.3296
 Red. masses --      2.7786                 3.1175                 1.6599
 Frc consts  --      1.9159                 2.2505                 1.3648
 IR Inten    --     22.1070               113.2454                 7.2408

                     40                     41                     42
                      A                      A                      A
 Frequencies --   1222.4438              1244.2519              1259.6177
 Red. masses --      1.3522                 2.6775                 1.5430
 Frc consts  --      1.1906                 2.4423                 1.4424
 IR Inten    --     30.4939                 7.1040                21.8501

                     43                     44                     45
                      A                      A                      A
 Frequencies --   1271.6241              1297.7751              1371.9280
 Red. masses --      2.1581                 2.9042                 1.4593
 Frc consts  --      2.0561                 2.8819                 1.6183
 IR Inten    --      8.8228                 3.0847                 5.8375

                     46                     47                     48
                      A                      A                      A
 Frequencies --   1391.8846              1412.8348              1425.0856
 Red. masses --      1.2985                 1.1958                 1.1917
 Frc consts  --      1.4821                 1.4063                 1.4259
 IR Inten    --      2.8291                 3.0919                33.0936

                     49                     50                     51
                      A                      A                      A
 Frequencies --   1426.5263              1427.8095              1446.5461
 Red. masses --      1.2152                 1.2374                 1.2835
 Frc consts  --      1.4570                 1.4863                 1.5824
 IR Inten    --      8.0529                14.0473                67.7069

                     52                     53                     54
                      A                      A                      A
 Frequencies --   1451.0863              1463.7920              1507.5652
 Red. masses --      1.2377                 1.2580                 1.0510
 Frc consts  --      1.5355                 1.5882                 1.4073
 IR Inten    --     29.4767                 0.5809                 1.1356

                     55                     56                     57
                      A                      A                      A
 Frequencies --   1515.5785              1516.0868              1521.0686
 Red. masses --      1.0497                 1.0494                 1.0642
 Frc consts  --      1.4206                 1.4211                 1.4506
 IR Inten    --      0.0781                 0.6017                 1.0704

                     58                     59                     60
                      A                      A                      A
 Frequencies --   1523.9696              1530.1442              1537.3667
 Red. masses --      1.0687                 1.0512                 1.0552
 Frc consts  --      1.4624                 1.4501                 1.4694
 IR Inten    --      4.9851                 1.5803                 4.5627

                     61                     62                     63
                      A                      A                      A
 Frequencies --   1545.4395              1551.0048              1737.8172
 Red. masses --      1.0515                 1.0612                 7.4867
 Frc consts  --      1.4797                 1.5041                13.3214
 IR Inten    --     14.2538                 7.0609                 0.8639

                     64                     65                     66
                      A                      A                      A
 Frequencies --   3009.8537              3040.2089              3045.1752
 Red. masses --      1.0590                 1.0348                 1.0379
 Frc consts  --      5.6526                 5.6355                 5.6706
 IR Inten    --     41.7789                24.4403                25.6697

                     67                     68                     69
                      A                      A                      A
 Frequencies --   3046.5477              3051.7453              3058.4381
 Red. masses --      1.0673                 1.0390                 1.0822
 Frc consts  --      5.8364                 5.7011                 5.9640
 IR Inten    --     22.1998                33.8438                40.6935

                     70                     71                     72
                      A                      A                      A
 Frequencies --   3106.5211              3108.8491              3110.3568
 Red. masses --      1.1022                 1.1012                 1.0938
 Frc consts  --      6.2672                 6.2704                 6.2345
 IR Inten    --      1.7252                15.5423                15.0036

                     73                     74                     75
                      A                      A                      A
 Frequencies --   3111.8471              3116.4172              3118.8892
 Red. masses --      1.0857                 1.0998                 1.1031
 Frc consts  --      6.1943                 6.2934                 6.3220
 IR Inten    --     35.0203                68.1523                19.4491

                     76                     77                     78
                      A                      A                      A
 Frequencies --   3122.0981              3130.0727              3142.1626
 Red. masses --      1.0888                 1.1011                 1.0986
 Frc consts  --      6.2533                 6.3559                 6.3909
 IR Inten    --     54.6385                33.3409                33.5367

                     79                     80                     81
                      A                      A                      A
 Frequencies --   3165.0929              3660.1539              3757.4170
 Red. masses --      1.0962                 1.0652                 1.0658
 Frc consts  --      6.4699                 8.4075                 8.8656
 IR Inten    --     14.6563                63.3390                17.8239

 - Thermochemistry -
 -------------------
 Temperature   298.150 Kelvin.  Pressure   1.00000 Atm.
 Atom     1 has atomic number  6 and mass  12.00000

 Molecular mass:   158.13068 amu.
 Principal axes and moments of inertia in atomic units:
                           1         2         3
     Eigenvalues --   906.098183416.514373443.58535
           X            1.00000  -0.00273  -0.00041
           Y           -0.00125  -0.58004   0.81458
           Z            0.00246   0.81458   0.58005
 This molecule is an asymmetric top.
 Rotational symmetry number  1.
 Warning -- assumption of classical behavior for rotation
           may cause significant error
 Rotational temperatures (Kelvin)      0.09559     0.02535     0.02515
 Rotational constants (GHZ):           1.99177     0.52824     0.52409
 Zero-point vibrational energy     686339.5 (Joules/Mol)
                                  164.03907 (Kcal/Mol)
 Warning -- explicit consideration of  22 degrees of freedom as
           vibrations may cause significant error
 Vibrational temperatures:     41.94    93.48   165.57   172.39   245.08
          (Kelvin)            302.04   318.71   354.79   366.60   374.24
                              421.23   435.92   454.92   463.31   534.80
                              540.42   579.30   654.95   709.41   775.97
                              823.43   875.67  1069.36  1099.95  1155.35
                             1264.10  1295.69  1357.25  1359.09  1369.96
                             1400.21  1408.04  1513.08  1527.63  1533.40
                             1539.71  1556.47  1592.58  1699.67  1758.82
                             1790.20  1812.31  1829.58  1867.21  1973.90
                             2002.61  2032.75  2050.38  2052.45  2054.30
                             2081.26  2087.79  2106.07  2169.05  2180.58
                             2181.31  2188.48  2192.65  2201.54  2211.93
                             2223.54  2231.55  2500.33  4330.51  4374.18
                             4381.33  4383.30  4390.78  4400.41  4469.59
                             4472.94  4475.11  4477.25  4483.83  4487.39
                             4492.00  4503.48  4520.87  4553.86  5266.15
                             5406.09

 Zero-point correction=                           0.261413 (Hartree/Particle)
 Thermal correction to Energy=                    0.275038
 Thermal correction to Enthalpy=                  0.275982
 Thermal correction to Gibbs Free Energy=         0.221920
 Sum of electronic and zero-point Energies=           -503.991326
 Sum of electronic and thermal Energies=              -503.977701
 Sum of electronic and thermal Enthalpies=            -503.976757
 Sum of electronic and thermal Free Energies=         -504.030819

                     E (Thermal)             CV                S
                      KCal/Mol        Cal/Mol-Kelvin    Cal/Mol-Kelvin
 Total                  172.589             51.277            113.783
 Electronic               0.000              0.000              0.000
 Translational            0.889              2.981             41.084
 Rotational               0.889              2.981             30.745
 Vibrational            170.811             45.316             41.954
 Vibration     1          0.593              1.984              5.886
 Vibration     2          0.597              1.971              4.300
 Vibration     3          0.608              1.937              3.181
 Vibration     4          0.609              1.933              3.103
 Vibration     5          0.625              1.879              2.432
 Vibration     6          0.642              1.826              2.044
 Vibration     7          0.648              1.808              1.947
 Vibration     8          0.661              1.768              1.755
 Vibration     9          0.665              1.755              1.697
 Vibration    10          0.668              1.746              1.661
 Vibration    11          0.688              1.687              1.458
 Vibration    12          0.694              1.668              1.400
 Vibration    13          0.703              1.643              1.330
 Vibration    14          0.707              1.631              1.300
 Vibration    15          0.743              1.530              1.073
 Vibration    16          0.746              1.522              1.057
 Vibration    17          0.768              1.464              0.953
 Vibration    18          0.814              1.349              0.780
 Vibration    19          0.849              1.265              0.676
 Vibration    20          0.894              1.163              0.567
 Vibration    21          0.929              1.091              0.500
 Vibration    22          0.967              1.014              0.435

                           ! Non-Optimized Parameters !

 1\1\GINC-NODE103\Freq\RB3LYP\6-31G(d)\C9H18O2\VSC10255\08-Dec-2020\0\\
 #N Geom=AllCheck Guess=TCheck SCRF=Check GenChk RB3LYP/6-31G(d) Freq\\
 CID_118013512_JID_1481_neutraal\\0,1\C,1.2982526106,-0.0631906897,-0.5
 33976794\C,0.2701345182,0.7629830463,-1.2695975471\C,-0.7263572637,0.2
 864457846,-2.0290389158\C,-1.1359002896,-1.1506748105,-2.338487106\C,-
 2.4966059699,-1.1084941333,-3.0624373643\C,-0.1072505566,-1.8127343682
 ,-3.2807047462\C,-1.3048446285,-1.9943147641,-1.0584463865\C,0.3908880
 441,2.2750077292,-1.1009448131\C,-0.0549699819,2.7680708432,0.29071642

 Normal termination of Gaussian 16 at Tue Dec  8 20:19:39 2020.

 ----------------------------------------------------------------------
 # B3LYP/6-311++G(d,p) empiricaldispersion=gd3bj scf=xqc pop=npa geom=c
 heck
 ----------------------------------------------------------------------

 ---------------------------------------
 CID_118013512_JID_1481_Energie_neutraal
 ---------------------------------------
 Structure from the checkpoint file:  "JID_1481.chk"
 Charge =  0 Multiplicity = 1

 SCF Done:  E(RB3LYP) =  -504.417153057     A.U. after   13 cycles
 Normal termination of Gaussian 16 at Tue Dec  8 20:22:39 2020.

 ----------------------------------------------------------------------
 # B3LYP/6-311++G(d,p) empiricaldispersion=gd3bj scf=xqc pop=npa geom=c
 heck
 ----------------------------------------------------------------------

 -------------------------------------
 CID_118013512_JID_1481_Energie_kation
 -------------------------------------
 Structure from the checkpoint file:  "JID_1481.chk"
 Charge =  1 Multiplicity = 2

 SCF Done:  E(UB3LYP) =  -504.097193731     A.U. after   22 cycles
 Normal termination of Gaussian 16 at Tue Dec  8 20:30:38 2020.
 Gaussian 16:  ES64L-G16RevA.03 25-Dec-2016

 ------------------------------------
 CID_118013512_JID_1481_Energie_anion
 ------------------------------------
 Structure from the checkpoint file:  "JID_1481.chk"
 Charge = -1 Multiplicity = 2

                         Standard orientation:
 ---------------------------------------------------------------------
 Center     Atomic      Atomic             Coordinates (Angstroms)
 Number     Number       Type             X           Y           Z
 ---------------------------------------------------------------------
      1          6           0        0.563769    1.499160    0.468155
      2          6           0        0.398808    0.010910    0.271615
      3          6           0       -0.757735   -0.631735    0.056555
      4          6           0       -2.178177   -0.093189   -0.088747
      5          6           0       -3.075732   -1.251667   -0.568046
      6          6           0       -2.709955    0.398063    1.275107
      7          6           0       -2.265630    1.038703   -1.132753
      8          6           0        1.685340   -0.809250    0.309237
      9          6           0        2.554753   -0.632856   -0.952360
     10          8           0        3.314538    0.578575   -0.893265
     11          8           0        2.484186   -0.513219    1.448643
     12          1           0       -0.333877    1.973728    0.865754
     13          1           0        0.800995    2.019963   -0.472547
     14          1           0        1.377877    1.686764    1.174208
     15          1           0       -0.689585   -1.718175   -0.023628
     16          1           0       -3.059931   -2.083155    0.146406
     17          1           0       -4.114328   -0.919667   -0.677169
     18          1           0       -2.738880   -1.634511   -1.538799
     19          1           0       -2.120888    1.232040    1.667819
     20          1           0       -3.749767    0.735207    1.180885
     21          1           0       -2.678879   -0.407739    2.016260
     22          1           0       -1.707934    1.928436   -0.830650
     23          1           0       -1.869943    0.705450   -2.098803
     24          1           0       -3.310752    1.337126   -1.279849
     25          1           0        1.408073   -1.868772    0.370475
     26          1           0        3.300556   -1.432271   -0.989173
     27          1           0        1.940041   -0.682873   -1.860384
     28          1           0        2.709817    1.318621   -1.055778
     29          1           0        3.154972    0.118140    1.129369
 ---------------------------------------------------------------------

 SCF Done:  E(UB3LYP) =  -504.405542289     A.U. after   31 cycles

 The electronic state is 2-A.
 Alpha  occ. eigenvalues --  -19.03243 -19.01610 -10.12047 -10.11898 -10.08486
 Alpha  occ. eigenvalues --  -10.07191 -10.05964 -10.05835 -10.05624 -10.05554
 Alpha  occ. eigenvalues --  -10.04866  -0.94208  -0.91076  -0.72957  -0.68604
 Alpha  occ. eigenvalues --   -0.62447  -0.58799  -0.58254  -0.57825  -0.53148
 Alpha  occ. eigenvalues --   -0.46339  -0.42312  -0.41638  -0.39144  -0.37460
 Alpha  occ. eigenvalues --   -0.36620  -0.33633  -0.33574  -0.32894  -0.31755
 Alpha  occ. eigenvalues --   -0.30621  -0.28752  -0.28250  -0.27570  -0.26263
 Alpha  occ. eigenvalues --   -0.26102  -0.24996  -0.24245  -0.23256  -0.22292
 Alpha  occ. eigenvalues --   -0.21768  -0.19998  -0.17057  -0.13836   0.04514
 Alpha virt. eigenvalues --    0.06943   0.07690   0.08264   0.09181   0.09585
 Alpha virt. eigenvalues --    0.10093   0.10479   0.11011   0.11247   0.11649
 Alpha virt. eigenvalues --    0.12410   0.12892   0.13446   0.13821   0.14726

  Beta  occ. eigenvalues --  -19.03199 -19.01596 -10.12043 -10.11872 -10.08484
  Beta  occ. eigenvalues --  -10.07188 -10.05957 -10.05773 -10.05599 -10.05525
  Beta  occ. eigenvalues --  -10.04829  -0.94139  -0.91019  -0.72937  -0.68569
  Beta  occ. eigenvalues --   -0.62371  -0.58736  -0.58195  -0.57758  -0.53094
  Beta  occ. eigenvalues --   -0.46289  -0.42263  -0.41560  -0.39083  -0.37429
  Beta  occ. eigenvalues --   -0.36578  -0.33596  -0.33525  -0.32856  -0.31705
  Beta  occ. eigenvalues --   -0.30572  -0.28708  -0.28214  -0.27527  -0.26230
  Beta  occ. eigenvalues --   -0.26064  -0.24954  -0.24215  -0.23222  -0.22262
  Beta  occ. eigenvalues --   -0.21736  -0.19953  -0.17034  -0.13807
  Beta virt. eigenvalues --    0.06833   0.07894   0.08235   0.08771   0.09530
  Beta virt. eigenvalues --    0.10002   0.10579   0.11025   0.11195   0.11612
  Beta virt. eigenvalues --    0.11981   0.12663   0.13240   0.13830   0.14226

 Mulliken charges and spin densities:
               1          2
     1  C    2.283655  -3.082616
     2  C   -0.318124   0.803277
     3  C    0.126100  -0.615981
     4  C   -2.207478   3.015884
     5  C    0.267593  -0.859228
     6  C    0.189732  -0.830768
     7  C    1.044041  -1.671287
     8  C   -0.958869   0.787823
     9  C    0.796223  -1.342284
    10  O   -0.265461   0.008708
    11  O   -0.147338  -0.033457
    12  H    0.095124   0.023024
    13  H   -0.591887   0.780127
    14  H   -0.045470   0.223018
    15  H    0.206636  -0.032923
    16  H   -0.116307   0.237008
    17  H   -0.232109   0.382742
    18  H   -0.165026   0.308266
    19  H   -0.085801   0.201626
    20  H   -0.074837   0.220371
    21  H   -0.072488   0.223944
    22  H   -0.196804   0.338939
    23  H   -0.232669   0.385904
    24  H   -0.147193   0.294154
    25  H   -0.002614   0.202547
    26  H    0.096957   0.097473
    27  H   -0.311072   0.485061
    28  H   -0.141621   0.409493
    29  H    0.207107   0.039156
 Sum of Mulliken charges =  -1.00000   1.00000

 Dipole moment (field-independent basis, Debye):
    X=              0.7253    Y=             -2.8436    Z=              2.4859  Tot=              3.8460
 Quadrupole moment (field-independent basis, Debye-Ang):
   XX=           -131.3748   YY=           -107.5762   ZZ=           -110.2852
   XY=             -4.2892   XZ=             -0.2525   YZ=              5.6431

 Summary of Natural Population Analysis:

                                       Natural Population
                Natural  -----------------------------------------------
    Atom  No    Charge         Core      Valence    Rydberg      Total
 -----------------------------------------------------------------------
      C    1   -0.31085      0.99961     2.30359    0.00765     3.31085
      C    2   -0.01317      0.99946     2.00106    0.01265     3.01317
      C    3   -0.08670      0.99943     2.07543    0.01184     3.08670
      C    4   -0.06722      0.99958     2.05507    0.01257     3.06722
      C    5   -0.27839      0.99964     2.27237    0.00638     3.27839
      C    6   -0.27657      0.99962     2.27112    0.00582     3.27657
      C    7   -0.28116      0.99963     2.27388    0.00764     3.28116
      C    8    0.04450      0.99952     1.94189    0.01410     2.95550
      C    9   -0.02010      0.99958     2.00781    0.01271     3.02010
      O   10   -0.37844      0.99990     3.37132    0.00722     4.37844
      O   11   -0.37485      0.99990     3.36874    0.00621     4.37485
      H   12    0.10605      0.00000     0.39273    0.00122     0.39395
      H   13    0.10481      0.00000     0.39178    0.00340     0.39519
      H   14    0.10701      0.00000     0.39154    0.00145     0.39299
      H   15    0.09293      0.00000     0.40541    0.00166     0.40707
      H   16    0.09718      0.00000     0.40164    0.00119     0.40282
      H   17    0.09879      0.00000     0.40008    0.00114     0.40121
      H   18    0.10104      0.00000     0.39770    0.00125     0.39896
      H   19    0.09964      0.00000     0.39932    0.00103     0.40036
      H   20    0.09711      0.00000     0.40184    0.00105     0.40289
      H   21    0.09907      0.00000     0.39989    0.00104     0.40093
      H   22    0.10215      0.00000     0.39627    0.00158     0.39785
      H   23    0.10334      0.00000     0.39509    0.00157     0.39666
      H   24    0.09687      0.00000     0.40193    0.00120     0.40313
      H   25    0.08840      0.00000     0.40968    0.00192     0.41160
      H   26    0.08599      0.00000     0.41287    0.00114     0.41401
      H   27    0.08939      0.00000     0.40898    0.00163     0.41061
      H   28    0.23853      0.00000     0.25470    0.00677     0.26147
      H   29    0.23465      0.00000     0.26196    0.00339     0.26535
 =======================================================================
   * Total *    0.00000     10.99587    32.86569    0.13844    44.00000

 Normal termination of Gaussian 16 at Tue Dec  8 20:42:02 2020.
