 Gaussian 16, Revision A.03,

 -----------------------------------------------------------
 # opt freq B3LYP/6-31G(d) empiricaldispersion=gd3bj scf=xqc
 -----------------------------------------------------------

 -------------------------------
 CID_147269331_JID_1864_neutraal
 -------------------------------
 Symbolic Z-matrix:
 Charge =  0 Multiplicity = 1

 SCF Done:  E(RB3LYP) =  -876.789292290     A.U. after   15 cycles
 SCF Done:  E(RB3LYP) =  -876.792751320     A.U. after   14 cycles
 SCF Done:  E(RB3LYP) =  -876.788014017     A.U. after   14 cycles
 SCF Done:  E(RB3LYP) =  -876.793440380     A.U. after   13 cycles
 SCF Done:  E(RB3LYP) =  -876.793478726     A.U. after   12 cycles
 SCF Done:  E(RB3LYP) =  -876.793659889     A.U. after   12 cycles
 SCF Done:  E(RB3LYP) =  -876.793740825     A.U. after   13 cycles
 SCF Done:  E(RB3LYP) =  -876.793790420     A.U. after   13 cycles
 SCF Done:  E(RB3LYP) =  -876.793834160     A.U. after   12 cycles
 SCF Done:  E(RB3LYP) =  -876.793860567     A.U. after   12 cycles
 SCF Done:  E(RB3LYP) =  -876.793882198     A.U. after   10 cycles
 SCF Done:  E(RB3LYP) =  -876.793883746     A.U. after   11 cycles
 SCF Done:  E(RB3LYP) =  -876.793885120     A.U. after   12 cycles
 SCF Done:  E(RB3LYP) =  -876.793886256     A.U. after   10 cycles
 SCF Done:  E(RB3LYP) =  -876.793886666     A.U. after    8 cycles
 SCF Done:  E(RB3LYP) =  -876.793886815     A.U. after    8 cycles
 Optimization completed.
    -- Stationary point found.
 Normal termination of Gaussian 16 at Tue Dec  8 21:25:54 2020.

 --------------------------------------------------------------------
 #N Geom=AllCheck Guess=TCheck SCRF=Check GenChk RB3LYP/6-31G(d) Freq
 --------------------------------------------------------------------

 Structure from the checkpoint file:  "JID_1864.chk"
 -------------------------------
 CID_147269331_JID_1864_neutraal
 -------------------------------
 Charge =  0 Multiplicity = 1

 SCF Done:  E(RB3LYP) =  -876.793886815     A.U. after    1 cycles

  Exact polarizability: 105.248  -1.421  95.804   1.385   0.321  86.213
 Approx polarizability: 148.104   4.754 152.425   1.137  -1.559 129.832

                      1                      2                      3
                      A                      A                      A
 Frequencies --     39.8909                48.8610                71.1882
 Red. masses --      4.1801                 3.1359                 5.9138
 Frc consts  --      0.0039                 0.0044                 0.0177
 IR Inten    --     11.9072                 3.3942                 2.0052

                      4                      5                      6
                      A                      A                      A
 Frequencies --     82.6245               128.7844               151.9198
 Red. masses --      3.3764                 1.3893                 1.9806
 Frc consts  --      0.0136                 0.0136                 0.0269
 IR Inten    --      1.3966                 0.3897                 0.9518

                      7                      8                      9
                      A                      A                      A
 Frequencies --    186.5375               212.2153               234.5359
 Red. masses --      2.9785                 2.2377                 1.5500
 Frc consts  --      0.0611                 0.0594                 0.0502
 IR Inten    --      3.8683                 2.1056                 1.1911

                     10                     11                     12
                      A                      A                      A
 Frequencies --    275.5046               312.3364               357.5758
 Red. masses --      3.5619                 3.4557                 4.0682
 Frc consts  --      0.1593                 0.1986                 0.3065
 IR Inten    --      7.0175                 7.4579                 0.6170

                     13                     14                     15
                      A                      A                      A
 Frequencies --    380.0699               465.6924               553.4762
 Red. masses --      3.5383                 4.7018                 4.3014
 Frc consts  --      0.3011                 0.6008                 0.7764
 IR Inten    --      7.1450                 5.6491                 5.8627

                     16                     17                     18
                      A                      A                      A
 Frequencies --    573.8279               647.8605               701.6158
 Red. masses --      5.6286                 4.6397                 4.7709
 Frc consts  --      1.0920                 1.1474                 1.3837
 IR Inten    --      5.1781                 1.4179                 8.5440

                     19                     20                     21
                      A                      A                      A
 Frequencies --    733.9172               752.7049               800.6908
 Red. masses --      5.7689                 3.8864                 3.8429
 Frc consts  --      1.8308                 1.2973                 1.4516
 IR Inten    --      8.2267                 4.7022                 5.2999

                     22                     23                     24
                      A                      A                      A
 Frequencies --    879.6059               942.7522               996.2222
 Red. masses --      2.8218                 1.8672                 1.2404
 Frc consts  --      1.2864                 0.9778                 0.7253
 IR Inten    --      8.9391                 8.0269                 5.5656

                     25                     26                     27
                      A                      A                      A
 Frequencies --   1003.9152              1015.5773              1035.3400
 Red. masses --      1.4027                 2.4942                 2.4134
 Frc consts  --      0.8329                 1.5157                 1.5242
 IR Inten    --      6.7216                 2.9760                 6.6096

                     28                     29                     30
                      A                      A                      A
 Frequencies --   1067.3222              1090.5595              1134.8147
 Red. masses --      2.1604                 2.5093                 2.0547
 Frc consts  --      1.4501                 1.7583                 1.5590
 IR Inten    --      7.9263                24.5900                41.6658

                     31                     32                     33
                      A                      A                      A
 Frequencies --   1164.4064              1209.3372              1222.3666
 Red. masses --      1.3142                 1.1722                 1.3451
 Frc consts  --      1.0498                 1.0101                 1.1842
 IR Inten    --      3.0576                13.4242                11.4331

                     34                     35                     36
                      A                      A                      A
 Frequencies --   1260.2558              1288.6569              1303.0482
 Red. masses --      1.6050                 1.8597                 1.8748
 Frc consts  --      1.5019                 1.8195                 1.8755
 IR Inten    --     50.1165                26.3317                11.2513

                     37                     38                     39
                      A                      A                      A
 Frequencies --   1350.0348              1356.8485              1393.2454
 Red. masses --      1.4288                 1.7027                 1.1588
 Frc consts  --      1.5343                 1.8469                 1.3253
 IR Inten    --      3.2722                18.9725                 1.4886

                     40                     41                     42
                      A                      A                      A
 Frequencies --   1419.1488              1442.1260              1465.6765
 Red. masses --      1.7705                 1.6512                 1.2268
 Frc consts  --      2.1008                 2.0233                 1.5528
 IR Inten    --     56.9123                64.5985                28.2020

                     43                     44                     45
                      A                      A                      A
 Frequencies --   1504.9131              1521.8938              1525.2132
 Red. masses --      1.0523                 1.0528                 1.0488
 Frc consts  --      1.4042                 1.4367                 1.4374
 IR Inten    --      8.7496                13.0245                12.0414

                     46                     47                     48
                      A                      A                      A
 Frequencies --   1531.1060              1543.1054              1819.3235
 Red. masses --      1.0798                 1.1112                11.5687
 Frc consts  --      1.4914                 1.5589                22.5608
 IR Inten    --      9.1836                11.3467               331.6307

                     49                     50                     51
                      A                      A                      A
 Frequencies --   1832.7466              2925.1413              2992.6109
 Red. masses --     10.6498                 1.0846                 1.0823
 Frc consts  --     21.0764                 5.4678                 5.7108
 IR Inten    --    106.3281                79.9297                28.2731

                     52                     53                     54
                      A                      A                      A
 Frequencies --   3037.4930              3066.8326              3094.0225
 Red. masses --      1.0398                 1.0307                 1.1012
 Frc consts  --      5.6524                 5.7116                 6.2113
 IR Inten    --     58.0553                16.2650                32.0328

                     55                     56                     57
                      A                      A                      A
 Frequencies --   3095.2992              3117.0392              3151.8403
 Red. masses --      1.0686                 1.0837                 1.1050
 Frc consts  --      6.0322                 6.2034                 6.4674
 IR Inten    --     15.5075                 4.2986                 6.5875

                     58                     59                     60
                      A                      A                      A
 Frequencies --   3158.3515              3161.4695              3168.2622
 Red. masses --      1.1008                 1.1055                 1.0987
 Frc consts  --      6.4697                 6.5102                 6.4982
 IR Inten    --      1.9254                 4.7290                 0.7967

 - Thermochemistry -
 -------------------
 Temperature   298.150 Kelvin.  Pressure   1.00000 Atm.
 Atom     1 has atomic number  6 and mass  12.00000

 Molecular mass:   173.05105 amu.
 Principal axes and moments of inertia in atomic units:
                           1         2         3
     Eigenvalues --  1616.137141897.808212758.15459
           X            0.98458  -0.17493  -0.00250
           Y            0.17494   0.98458   0.00181
           Z            0.00214  -0.00222   1.00000
 This molecule is an asymmetric top.
 Rotational symmetry number  1.
 Warning -- assumption of classical behavior for rotation
           may cause significant error
 Rotational temperatures (Kelvin)      0.05359     0.04564     0.03140
 Rotational constants (GHZ):           1.11670     0.95096     0.65433
 Zero-point vibrational energy     466542.1 (Joules/Mol)
                                  111.50625 (Kcal/Mol)
 Warning -- explicit consideration of  16 degrees of freedom as
           vibrations may cause significant error
 Vibrational temperatures:     57.39    70.30   102.42   118.88   185.29
          (Kelvin)            218.58   268.39   305.33   337.44   396.39
                              449.38   514.47   546.84   670.03   796.33
                              825.61   932.13  1009.47  1055.94  1082.97
                             1152.02  1265.56  1356.41  1433.34  1444.41
                             1461.19  1489.62  1535.64  1569.07  1632.75
                             1675.32  1739.97  1758.71  1813.23  1854.09
                             1874.80  1942.40  1952.20  2004.57  2041.84
                             2074.90  2108.78  2165.23  2189.67  2194.44
                             2202.92  2220.18  2617.60  2636.91  4208.63
                             4305.70  4370.27  4412.49  4451.61  4453.45
                             4484.72  4534.80  4544.16  4548.65  4558.42

 Zero-point correction=                           0.177697 (Hartree/Particle)
 Thermal correction to Energy=                    0.189883
 Thermal correction to Enthalpy=                  0.190827
 Thermal correction to Gibbs Free Energy=         0.138016
 Sum of electronic and zero-point Energies=           -876.616190
 Sum of electronic and thermal Energies=              -876.604004
 Sum of electronic and thermal Enthalpies=            -876.603060
 Sum of electronic and thermal Free Energies=         -876.655871

                     E (Thermal)             CV                S
                      KCal/Mol        Cal/Mol-Kelvin    Cal/Mol-Kelvin
 Total                  119.153             42.422            111.150
 Electronic               0.000              0.000              0.000
 Translational            0.889              2.981             41.353
 Rotational               0.889              2.981             30.515
 Vibrational            117.376             36.460             39.282
 Vibration     1          0.594              1.981              5.264
 Vibration     2          0.595              1.978              4.863
 Vibration     3          0.598              1.968              4.120
 Vibration     4          0.600              1.961              3.828
 Vibration     5          0.611              1.924              2.964
 Vibration     6          0.619              1.901              2.648
 Vibration     7          0.632              1.858              2.262
 Vibration     8          0.643              1.822              2.025
 Vibration     9          0.654              1.788              1.844
 Vibration    10          0.677              1.719              1.561
 Vibration    11          0.701              1.650              1.350
 Vibration    12          0.733              1.560              1.133
 Vibration    13          0.750              1.513              1.039
 Vibration    14          0.823              1.326              0.750
 Vibration    15          0.909              1.132              0.537
 Vibration    16          0.930              1.088              0.497

                           ! Non-Optimized Parameters !
 Normal termination of Gaussian 16 at Tue Dec  8 21:31:21 2020.

 ----------------------------------------------------------------------
 # B3LYP/6-311++G(d,p) empiricaldispersion=gd3bj scf=xqc pop=npa geom=c
 heck
 ----------------------------------------------------------------------

 ---------------------------------------
 CID_147269331_JID_1864_Energie_neutraal
 ---------------------------------------
 Structure from the checkpoint file:  "JID_1864.chk"
 Charge =  0 Multiplicity = 1

 SCF Done:  E(RB3LYP) =  -876.960961687     A.U. after   15 cycles
 Normal termination of Gaussian 16 at Tue Dec  8 21:34:13 2020.

 ----------------------------------------------------------------------
 # B3LYP/6-311++G(d,p) empiricaldispersion=gd3bj scf=xqc pop=npa geom=c
 heck
 ----------------------------------------------------------------------

 -------------------------------------
 CID_147269331_JID_1864_Energie_kation
 -------------------------------------
 Structure from the checkpoint file:  "JID_1864.chk"
 Charge =  1 Multiplicity = 2

 SCF Done:  E(UB3LYP) =  -876.651299628     A.U. after   24 cycles
 Normal termination of Gaussian 16 at Tue Dec  8 21:40:50 2020.
 Gaussian 16:  ES64L-G16RevA.03 25-Dec-2016

 ----------------------------------------------------------------------
 # B3LYP/6-311++G(d,p) empiricaldispersion=gd3bj scf=xqc pop=npa geom=c
 heck
 ----------------------------------------------------------------------

 ------------------------------------
 CID_147269331_JID_1864_Energie_anion
 ------------------------------------
 Structure from the checkpoint file:  "JID_1864.chk"
 Charge = -1 Multiplicity = 2

                         Standard orientation:
 ---------------------------------------------------------------------
 Center     Atomic      Atomic             Coordinates (Angstroms)
 Number     Number       Type             X           Y           Z
 ---------------------------------------------------------------------
      1          6           0       -2.193554    1.671876   -0.629986
      2          7           0       -1.137253    0.892774   -0.017920
      3          6           0       -1.377608   -0.384101    0.632390
      4          6           0       -0.114972   -0.630963    1.494387
      5          6           0        0.929080    0.382952    0.985594
      6          6           0        0.129117    1.402018    0.163019
      7          8           0        0.524143    2.469093   -0.268603
      8         16           0        2.358078   -0.294589    0.053077
      9          6           0        1.547276   -0.918085   -1.458566
     10          6           0       -1.636682   -1.492728   -0.386990
     11          8           0       -1.436022   -2.664962   -0.166850
     12          1           0       -2.634422    1.153881   -1.489021
     13          1           0       -2.989864    1.883404    0.096036
     14          1           0       -1.749698    2.610040   -0.967630
     15          1           0       -2.281230   -0.325178    1.261113
     16          1           0        0.212002   -1.668124    1.410546
     17          1           0       -0.343160   -0.435689    2.545455
     18          1           0        1.409306    0.920434    1.806897
     19          1           0        0.893537   -1.768556   -1.252201
     20          1           0        0.993917   -0.121655   -1.964581
     21          1           0        2.352534   -1.252025   -2.117681
     22          1           0       -2.032315   -1.151387   -1.368187
 ---------------------------------------------------------------------

 SCF Done:  E(UB3LYP) =  -876.962210301     A.U. after   31 cycles

 The electronic state is 2-A.
 Alpha  occ. eigenvalues --  -88.73166 -18.97704 -18.95771 -14.22975 -10.15677
 Alpha  occ. eigenvalues --  -10.09922 -10.09079 -10.08976 -10.08491 -10.08090
 Alpha  occ. eigenvalues --  -10.05754  -7.81756  -5.78171  -5.77801  -5.77092
 Alpha  occ. eigenvalues --   -0.92982  -0.89587  -0.83483  -0.70978  -0.65598
 Alpha  occ. eigenvalues --   -0.61147  -0.58937  -0.53618  -0.48544  -0.44725
 Alpha  occ. eigenvalues --   -0.42452  -0.39034  -0.36649  -0.34969  -0.33258
 Alpha  occ. eigenvalues --   -0.32595  -0.31583  -0.30530  -0.29312  -0.29144
 Alpha  occ. eigenvalues --   -0.28446  -0.27940  -0.26719  -0.25560  -0.23049
 Alpha  occ. eigenvalues --   -0.22238  -0.20266  -0.15008  -0.14884  -0.11519
 Alpha  occ. eigenvalues --   -0.10220   0.04902
 Alpha virt. eigenvalues --    0.08001   0.08174   0.08785   0.10033   0.10773
 Alpha virt. eigenvalues --    0.10897   0.12273   0.12574   0.13076   0.13403
 Alpha virt. eigenvalues --    0.14347   0.15006   0.15390   0.15942   0.16443

  Beta  occ. eigenvalues --  -88.73164 -18.97702 -18.95329 -14.22955 -10.15678
  Beta  occ. eigenvalues --  -10.09918 -10.09055 -10.09011 -10.08073 -10.08065
  Beta  occ. eigenvalues --  -10.05703  -7.81754  -5.78165  -5.77800  -5.77091
  Beta  occ. eigenvalues --   -0.92970  -0.88749  -0.83426  -0.70942  -0.65526
  Beta  occ. eigenvalues --   -0.60945  -0.58883  -0.53438  -0.48350  -0.44159
  Beta  occ. eigenvalues --   -0.42272  -0.38858  -0.36427  -0.34922  -0.33168
  Beta  occ. eigenvalues --   -0.32468  -0.31488  -0.30461  -0.29003  -0.28795
  Beta  occ. eigenvalues --   -0.28265  -0.27791  -0.26646  -0.25220  -0.22608
  Beta  occ. eigenvalues --   -0.20628  -0.20190  -0.14985  -0.14721  -0.11496
  Beta  occ. eigenvalues --   -0.09914
  Beta virt. eigenvalues --    0.07910   0.08565   0.08951   0.10255   0.10963
  Beta virt. eigenvalues --    0.11068   0.11557   0.12465   0.13107   0.13389
  Beta virt. eigenvalues --    0.13571   0.14421   0.15071   0.15446   0.16026

 Mulliken charges and spin densities:
               1          2
     1  C    0.437747  -0.713341
     2  N    0.042583   0.042332
     3  C    0.118465   0.146863
     4  C    0.038582  -0.998248
     5  C    0.871591  -0.047737
     6  C   -0.678259   0.126928
     7  O   -0.348479  -0.001553
     8  S   -0.160849   0.039219
     9  C   -0.374375  -0.247223
    10  C   -0.246464   0.195471
    11  O   -0.330310   0.131462
    12  H    0.041504   0.117136
    13  H   -0.312352   0.476641
    14  H    0.076866   0.085186
    15  H   -0.554723   0.777227
    16  H    0.245417  -0.024167
    17  H   -0.414999   0.566708
    18  H    0.143418   0.163954
    19  H    0.211564  -0.026712
    20  H    0.088170   0.112854
    21  H    0.102067   0.073187
    22  H    0.002836   0.003813
 Sum of Mulliken charges =  -1.00000   1.00000

 Dipole moment (field-independent basis, Debye):
    X=              2.9174    Y=              0.4527    Z=             -2.9471  Tot=              4.1715
 Quadrupole moment (field-independent basis, Debye-Ang):
   XX=           -107.6412   YY=           -113.6194   ZZ=            -97.4732
   XY=             -6.9218   XZ=              8.7392   YZ=              0.5713

 Summary of Natural Population Analysis:

                                       Natural Population
                Natural  -----------------------------------------------
    Atom  No    Charge         Core      Valence    Rydberg      Total
 -----------------------------------------------------------------------
      C    1   -0.17898      0.99963     2.17091    0.00844     3.17898
      N    2   -0.24957      0.99963     2.73647    0.01347     3.74957
      C    3   -0.04968      0.99958     2.03595    0.01416     3.04968
      C    4   -0.19453      0.99960     2.18299    0.01195     3.19453
      C    5   -0.20511      0.99952     2.19098    0.01460     3.20511
      C    6    0.34359      0.99959     1.63114    0.02569     2.65641
      O    7   -0.32705      0.99987     3.32140    0.00578     4.32705
      S    8    0.09558      4.99962     2.88705    0.01775     7.90442
      C    9   -0.35621      0.99961     2.35112    0.00548     3.35621
      C   10    0.27082      0.99972     1.70928    0.02019     2.72918
      O   11   -0.25326      0.99988     3.24694    0.00644     4.25326
      H   12    0.09442      0.00000     0.40448    0.00110     0.40558
      H   13    0.09680      0.00000     0.40176    0.00144     0.40320
      H   14    0.11015      0.00000     0.38880    0.00105     0.38985
      H   15    0.11202      0.00000     0.38181    0.00616     0.38798
      H   16    0.11512      0.00000     0.38339    0.00149     0.38488
      H   17    0.10678      0.00000     0.39045    0.00278     0.39322
      H   18    0.11609      0.00000     0.38279    0.00112     0.38391
      H   19    0.11248      0.00000     0.38600    0.00152     0.38752
      H   20    0.10510      0.00000     0.39332    0.00157     0.39490
      H   21    0.10252      0.00000     0.39644    0.00104     0.39748
      H   22    0.03292      0.00000     0.46468    0.00240     0.46708
 =======================================================================
   * Total *    0.00000     14.99624    30.83814    0.16562    46.00000

 Normal termination of Gaussian 16 at Tue Dec  8 21:48:21 2020.
