 Gaussian 16, Revision A.03,

 -----------------------------------------------------------
 # opt freq B3LYP/6-31G(d) empiricaldispersion=gd3bj scf=xqc
 -----------------------------------------------------------

 -------------------------------
 CID_103714366_JID_7666_neutraal
 -------------------------------
 Symbolic Z-matrix:
 Charge =  0 Multiplicity = 1

 SCF Done:  E(RB3LYP) =  -1159.83452171     A.U. after   15 cycles
 SCF Done:  E(RB3LYP) =  -1159.83925788     A.U. after   13 cycles
 SCF Done:  E(RB3LYP) =  -1159.83935613     A.U. after   13 cycles
 SCF Done:  E(RB3LYP) =  -1159.83983480     A.U. after   12 cycles
 SCF Done:  E(RB3LYP) =  -1159.83978271     A.U. after   12 cycles
 SCF Done:  E(RB3LYP) =  -1159.83991093     A.U. after   11 cycles
 SCF Done:  E(RB3LYP) =  -1159.83996953     A.U. after   12 cycles
 SCF Done:  E(RB3LYP) =  -1159.84002961     A.U. after   12 cycles
 SCF Done:  E(RB3LYP) =  -1159.84006263     A.U. after   12 cycles
 SCF Done:  E(RB3LYP) =  -1159.84007534     A.U. after   12 cycles
 SCF Done:  E(RB3LYP) =  -1159.84017974     A.U. after   10 cycles
 SCF Done:  E(RB3LYP) =  -1159.84019191     A.U. after   11 cycles
 SCF Done:  E(RB3LYP) =  -1159.84018535     A.U. after   11 cycles
 SCF Done:  E(RB3LYP) =  -1159.84019307     A.U. after   11 cycles
 SCF Done:  E(RB3LYP) =  -1159.84019311     A.U. after    7 cycles
 Optimization completed.
    -- Stationary point found.
 Normal termination of Gaussian 16 at Sun Dec 13 12:34:49 2020.

 --------------------------------------------------------------------
 #N Geom=AllCheck Guess=TCheck SCRF=Check GenChk RB3LYP/6-31G(d) Freq
 --------------------------------------------------------------------

 Structure from the checkpoint file:  "JID_7666.chk"
 -------------------------------
 CID_103714366_JID_7666_neutraal
 -------------------------------
 Charge =  0 Multiplicity = 1

 SCF Done:  E(RB3LYP) =  -1159.84019311     A.U. after    1 cycles

  Exact polarizability: 188.533 -10.116 148.880  12.156  14.320 110.222
 Approx polarizability: 255.580 -14.241 246.582  34.525  34.609 187.802

                      1                      2                      3
                      A                      A                      A
 Frequencies --     28.3802                32.6224                39.5964
 Red. masses --      7.8832                 7.1855                 4.3587
 Frc consts  --      0.0037                 0.0045                 0.0040
 IR Inten    --      2.2580                 1.9642                 0.9793

                      4                      5                      6
                      A                      A                      A
 Frequencies --     55.9625                76.6268                87.1866
 Red. masses --      5.8999                 8.1688                 4.4070
 Frc consts  --      0.0109                 0.0283                 0.0197
 IR Inten    --      2.2194                 1.6281                 1.6793

                      7                      8                      9
                      A                      A                      A
 Frequencies --    115.5199               145.0562               179.3718
 Red. masses --      3.5888                 4.4581                 3.2652
 Frc consts  --      0.0282                 0.0553                 0.0619
 IR Inten    --      1.4491                 0.4163                 1.6276

                     10                     11                     12
                      A                      A                      A
 Frequencies --    249.6293               252.8470               297.6866
 Red. masses --      6.0769                 6.0272                 8.3073
 Frc consts  --      0.2231                 0.2270                 0.4337
 IR Inten    --      2.8941                 2.0009                 2.0279

                     13                     14                     15
                      A                      A                      A
 Frequencies --    334.0675               365.4486               408.7122
 Red. masses --      4.6230                 4.0058                 3.0366
 Frc consts  --      0.3040                 0.3152                 0.2989
 IR Inten    --      3.2229                 3.5272                 9.6062

                     16                     17                     18
                      A                      A                      A
 Frequencies --    426.5379               460.9297               487.1364
 Red. masses --      4.2406                 4.1306                 6.8802
 Frc consts  --      0.4546                 0.5170                 0.9619
 IR Inten    --      0.9399                22.4549                 6.6369

                     19                     20                     21
                      A                      A                      A
 Frequencies --    496.1341               528.2587               584.0447
 Red. masses --      5.2082                 3.5830                 2.6664
 Frc consts  --      0.7553                 0.5891                 0.5359
 IR Inten    --      3.1110                 4.7944                27.0394

                     22                     23                     24
                      A                      A                      A
 Frequencies --    609.9171               641.6655               653.5597
 Red. masses --      1.3593                 4.1510                 6.1015
 Frc consts  --      0.2979                 1.0070                 1.5355
 IR Inten    --     47.9830                 8.9871                 9.4725

                     25                     26                     27
                      A                      A                      A
 Frequencies --    671.7797               681.2115               711.5284
 Red. masses --      2.6951                 2.8713                 4.6308
 Frc consts  --      0.7166                 0.7850                 1.3813
 IR Inten    --     37.5608                31.8826                63.0581

                     28                     29                     30
                      A                      A                      A
 Frequencies --    724.8012               759.6758               767.7668
 Red. masses --      3.1494                 3.6422                 3.7902
 Frc consts  --      0.9748                 1.2384                 1.3164
 IR Inten    --     46.5938                62.5612                22.5327

                     31                     32                     33
                      A                      A                      A
 Frequencies --    817.1300               832.0928               855.9764
 Red. masses --      5.8949                 4.0860                 1.7610
 Frc consts  --      2.3191                 1.6668                 0.7602
 IR Inten    --      2.6513                 0.5983                 4.7363

                     34                     35                     36
                      A                      A                      A
 Frequencies --    886.6798               904.1213               917.7281
 Red. masses --      1.6419                 2.1189                 1.4419
 Frc consts  --      0.7606                 1.0205                 0.7155
 IR Inten    --     14.0810                 3.3860                 3.6679

                     37                     38                     39
                      A                      A                      A
 Frequencies --    972.6235              1000.3977              1002.0755
 Red. masses --      1.4484                 2.0877                 1.3936
 Frc consts  --      0.8073                 1.2310                 0.8245
 IR Inten    --      3.0639                 5.8077                 4.1635

                     40                     41                     42
                      A                      A                      A
 Frequencies --   1042.5634              1047.1368              1082.6707
 Red. masses --      1.9242                 2.1801                 1.2964
 Frc consts  --      1.2323                 1.4084                 0.8953
 IR Inten    --     12.9661                10.1599                 0.9885

                     43                     44                     45
                      A                      A                      A
 Frequencies --   1110.3684              1115.7191              1136.1064
 Red. masses --      2.2129                 2.9126                 3.6663
 Frc consts  --      1.6075                 2.1362                 2.7881
 IR Inten    --      7.9496                 1.6741               213.1969

                     46                     47                     48
                      A                      A                      A
 Frequencies --   1173.4027              1180.5426              1216.9531
 Red. masses --      1.3832                 2.9191                 1.5574
 Frc consts  --      1.1221                 2.3970                 1.3589
 IR Inten    --     34.9780                62.4498                23.7269

                     49                     50                     51
                      A                      A                      A
 Frequencies --   1219.6815              1244.1689              1264.4051
 Red. masses --      1.9252                 1.4619                 1.2888
 Frc consts  --      1.6874                 1.3333                 1.2139
 IR Inten    --    106.4324                 5.8326                13.2330

                     52                     53                     54
                      A                      A                      A
 Frequencies --   1317.8385              1323.5949              1332.1338
 Red. masses --      1.2818                 5.8374                 1.4152
 Frc consts  --      1.3115                 6.0253                 1.4796
 IR Inten    --      9.0964                19.8008                30.8616

                     55                     56                     57
                      A                      A                      A
 Frequencies --   1335.6634              1370.2603              1381.2177
 Red. masses --      1.4270                 1.2753                 2.8595
 Frc consts  --      1.5000                 1.4108                 3.2142
 IR Inten    --      8.2778                 5.3303               377.7455

                     58                     59                     60
                      A                      A                      A
 Frequencies --   1391.5657              1395.2078              1429.8848
 Red. masses --      2.7421                 1.3489                 3.5717
 Frc consts  --      3.1285                 1.5470                 4.3026
 IR Inten    --     33.2345                 2.3795                61.7358

                     61                     62                     63
                      A                      A                      A
 Frequencies --   1501.4011              1509.9638              1522.7483
 Red. masses --      1.5501                 1.0971                 1.0967
 Frc consts  --      2.0587                 1.4738                 1.4983
 IR Inten    --     48.2799                 8.1962                 4.6347

                     64                     65                     66
                      A                      A                      A
 Frequencies --   1524.7521              1534.5804              1613.4415
 Red. masses --      2.7167                 1.1206                 6.3750
 Frc consts  --      3.7212                 1.5548                 9.7777
 IR Inten    --     10.3695                12.6916                20.0496

                     67                     68                     69
                      A                      A                      A
 Frequencies --   1650.0376              1772.1974              1853.8832
 Red. masses --      5.8878                 8.5287                10.3834
 Frc consts  --      9.4448                15.7818                21.0258
 IR Inten    --     12.9610               377.3082               285.3943

                     70                     71                     72
                      A                      A                      A
 Frequencies --   3050.7834              3074.9437              3086.3807
 Red. masses --      1.0642                 1.0611                 1.0633
 Frc consts  --      5.8357                 5.9113                 5.9676
 IR Inten    --     18.3192                27.9505                18.9359

                     73                     74                     75
                      A                      A                      A
 Frequencies --   3106.9697              3122.7691              3136.3974
 Red. masses --      1.0939                 1.0926                 1.1009
 Frc consts  --      6.2217                 6.2777                 6.3807
 IR Inten    --     13.4155                10.3117                16.5588

                     76                     77                     78
                      A                      A                      A
 Frequencies --   3144.7140              3203.4965              3210.7397
 Red. masses --      1.1072                 1.0913                 1.0902
 Frc consts  --      6.4514                 6.5987                 6.6216
 IR Inten    --     16.0370                 4.9663                 6.8051

                     79                     80                     81
                      A                      A                      A
 Frequencies --   3249.3420              3558.0647              3701.4229
 Red. masses --      1.0934                 1.0749                 1.0643
 Frc consts  --      6.8015                 8.0175                 8.5908
 IR Inten    --      0.4042                20.7744                82.4695

 - Thermochemistry -
 -------------------
 Temperature   298.150 Kelvin.  Pressure   1.00000 Atm.
 Atom     1 has atomic number  6 and mass  12.00000

 Molecular mass:   252.05686 amu.
 Principal axes and moments of inertia in atomic units:
                           1         2         3
     Eigenvalues --  2596.626208864.74095**********
           X            0.99995  -0.00605  -0.00766
           Y            0.00612   0.99994   0.00882
           Z            0.00760  -0.00887   0.99993
 This molecule is an asymmetric top.
 Rotational symmetry number  1.
 Warning -- assumption of classical behavior for rotation
           may cause significant error
 Rotational temperatures (Kelvin)      0.03336     0.00977     0.00832
 Rotational constants (GHZ):           0.69503     0.20359     0.17330
 Zero-point vibrational energy     593961.5 (Joules/Mol)
                                  141.96020 (Kcal/Mol)
 Warning -- explicit consideration of  22 degrees of freedom as
           vibrations may cause significant error
 Vibrational temperatures:     40.83    46.94    56.97    80.52   110.25
          (Kelvin)            125.44   166.21   208.70   258.08   359.16
                              363.79   428.30   480.65   525.80   588.05
                              613.69   663.17   700.88   713.83   760.05
                              840.31   877.53   923.21   940.33   966.54
                              980.11  1023.73  1042.83  1093.00  1104.65
                             1175.67  1197.20  1231.56  1275.73  1300.83
                             1320.41  1399.39  1439.35  1441.76  1500.02
                             1506.60  1557.72  1597.57  1605.27  1634.60
                             1688.26  1698.54  1750.92  1754.85  1790.08
                             1819.20  1896.08  1904.36  1916.64  1921.72
                             1971.50  1987.26  2002.15  2007.39  2057.29
                             2160.18  2172.50  2190.90  2193.78  2207.92
                             2321.38  2374.04  2549.80  2667.32  4389.40
                             4424.16  4440.61  4470.24  4492.97  4512.58
                             4524.54  4609.12  4619.54  4675.08  5119.26
                             5325.52

 Zero-point correction=                           0.226228 (Hartree/Particle)
 Thermal correction to Energy=                    0.241678
 Thermal correction to Enthalpy=                  0.242622
 Thermal correction to Gibbs Free Energy=         0.180390
 Sum of electronic and zero-point Energies=          -1159.613965
 Sum of electronic and thermal Energies=             -1159.598515
 Sum of electronic and thermal Enthalpies=           -1159.597571
 Sum of electronic and thermal Free Energies=        -1159.659803

                     E (Thermal)             CV                S
                      KCal/Mol        Cal/Mol-Kelvin    Cal/Mol-Kelvin
 Total                  151.655             57.431            130.979
 Electronic               0.000              0.000              0.000
 Translational            0.889              2.981             42.474
 Rotational               0.889              2.981             33.838
 Vibrational            149.878             51.469             54.667
 Vibration     1          0.593              1.984              5.940
 Vibration     2          0.594              1.983              5.663
 Vibration     3          0.594              1.981              5.279
 Vibration     4          0.596              1.975              4.595
 Vibration     5          0.599              1.965              3.975
 Vibration     6          0.601              1.958              3.722
 Vibration     7          0.608              1.937              3.174
 Vibration     8          0.616              1.908              2.736
 Vibration     9          0.629              1.868              2.335
 Vibration    10          0.662              1.763              1.733
 Vibration    11          0.664              1.758              1.711
 Vibration    12          0.691              1.678              1.430
 Vibration    13          0.716              1.607              1.240
 Vibration    14          0.739              1.543              1.099
 Vibration    15          0.773              1.451              0.931
 Vibration    16          0.788              1.412              0.870
 Vibration    17          0.819              1.337              0.763
 Vibration    18          0.843              1.279              0.691
 Vibration    19          0.852              1.259              0.668
 Vibration    20          0.883              1.187              0.591
 Vibration    21          0.941              1.066              0.478
 Vibration    22          0.969              1.011              0.433

 Optimization completed.
    -- Stationary point found.
 Normal termination of Gaussian 16 at Sun Dec 13 12:44:22 2020.

 ----------------------------------------------------------------------
 # B3LYP/6-311++G(d,p) empiricaldispersion=gd3bj scf=xqc pop=npa geom=c
 heck
 ----------------------------------------------------------------------

 ---------------------------------------
 CID_103714366_JID_7666_Energie_neutraal
 ---------------------------------------
 Structure from the checkpoint file:  "JID_7666.chk"
 Charge =  0 Multiplicity = 1

 SCF Done:  E(RB3LYP) =  -1160.08849887     A.U. after   16 cycles
 Normal termination of Gaussian 16 at Sun Dec 13 12:49:18 2020.

 ----------------------------------------------------------------------
 # B3LYP/6-311++G(d,p) empiricaldispersion=gd3bj scf=xqc pop=npa geom=c
 heck
 ----------------------------------------------------------------------

 -------------------------------------
 CID_103714366_JID_7666_Energie_kation
 -------------------------------------
 Structure from the checkpoint file:  "JID_7666.chk"
 Charge =  1 Multiplicity = 2

 SCF Done:  E(UB3LYP) =  -1159.77250459     A.U. after   33 cycles
 SCF Done:  E(UB3LYP) =  -1159.77250460     a.u. after    2 cycles
 Normal termination of Gaussian 16 at Sun Dec 13 13:17:16 2020.
 Gaussian 16:  ES64L-G16RevA.03 25-Dec-2016

 ----------------------------------------------------------------------
 # B3LYP/6-311++G(d,p) empiricaldispersion=gd3bj scf=xqc pop=npa geom=c
 heck
 ----------------------------------------------------------------------

 ------------------------------------
 CID_103714366_JID_7666_Energie_anion
 ------------------------------------
 Structure from the checkpoint file:  "JID_7666.chk"
 Charge = -1 Multiplicity = 2

                         Standard orientation:
 ---------------------------------------------------------------------
 Center     Atomic      Atomic             Coordinates (Angstroms)
 Number     Number       Type             X           Y           Z
 ---------------------------------------------------------------------
      1          6           0       -3.197204    0.318354    1.192899
      2          6           0       -3.697858   -1.098297    1.469597
      3         16           0       -3.865153   -1.927735   -0.185841
      4          6           0       -2.956291   -0.597481   -1.075581
      5          6           0       -2.229063    0.220885    0.003017
      6          7           0       -1.798487    1.522115   -0.490183
      7          6           0       -0.557121    2.102105   -0.368789
      8          8           0       -0.413101    3.318260   -0.394464
      9          6           0        0.632534    1.196683   -0.252963
     10          6           0        1.685633    1.590659    0.588404
     11          7           0        2.809282    0.896606    0.742114
     12          6           0        2.949110   -0.228581    0.024574
     13          6           0        1.979431   -0.695651   -0.868148
     14          6           0        0.799384    0.031061   -1.002841
     15          6           0        4.237721   -0.969866    0.236613
     16          8           0        5.116364   -0.647509    0.999187
     17          8           0        4.311485   -2.081249   -0.545122
     18          1           0       -4.037441    0.969792    0.919546
     19          1           0       -2.705290    0.753728    2.069098
     20          1           0       -2.983370   -1.660660    2.077077
     21          1           0       -4.666466   -1.109359    1.973367
     22          1           0       -3.655983    0.039618   -1.626064
     23          1           0       -2.260522   -1.041654   -1.791701
     24          1           0       -1.341877   -0.327872    0.325500
     25          1           0       -2.526846    2.224543   -0.576240
     26          1           0        1.594642    2.512854    1.156380
     27          1           0        2.151707   -1.599940   -1.438119
     28          1           0        0.030509   -0.293348   -1.696956
     29          1           0        5.172174   -2.490234   -0.339451
 ---------------------------------------------------------------------

 SCF Done:  E(UB3LYP) =  -1160.12237829     A.U. after   21 cycles

 The electronic state is 2-A.
 Alpha  occ. eigenvalues --  -88.75861 -19.02868 -18.95722 -18.95346 -14.22382
 Alpha  occ. eigenvalues --  -14.15224 -10.13968 -10.13825 -10.13087 -10.12633
 Alpha  occ. eigenvalues --  -10.11738 -10.10248 -10.05997 -10.04849 -10.04312
 Alpha  occ. eigenvalues --  -10.03789 -10.03075  -7.84479  -5.80874  -5.80528
 Alpha  occ. eigenvalues --   -5.79834  -0.96383  -0.91283  -0.87039  -0.82311
 Alpha  occ. eigenvalues --   -0.79444  -0.75257  -0.66637  -0.65583  -0.63602
 Alpha  occ. eigenvalues --   -0.63043  -0.54419  -0.51521  -0.50788  -0.50371
 Alpha  occ. eigenvalues --   -0.47076  -0.45787  -0.41571  -0.40534  -0.38842
 Alpha  occ. eigenvalues --   -0.36800  -0.35023  -0.34862  -0.33388  -0.32500
 Alpha  occ. eigenvalues --   -0.31583  -0.31190  -0.30746  -0.30462  -0.29657
 Alpha  occ. eigenvalues --   -0.29046  -0.27495  -0.26880  -0.26591  -0.25532
 Alpha  occ. eigenvalues --   -0.24530  -0.23876  -0.23544  -0.18823  -0.15259
 Alpha  occ. eigenvalues --   -0.15214  -0.14699  -0.14019  -0.13265  -0.12185
 Alpha  occ. eigenvalues --   -0.10881   0.02712
 Alpha virt. eigenvalues --    0.06004   0.07004   0.08381   0.08855   0.09237
 Alpha virt. eigenvalues --    0.10010   0.10634   0.11035   0.11089   0.11546
 Alpha virt. eigenvalues --    0.12113   0.12530   0.13371   0.13738   0.14276

  Beta  occ. eigenvalues --  -88.75861 -19.02805 -18.95522 -18.95066 -14.22350
  Beta  occ. eigenvalues --  -14.15007 -10.13867 -10.13663 -10.13085 -10.12633
  Beta  occ. eigenvalues --  -10.11737 -10.10246 -10.06036 -10.04510 -10.04174
  Beta  occ. eigenvalues --  -10.03800 -10.02758  -7.84479  -5.80872  -5.80528
  Beta  occ. eigenvalues --   -5.79833  -0.96130  -0.90952  -0.86625  -0.82191
  Beta  occ. eigenvalues --   -0.78954  -0.75217  -0.66091  -0.65576  -0.63451
  Beta  occ. eigenvalues --   -0.62607  -0.53688  -0.51503  -0.50760  -0.50248
  Beta  occ. eigenvalues --   -0.46897  -0.45448  -0.41517  -0.40477  -0.38659
  Beta  occ. eigenvalues --   -0.36655  -0.34761  -0.34624  -0.33178  -0.32354
  Beta  occ. eigenvalues --   -0.31538  -0.30533  -0.30308  -0.29997  -0.29467
  Beta  occ. eigenvalues --   -0.29031  -0.27269  -0.26518  -0.26286  -0.25310
  Beta  occ. eigenvalues --   -0.23846  -0.23615  -0.23251  -0.17666  -0.14862
  Beta  occ. eigenvalues --   -0.14639  -0.13798  -0.13453  -0.12941  -0.10789
  Beta  occ. eigenvalues --   -0.10481
  Beta virt. eigenvalues --    0.05989   0.06966   0.08351   0.08700   0.08860
  Beta virt. eigenvalues --    0.09238   0.10010   0.10636   0.11035   0.11296
  Beta virt. eigenvalues --    0.11613   0.12195   0.12521   0.13685   0.14209

 Mulliken charges and spin densities:
               1          2
     1  C   -0.686475   0.004855
     2  C   -0.313537   0.001501
     3  S   -0.136847   0.002297
     4  C   -0.198925  -0.005597
     5  C   -0.149816  -0.007655
     6  N    0.010242   0.007770
     7  C   -0.355796   0.063373
     8  O   -0.373773   0.067657
     9  C    0.405628   0.205279
    10  C   -0.150892  -0.023642
    11  N   -0.031102   0.098814
    12  C   -0.476997   0.189366
    13  C   -0.182600   0.013090
    14  C   -0.260689   0.144953
    15  C    0.271191   0.112463
    16  O   -0.382670   0.100498
    17  O   -0.232682   0.013919
    18  H    0.132900  -0.001573
    19  H    0.178381   0.004538
    20  H    0.186761   0.000049
    21  H    0.182771   0.000876
    22  H    0.178372   0.008898
    23  H    0.154791  -0.000372
    24  H    0.191369  -0.005564
    25  H    0.276285   0.003481
    26  H    0.191554   0.001751
    27  H    0.185932   0.002668
    28  H    0.118749  -0.002761
    29  H    0.267873  -0.000931
 Sum of Mulliken charges =  -1.00000   1.00000

 Dipole moment (field-independent basis, Debye):
    X=            -10.7625    Y=             -4.0559    Z=             -0.5803  Tot=             11.5160
 Quadrupole moment (field-independent basis, Debye-Ang):
   XX=           -169.3530   YY=           -138.8293   ZZ=           -114.2230
   XY=            -10.6156   XZ=            -15.9854   YZ=              1.3212

 Summary of Natural Population Analysis:

                                       Natural Population
                Natural  -----------------------------------------------
    Atom  No    Charge         Core      Valence    Rydberg      Total
 -----------------------------------------------------------------------
      C    1   -0.19712      0.99961     2.18967    0.00784     3.19712
      C    2   -0.24080      0.99961     2.23376    0.00744     3.24080
      S    3    0.06339      4.99968     2.91776    0.01917     7.93661
      C    4   -0.24108      0.99958     2.23333    0.00817     3.24108
      C    5   -0.02174      0.99956     2.01099    0.01118     3.02174
      N    6   -0.32726      0.99966     2.81351    0.01409     3.82726
      C    7    0.35484      0.99963     1.62350    0.02203     2.64516
      O    8   -0.30633      0.99988     3.30024    0.00621     4.30633
      C    9   -0.03751      0.99945     2.02844    0.00961     3.03751
      C   10    0.03298      0.99956     1.95343    0.01403     2.96702
      N   11   -0.18676      0.99969     2.67676    0.01032     3.68676
      C   12    0.10106      0.99948     1.88565    0.01381     2.89894
      C   13   -0.11195      0.99954     2.10403    0.00838     3.11195
      C   14   -0.06902      0.99954     2.06147    0.00800     3.06902
      C   15    0.40749      0.99969     1.56770    0.02511     2.59251
      O   16   -0.28478      0.99987     3.27753    0.00738     4.28478
      O   17   -0.35749      0.99988     3.35001    0.00760     4.35749
      H   18    0.09427      0.00000     0.40461    0.00113     0.40573
      H   19    0.10919      0.00000     0.38972    0.00109     0.39081
      H   20    0.09984      0.00000     0.39875    0.00141     0.40016
      H   21    0.10040      0.00000     0.39822    0.00138     0.39960
      H   22    0.09702      0.00000     0.40162    0.00136     0.40298
      H   23    0.10943      0.00000     0.38948    0.00109     0.39057
      H   24    0.11656      0.00000     0.38187    0.00157     0.38344
      H   25    0.18476      0.00000     0.31336    0.00188     0.31524
      H   26    0.08890      0.00000     0.40980    0.00129     0.41110
      H   27    0.10404      0.00000     0.39483    0.00113     0.39596
      H   28    0.08991      0.00000     0.40840    0.00169     0.41009
      H   29    0.22774      0.00000     0.26679    0.00547     0.27226
 =======================================================================
   * Total *    0.00000     20.99390    44.78522    0.22088    66.00000

 Normal termination of Gaussian 16 at Sun Dec 13 13:26:22 2020.
