 Gaussian 16, Revision A.03,

 -----------------------------------------------------------
 # opt freq B3LYP/6-31G(d) empiricaldispersion=gd3bj scf=xqc
 -----------------------------------------------------------

 -------------------------------
 CID_115917615_JID_9166_neutraal
 -------------------------------
 Symbolic Z-matrix:
 Charge =  0 Multiplicity = 1

 SCF Done:  E(RB3LYP) =  -808.952484243     A.U. after   15 cycles
 SCF Done:  E(RB3LYP) =  -808.960740813     A.U. after   12 cycles
 SCF Done:  E(RB3LYP) =  -808.961176190     A.U. after   13 cycles
 SCF Done:  E(RB3LYP) =  -808.961891929     A.U. after   12 cycles
 SCF Done:  E(RB3LYP) =  -808.962302436     A.U. after   12 cycles
 SCF Done:  E(RB3LYP) =  -808.962553908     A.U. after   13 cycles
 SCF Done:  E(RB3LYP) =  -808.962741711     A.U. after   12 cycles
 SCF Done:  E(RB3LYP) =  -808.962831795     A.U. after   11 cycles
 SCF Done:  E(RB3LYP) =  -808.962858498     A.U. after   10 cycles
 SCF Done:  E(RB3LYP) =  -808.962872709     A.U. after   10 cycles
 SCF Done:  E(RB3LYP) =  -808.963148149     A.U. after    8 cycles
 SCF Done:  E(RB3LYP) =  -808.963148227     A.U. after    7 cycles
 SCF Done:  E(RB3LYP) =  -808.963148337     A.U. after    8 cycles
 SCF Done:  E(RB3LYP) =  -808.963148273     A.U. after    7 cycles
 SCF Done:  E(RB3LYP) =  -808.963148232     A.U. after    7 cycles
 Optimization completed.
    -- Stationary point found.
 Normal termination of Gaussian 16 at Sun Dec 13 20:50:41 2020.

 --------------------------------------------------------------------
 #N Geom=AllCheck Guess=TCheck SCRF=Check GenChk RB3LYP/6-31G(d) Freq
 --------------------------------------------------------------------

 Structure from the checkpoint file:  "JID_9166.chk"
 -------------------------------
 CID_115917615_JID_9166_neutraal
 -------------------------------
 Charge =  0 Multiplicity = 1

 SCF Done:  E(RB3LYP) =  -808.963148232     A.U. after    1 cycles

  Exact polarizability: 223.179   3.921 191.800 -18.871  11.334 140.626
 Approx polarizability: 313.276  23.920 300.613 -33.936  23.096 199.562

                      1                      2                      3
                      A                      A                      A
 Frequencies --     17.5784                22.8665                43.6600
 Red. masses --      4.5099                 3.7733                 2.7032
 Frc consts  --      0.0008                 0.0012                 0.0030
 IR Inten    --      0.4452                 0.0709                 0.1803

                      4                      5                      6
                      A                      A                      A
 Frequencies --     53.7904                56.9173                81.8188
 Red. masses --      3.0563                 6.7136                 4.2449
 Frc consts  --      0.0052                 0.0128                 0.0167
 IR Inten    --      1.0909                 1.7735                 0.2639

                      7                      8                      9
                      A                      A                      A
 Frequencies --    103.4827               118.1363               139.3546
 Red. masses --      2.9613                 2.9609                 3.5009
 Frc consts  --      0.0187                 0.0243                 0.0401
 IR Inten    --      0.6092                 0.3446                 0.6607

                     10                     11                     12
                      A                      A                      A
 Frequencies --    164.7534               169.0687               179.0961
 Red. masses --      1.5326                 1.4629                 1.0298
 Frc consts  --      0.0245                 0.0246                 0.0195
 IR Inten    --      0.0492                 0.6027                 0.0504

                     13                     14                     15
                      A                      A                      A
 Frequencies --    222.4748               247.8101               253.1521
 Red. masses --      2.2169                 2.6648                 1.3132
 Frc consts  --      0.0646                 0.0964                 0.0496
 IR Inten    --      0.3312                 2.5013                 0.1754

                     16                     17                     18
                      A                      A                      A
 Frequencies --    271.7285               289.1374               304.0134
 Red. masses --      3.1986                 3.9655                 3.1881
 Frc consts  --      0.1391                 0.1953                 0.1736
 IR Inten    --      2.1229                 2.0401                 5.2215

                     19                     20                     21
                      A                      A                      A
 Frequencies --    328.0934               353.1186               385.0765
 Red. masses --      2.8663                 2.8516                 2.9187
 Frc consts  --      0.1818                 0.2095                 0.2550
 IR Inten    --      0.5415                 5.5668                 0.2385

                     22                     23                     24
                      A                      A                      A
 Frequencies --    400.3845               418.1586               444.1166
 Red. masses --      3.6045                 1.5823                 3.0578
 Frc consts  --      0.3404                 0.1630                 0.3553
 IR Inten    --     41.3615                39.9481                13.4893

                     25                     26                     27
                      A                      A                      A
 Frequencies --    473.0896               493.5780               527.7982
 Red. masses --      2.9378                 2.7838                 1.7245
 Frc consts  --      0.3874                 0.3996                 0.2830
 IR Inten    --      9.2775                13.7836                34.0838

                     28                     29                     30
                      A                      A                      A
 Frequencies --    537.7654               553.2912               595.4921
 Red. masses --      2.3228                 2.8788                 3.0255
 Frc consts  --      0.3958                 0.5192                 0.6321
 IR Inten    --      3.2184                 7.0467                16.5369

                     31                     32                     33
                      A                      A                      A
 Frequencies --    628.6067               649.9287               654.8664
 Red. masses --      4.1035                 2.8430                 1.8555
 Frc consts  --      0.9553                 0.7076                 0.4688
 IR Inten    --      3.3097                 1.0047                77.2782

                     34                     35                     36
                      A                      A                      A
 Frequencies --    673.0178               720.6581               755.5557
 Red. masses --      4.0312                 3.5613                 1.8748
 Frc consts  --      1.0758                 1.0897                 0.6306
 IR Inten    --      5.0338                 0.5202                 1.4806

                     37                     38                     39
                      A                      A                      A
 Frequencies --    766.0042               789.9545               805.0595
 Red. masses --      2.2173                 1.4061                 3.0018
 Frc consts  --      0.7665                 0.5170                 1.1463
 IR Inten    --      2.7195                 0.9157                12.6241

                     40                     41                     42
                      A                      A                      A
 Frequencies --    808.6308               853.9173               865.9851
 Red. masses --      1.6633                 1.7600                 1.9225
 Frc consts  --      0.6408                 0.7561                 0.8494
 IR Inten    --     17.2239                11.8874                 6.3908

                     43                     44                     45
                      A                      A                      A
 Frequencies --    880.9197               888.2165               912.3588
 Red. masses --      2.4451                 2.1955                 2.0180
 Frc consts  --      1.1179                 1.0205                 0.9897
 IR Inten    --      1.8338                 0.7664                 0.7850

                     46                     47                     48
                      A                      A                      A
 Frequencies --    934.5362               941.6877               960.9368
 Red. masses --      1.2735                 2.3823                 1.9990
 Frc consts  --      0.6553                 1.2447                 1.0875
 IR Inten    --      0.2666                 1.4967                 0.7100

                     49                     50                     51
                      A                      A                      A
 Frequencies --    972.8909               992.7273              1015.0482
 Red. masses --      1.4814                 2.3465                 1.5494
 Frc consts  --      0.8261                 1.3625                 0.9406
 IR Inten    --      0.4494                 1.1019                 1.4199

                     52                     53                     54
                      A                      A                      A
 Frequencies --   1026.3931              1038.9635              1044.4101
 Red. masses --      1.5746                 1.6347                 2.0213
 Frc consts  --      0.9773                 1.0397                 1.2991
 IR Inten    --      3.2173                17.3947                 7.0733

                     55                     56                     57
                      A                      A                      A
 Frequencies --   1068.1394              1074.0647              1079.8723
 Red. masses --      1.7028                 1.4674                 1.4881
 Frc consts  --      1.1446                 0.9974                 1.0224
 IR Inten    --      7.1930                 2.6432                 3.6935

                     58                     59                     60
                      A                      A                      A
 Frequencies --   1121.0635              1151.1727              1156.7162
 Red. masses --      2.5407                 2.0722                 2.0108
 Frc consts  --      1.8813                 1.6180                 1.5851
 IR Inten    --      4.8111                27.8653                30.7124

                     61                     62                     63
                      A                      A                      A
 Frequencies --   1162.0347              1181.5623              1212.2847
 Red. masses --      2.1606                 2.2127                 1.4971
 Frc consts  --      1.7190                 1.8201                 1.2963
 IR Inten    --      7.3945                 6.6591                 2.0240

                     64                     65                     66
                      A                      A                      A
 Frequencies --   1219.9680              1259.1578              1260.8820
 Red. masses --      1.7625                 1.4462                 1.4990
 Frc consts  --      1.5455                 1.3510                 1.4041
 IR Inten    --     12.8414                16.3206                17.1811

                     67                     68                     69
                      A                      A                      A
 Frequencies --   1268.9714              1273.2109              1282.9879
 Red. masses --      1.4216                 1.3839                 1.2300
 Frc consts  --      1.3487                 1.3218                 1.1928
 IR Inten    --     26.9582                 0.2200                 3.2235

                     70                     71                     72
                      A                      A                      A
 Frequencies --   1295.7926              1312.4446              1317.4468
 Red. masses --      1.4541                 1.9139                 1.5317
 Frc consts  --      1.4385                 1.9424                 1.5664
 IR Inten    --      0.9755                43.7888                 1.9684

                     73                     74                     75
                      A                      A                      A
 Frequencies --   1335.5004              1345.3777              1355.9102
 Red. masses --      1.9409                 1.3717                 2.5242
 Frc consts  --      2.0396                 1.4629                 2.7342
 IR Inten    --     26.3915                 4.8363               217.3616

                     76                     77                     78
                      A                      A                      A
 Frequencies --   1363.1378              1399.2618              1405.5734
 Red. masses --      2.9547                 1.4667                 1.2967
 Frc consts  --      3.2348                 1.6919                 1.5094
 IR Inten    --     38.8151                 9.5775                15.6220

                     79                     80                     81
                      A                      A                      A
 Frequencies --   1421.3858              1426.3620              1438.6111
 Red. masses --      1.4236                 1.4120                 1.2583
 Frc consts  --      1.6946                 1.6926                 1.5343
 IR Inten    --     16.5797                83.3563                11.3942

                     82                     83                     84
                      A                      A                      A
 Frequencies --   1444.9749              1472.7452              1476.2957
 Red. masses --      1.3072                 1.7727                 3.1118
 Frc consts  --      1.6081                 2.2654                 3.9959
 IR Inten    --      3.5505                 4.8892               103.7305

                     85                     86                     87
                      A                      A                      A
 Frequencies --   1500.6781              1507.7559              1512.2271
 Red. masses --      1.0636                 1.1861                 1.0901
 Frc consts  --      1.4113                 1.5887                 1.4687
 IR Inten    --     17.5109                16.6810                 0.6116

                     88                     89                     90
                      A                      A                      A
 Frequencies --   1514.2877              1516.0732              1517.5468
 Red. masses --      1.0626                 1.0772                 1.1109
 Frc consts  --      1.4356                 1.4587                 1.5073
 IR Inten    --      1.4540                11.9130                 3.0880

                     91                     92                     93
                      A                      A                      A
 Frequencies --   1518.6797              1526.4759              1529.9555
 Red. masses --      1.1015                 1.0896                 1.0768
 Frc consts  --      1.4968                 1.4958                 1.4850
 IR Inten    --      6.9148                 8.1635                 3.7672

                     94                     95                     96
                      A                      A                      A
 Frequencies --   1545.6252              1548.0979              1572.0442
 Red. masses --      1.1413                 1.4128                 3.0116
 Frc consts  --      1.6065                 1.9949                 4.3850
 IR Inten    --      3.1263                 3.8448               196.8603

                     97                     98                     99
                      A                      A                      A
 Frequencies --   1636.8972              1682.1638              1790.8153
 Red. masses --      4.4454                 6.3272                 7.8597
 Frc consts  --      7.0178                10.5488                14.8510
 IR Inten    --     67.2972               204.0267               452.0520

                    100                    101                    102
                      A                      A                      A
 Frequencies --   3009.5100              3021.8813              3022.9073
 Red. masses --      1.0708                 1.0770                 1.0484
 Frc consts  --      5.7143                 5.7943                 5.6446
 IR Inten    --      8.9149                38.9614                51.3773

                    103                    104                    105
                      A                      A                      A
 Frequencies --   3043.0077              3048.9228              3060.0334
 Red. masses --      1.0842                 1.0379                 1.0636
 Frc consts  --      5.9149                 5.6845                 5.8680
 IR Inten    --     36.6331                25.3526                21.1296

                    106                    107                    108
                      A                      A                      A
 Frequencies --   3062.7839              3068.8151              3069.9815
 Red. masses --      1.0890                 1.0396                 1.0604
 Frc consts  --      6.0190                 5.7687                 5.8883
 IR Inten    --     53.6722                 4.4559                32.7063

                    109                    110                    111
                      A                      A                      A
 Frequencies --   3077.6088              3078.8321              3108.5290
 Red. masses --      1.0635                 1.0907                 1.1058
 Frc consts  --      5.9348                 6.0918                 6.2958
 IR Inten    --     30.7815                22.6518                35.9694

                    112                    113                    114
                      A                      A                      A
 Frequencies --   3118.6033              3122.3127              3127.5315
 Red. masses --      1.1028                 1.1079                 1.0995
 Frc consts  --      6.3193                 6.3634                 6.3364
 IR Inten    --     31.6974                27.5163                16.9570

                    115                    116                    117
                      A                      A                      A
 Frequencies --   3128.3633              3137.5326              3143.1557
 Red. masses --      1.1021                 1.0955                 1.1031
 Frc consts  --      6.3549                 6.3541                 6.4210
 IR Inten    --     34.6615                 8.1026                48.6630

                    118                    119                    120
                      A                      A                      A
 Frequencies --   3172.8013              3172.9629              3190.5249
 Red. masses --      1.1014                 1.0899                 1.0944
 Frc consts  --      6.5326                 6.4651                 6.5635
 IR Inten    --     15.6276                13.0485                24.8469

                    121                    122                    123
                      A                      A                      A
 Frequencies --   3245.4387              3582.8921              3601.2290
 Red. masses --      1.0892                 1.0751                 1.0760
 Frc consts  --      6.7591                 8.1312                 8.2221
 IR Inten    --      7.1098                20.9119                15.4726

 - Thermochemistry -
 -------------------
 Temperature   298.150 Kelvin.  Pressure   1.00000 Atm.
 Atom     1 has atomic number  6 and mass  12.00000

 Molecular mass:   260.18886 amu.
 Principal axes and moments of inertia in atomic units:
                           1         2         3
     Eigenvalues --  3693.391148011.842358903.42974
           X            0.99972  -0.02297  -0.00602
           Y            0.02310   0.99951   0.02125
           Z            0.00553  -0.02138   0.99976
 This molecule is an asymmetric top.
 Rotational symmetry number  1.
 Warning -- assumption of classical behavior for rotation
           may cause significant error
 Rotational temperatures (Kelvin)      0.02345     0.01081     0.00973
 Rotational constants (GHZ):           0.48864     0.22526     0.20270
 Zero-point vibrational energy     994386.7 (Joules/Mol)
                                  237.66412 (Kcal/Mol)
 Warning -- explicit consideration of  30 degrees of freedom as
           vibrations may cause significant error
 Vibrational temperatures:     25.29    32.90    62.82    77.39    81.89
          (Kelvin)            117.72   148.89   169.97   200.50   237.04
                              243.25   257.68   320.09   356.54   364.23
                              390.96   416.00   437.41   472.05   508.06
                              554.04   576.06   601.64   638.98   680.67
                              710.15   759.38   773.72   796.06   856.78
                              904.42   935.10   942.21   968.32  1036.87
                             1087.08  1102.11  1136.57  1158.30  1163.44
                             1228.60  1245.96  1267.45  1277.95  1312.68
                             1344.59  1354.88  1382.57  1399.77  1428.31
                             1460.43  1476.75  1494.84  1502.67  1536.81
                             1545.34  1553.70  1612.96  1656.28  1664.26
                             1671.91  1700.00  1744.21  1755.26  1811.65
                             1814.13  1825.77  1831.87  1845.93  1864.36
                             1888.32  1895.51  1921.49  1935.70  1950.85
                             1961.25  2013.23  2022.31  2045.06  2052.22
                             2069.84  2079.00  2118.95  2124.06  2159.14
                             2169.32  2175.76  2178.72  2181.29  2183.41
                             2185.04  2196.26  2201.26  2223.81  2227.37
                             2261.82  2355.13  2420.26  2576.58  4330.01
                             4347.81  4349.29  4378.21  4386.72  4402.71
                             4406.66  4415.34  4417.02  4427.99  4429.75
                             4472.48  4486.97  4492.31  4499.82  4501.02
                             4514.21  4522.30  4564.95  4565.19  4590.45
                             4669.46  5154.98  5181.37

 Zero-point correction=                           0.378742 (Hartree/Particle)
 Thermal correction to Energy=                    0.398671
 Thermal correction to Enthalpy=                  0.399615
 Thermal correction to Gibbs Free Energy=         0.328493
 Sum of electronic and zero-point Energies=           -808.584406
 Sum of electronic and thermal Energies=              -808.564478
 Sum of electronic and thermal Enthalpies=            -808.563533
 Sum of electronic and thermal Free Energies=         -808.634655

                     E (Thermal)             CV                S
                      KCal/Mol        Cal/Mol-Kelvin    Cal/Mol-Kelvin
 Total                  250.170             75.668            149.689
 Electronic               0.000              0.000              0.000
 Translational            0.889              2.981             42.568
 Rotational               0.889              2.981             33.932
 Vibrational            248.392             69.706             73.188
 Vibration     1          0.593              1.986              6.890
 Vibration     2          0.593              1.985              6.368
 Vibration     3          0.595              1.980              5.086
 Vibration     4          0.596              1.976              4.673
 Vibration     5          0.596              1.975              4.561
 Vibration     6          0.600              1.962              3.847
 Vibration     7          0.605              1.946              3.388
 Vibration     8          0.608              1.934              3.131
 Vibration     9          0.615              1.914              2.813
 Vibration    10          0.623              1.886              2.495
 Vibration    11          0.625              1.881              2.446
 Vibration    12          0.629              1.868              2.338
 Vibration    13          0.648              1.807              1.939
 Vibration    14          0.661              1.766              1.746
 Vibration    15          0.664              1.757              1.709
 Vibration    16          0.675              1.725              1.585
 Vibration    17          0.686              1.694              1.479
 Vibration    18          0.695              1.666              1.395
 Vibration    19          0.711              1.619              1.269
 Vibration    20          0.729              1.569              1.152
 Vibration    21          0.754              1.502              1.019
 Vibration    22          0.766              1.469              0.961
 Vibration    23          0.781              1.431              0.898
 Vibration    24          0.804              1.374              0.814
 Vibration    25          0.830              1.310              0.729
 Vibration    26          0.849              1.264              0.674
 Vibration    27          0.883              1.188              0.592
 Vibration    28          0.893              1.167              0.570
 Vibration    29          0.909              1.132              0.537
 Vibration    30          0.953              1.041              0.457

 Optimization completed.
    -- Stationary point found.
 Normal termination of Gaussian 16 at Sun Dec 13 21:16:21 2020.

 ----------------------------------------------------------------------
 # B3LYP/6-311++G(d,p) empiricaldispersion=gd3bj scf=xqc pop=npa geom=c
 heck
 ----------------------------------------------------------------------

 ---------------------------------------
 CID_115917615_JID_9166_Energie_neutraal
 ---------------------------------------
 Structure from the checkpoint file:  "JID_9166.chk"
 Charge =  0 Multiplicity = 1

 SCF Done:  E(RB3LYP) =  -809.188078082     A.U. after   15 cycles
 Normal termination of Gaussian 16 at Sun Dec 13 21:28:49 2020.

 ----------------------------------------------------------------------
 # B3LYP/6-311++G(d,p) empiricaldispersion=gd3bj scf=xqc pop=npa geom=c
 heck
 ----------------------------------------------------------------------

 -------------------------------------
 CID_115917615_JID_9166_Energie_kation
 -------------------------------------
 Structure from the checkpoint file:  "JID_9166.chk"
 Charge =  1 Multiplicity = 2

 SCF Done:  E(UB3LYP) =  -808.923840708     A.U. after   23 cycles
 Normal termination of Gaussian 16 at Sun Dec 13 21:55:59 2020.
 Gaussian 16:  ES64L-G16RevA.03 25-Dec-2016

 ----------------------------------------------------------------------
 # B3LYP/6-311++G(d,p) empiricaldispersion=gd3bj scf=xqc pop=npa geom=c
 heck
 ----------------------------------------------------------------------

 ------------------------------------
 CID_115917615_JID_9166_Energie_anion
 ------------------------------------
 Structure from the checkpoint file:  "JID_9166.chk"
 Charge = -1 Multiplicity = 2

                         Standard orientation:
 ---------------------------------------------------------------------
 Center     Atomic      Atomic             Coordinates (Angstroms)
 Number     Number       Type             X           Y           Z
 ---------------------------------------------------------------------
      1          6           0       -3.962759    1.713607    0.977231
      2          6           0       -2.579063    1.569413    0.397347
      3          6           0       -2.156982    0.365711   -0.195676
      4          6           0       -0.877693    0.235673   -0.742710
      5          6           0        0.050909    1.285842   -0.659554
      6          6           0       -0.364101    2.490032   -0.061174
      7          6           0       -1.654471    2.618101    0.436284
      8          7           0        1.333873    1.169282   -1.170302
      9          6           0        1.977695   -0.123948   -1.405783
     10          6           0        1.825710   -0.545002   -2.872873
     11          6           0        3.453172   -0.054452   -0.986043
     12          6           0        3.729938   -0.148138    0.516184
     13          6           0        2.891403    0.620056    1.580937
     14          6           0        3.081672   -0.591477    2.529702
     15          6           0        3.398055   -1.457793    1.283352
     16          7           0       -3.068152   -0.714928   -0.263337
     17          6           0       -2.896383   -2.054535    0.029021
     18          8           0       -3.833042   -2.830319   -0.101605
     19          6           0       -1.539267   -2.513633    0.531776
     20          1           0       -4.745878    1.690016    0.205282
     21          1           0       -4.190618    0.908563    1.686441
     22          1           0       -4.063219    2.666851    1.504385
     23          1           0       -0.624325   -0.678704   -1.261399
     24          1           0        0.332888    3.321516    0.009102
     25          1           0       -1.950576    3.558377    0.895046
     26          1           0        1.961295    1.906345   -0.879829
     27          1           0        1.477351   -0.874182   -0.776885
     28          1           0        2.378073    0.141263   -3.524627
     29          1           0        2.209479   -1.559723   -3.030913
     30          1           0        0.775120   -0.519991   -3.178814
     31          1           0        3.993654   -0.872955   -1.479652
     32          1           0        3.883256    0.872020   -1.397002
     33          1           0        4.790313    0.083236    0.680758
     34          1           0        3.256317    1.599500    1.908733
     35          1           0        1.843426    0.716722    1.287122
     36          1           0        2.230929   -0.885007    3.151529
     37          1           0        3.961579   -0.472933    3.170512
     38          1           0        2.490999   -1.934730    0.894237
     39          1           0        4.184826   -2.215318    1.359587
     40          1           0       -4.036971   -0.494979   -0.463190
     41          1           0       -0.906404   -2.816238   -0.310038
     42          1           0       -1.007929   -1.741641    1.092912
     43          1           0       -1.706306   -3.392669    1.156903
 ---------------------------------------------------------------------

 SCF Done:  E(UB3LYP) =  -809.178260540     A.U. after   33 cycles
 SCF Done:  E(UB3LYP) =  -809.178260541     a.u. after    1 cycles

 The electronic state is 2-A.
 Alpha  occ. eigenvalues --  -19.00946 -14.26261 -14.23166 -10.19871 -10.13131
 Alpha  occ. eigenvalues --  -10.12818 -10.12283 -10.09439 -10.08982 -10.08761
 Alpha  occ. eigenvalues --  -10.08601 -10.08322 -10.08179 -10.08026 -10.07861
 Alpha  occ. eigenvalues --  -10.07661 -10.07578 -10.07405 -10.07117  -0.96174
 Alpha  occ. eigenvalues --   -0.85784  -0.84931  -0.76247  -0.75383  -0.70267
 Alpha  occ. eigenvalues --   -0.67089  -0.66357  -0.65411  -0.62385  -0.59771
 Alpha  occ. eigenvalues --   -0.56701  -0.55406  -0.53884  -0.51392  -0.50740
 Alpha  occ. eigenvalues --   -0.48861  -0.46163  -0.45305  -0.41196  -0.40190
 Alpha  occ. eigenvalues --   -0.39481  -0.38978  -0.38418  -0.37715  -0.37356
 Alpha  occ. eigenvalues --   -0.36066  -0.34538  -0.33896  -0.33118  -0.32771
 Alpha  occ. eigenvalues --   -0.32282  -0.32102  -0.31607  -0.31187  -0.30549
 Alpha  occ. eigenvalues --   -0.30008  -0.29367  -0.28556  -0.27697  -0.26943
 Alpha  occ. eigenvalues --   -0.26093  -0.25676  -0.24658  -0.23078  -0.21786
 Alpha  occ. eigenvalues --   -0.21262  -0.21028  -0.19312  -0.18161  -0.15019
 Alpha  occ. eigenvalues --   -0.11207   0.03799
 Alpha virt. eigenvalues --    0.05425   0.05956   0.06325   0.06584   0.07110
 Alpha virt. eigenvalues --    0.07721   0.07959   0.08650   0.08890   0.09198
 Alpha virt. eigenvalues --    0.09597   0.09887   0.10064   0.10578   0.10874

  Beta  occ. eigenvalues --  -19.00942 -14.26256 -14.23154 -10.19868 -10.13117
  Beta  occ. eigenvalues --  -10.12820 -10.12283 -10.09429 -10.08986 -10.08737
  Beta  occ. eigenvalues --  -10.08576 -10.08310 -10.08159 -10.08003 -10.07843
  Beta  occ. eigenvalues --  -10.07650 -10.07565 -10.07386 -10.07098  -0.96167
  Beta  occ. eigenvalues --   -0.85765  -0.84913  -0.76221  -0.75357  -0.70247
  Beta  occ. eigenvalues --   -0.67060  -0.66331  -0.65377  -0.62348  -0.59730
  Beta  occ. eigenvalues --   -0.56658  -0.55365  -0.53844  -0.51356  -0.50708
  Beta  occ. eigenvalues --   -0.48821  -0.46132  -0.45263  -0.41170  -0.40160
  Beta  occ. eigenvalues --   -0.39455  -0.38938  -0.38377  -0.37689  -0.37327
  Beta  occ. eigenvalues --   -0.36040  -0.34505  -0.33871  -0.33090  -0.32755
  Beta  occ. eigenvalues --   -0.32265  -0.32069  -0.31585  -0.31155  -0.30516
  Beta  occ. eigenvalues --   -0.29984  -0.29341  -0.28529  -0.27666  -0.26905
  Beta  occ. eigenvalues --   -0.26064  -0.25651  -0.24636  -0.23044  -0.21751
  Beta  occ. eigenvalues --   -0.21231  -0.20992  -0.19265  -0.18155  -0.14948
  Beta  occ. eigenvalues --   -0.11172
  Beta virt. eigenvalues --    0.05621   0.06137   0.06386   0.06724   0.06864
  Beta virt. eigenvalues --    0.07611   0.08028   0.08323   0.08780   0.09131
  Beta virt. eigenvalues --    0.09459   0.09889   0.10170   0.10287   0.10747

 Mulliken charges and spin densities:
               1          2
     1  C    1.471427  -2.093496
     2  C   -0.518672   0.957797
     3  C   -0.635414   0.563691
     4  C   -0.628609   0.352231
     5  C    0.659933  -0.421880
     6  C    0.164735  -0.514658
     7  C   -0.325813  -0.179690
     8  N    0.041204   0.072474
     9  C   -0.019697   0.179645
    10  C    0.833039  -1.417802
    11  C   -0.250382  -0.702471
    12  C   -0.318598   0.924246
    13  C   -0.008931  -0.440914
    14  C   -0.242042  -0.079259
    15  C    0.285223  -0.720591
    16  N   -0.131911   0.010212
    17  C    0.054226  -0.042341
    18  O   -0.329999   0.005117
    19  C   -0.369595  -0.059927
    20  H   -0.014930   0.161241
    21  H    0.017427   0.162190
    22  H   -0.155816   0.304498
    23  H    0.230918  -0.025724
    24  H   -0.569608   0.718670
    25  H   -0.299526   0.465242
    26  H    0.218215   0.049122
    27  H    0.295919  -0.297196
    28  H    0.016052   0.139006
    29  H   -0.051699   0.194425
    30  H   -0.058561   0.175628
    31  H   -0.162151   0.331501
    32  H   -0.241166   0.388137
    33  H   -0.521693   0.757030
    34  H   -0.407806   0.576719
    35  H    0.549181  -0.451108
    36  H   -0.030437   0.180095
    37  H    0.035391   0.084712
    38  H   -0.021082   0.122124
    39  H   -0.143230   0.307572
    40  H    0.250400   0.072765
    41  H    0.048645   0.127369
    42  H    0.209755  -0.048651
    43  H    0.075681   0.112249
 Sum of Mulliken charges =  -1.00000   1.00000

 Dipole moment (field-independent basis, Debye):
    X=             -3.0258    Y=             -1.7892    Z=             -0.3512  Tot=              3.5326
 Quadrupole moment (field-independent basis, Debye-Ang):
   XX=           -220.0359   YY=           -178.9082   ZZ=           -155.9768
   XY=            -10.4406   XZ=             -1.1946   YZ=             -3.9940

 Summary of Natural Population Analysis:

                                       Natural Population
                Natural  -----------------------------------------------
    Atom  No    Charge         Core      Valence    Rydberg      Total
 -----------------------------------------------------------------------
      C    1   -0.29284      0.99964     2.28843    0.00477     3.29284
      C    2   -0.04887      0.99948     2.04001    0.00939     3.04887
      C    3    0.08394      0.99943     1.90573    0.01091     2.91606
      C    4   -0.13948      0.99948     2.13293    0.00706     3.13948
      C    5    0.09534      0.99949     1.89395    0.01122     2.90466
      C    6   -0.12084      0.99953     2.11155    0.00977     3.12084
      C    7   -0.08279      0.99953     2.07361    0.00965     3.08279
      N    8   -0.31407      0.99966     2.80334    0.01108     3.81407
      C    9   -0.01653      0.99959     2.00454    0.01239     3.01653
      C   10   -0.28276      0.99964     2.27836    0.00477     3.28276
      C   11   -0.19144      0.99958     2.18193    0.00993     3.19144
      C   12   -0.10782      0.99960     2.09550    0.01271     3.10782
      C   13   -0.19031      0.99962     2.18170    0.00899     3.19031
      C   14   -0.18745      0.99965     2.18085    0.00695     3.18745
      C   15   -0.18604      0.99963     2.17838    0.00804     3.18604
      N   16   -0.31394      0.99964     2.80495    0.00935     3.81394
      C   17    0.34553      0.99970     1.63388    0.02088     2.65447
      O   18   -0.32213      0.99988     3.31612    0.00614     4.32213
      C   19   -0.33419      0.99962     2.33008    0.00449     3.33419
      H   20    0.09890      0.00000     0.39972    0.00138     0.40110
      H   21    0.10401      0.00000     0.39476    0.00123     0.39599
      H   22    0.10545      0.00000     0.39360    0.00095     0.39455
      H   23    0.10487      0.00000     0.39346    0.00167     0.39513
      H   24    0.10279      0.00000     0.39588    0.00133     0.39721
      H   25    0.10033      0.00000     0.39865    0.00102     0.39967
      H   26    0.18980      0.00000     0.30665    0.00355     0.31020
      H   27    0.08895      0.00000     0.40732    0.00373     0.41105
      H   28    0.10045      0.00000     0.39849    0.00107     0.39955
      H   29    0.09742      0.00000     0.40171    0.00087     0.40258
      H   30    0.10040      0.00000     0.39869    0.00092     0.39960
      H   31    0.10407      0.00000     0.39462    0.00131     0.39593
      H   32    0.10074      0.00000     0.39759    0.00167     0.39926
      H   33    0.09982      0.00000     0.39803    0.00215     0.40018
      H   34    0.09868      0.00000     0.39979    0.00153     0.40132
      H   35    0.09918      0.00000     0.39855    0.00227     0.40082
      H   36    0.09364      0.00000     0.40548    0.00088     0.40636
      H   37    0.09473      0.00000     0.40395    0.00132     0.40527
      H   38    0.09176      0.00000     0.40642    0.00181     0.40824
      H   39    0.09649      0.00000     0.40244    0.00107     0.40351
      H   40    0.19842      0.00000     0.29886    0.00272     0.30158
      H   41    0.11139      0.00000     0.38757    0.00105     0.38861
      H   42    0.11210      0.00000     0.38693    0.00098     0.38790
      H   43    0.11233      0.00000     0.38675    0.00092     0.38767
 =======================================================================
   * Total *    0.00000     18.99239    51.79173    0.21588    71.00000

 Normal termination of Gaussian 16 at Sun Dec 13 22:35:05 2020.
