 Gaussian 16, Revision A.03,

 -----------------------------------------------------------
 # opt freq B3LYP/6-31G(d) empiricaldispersion=gd3bj scf=xqc
 -----------------------------------------------------------

 ------------------------------
 CID_63712696_JID_6636_neutraal
 ------------------------------
 Symbolic Z-matrix:
 Charge =  0 Multiplicity = 1

 SCF Done:  E(RB3LYP) =  -695.809835301     A.U. after   12 cycles
 SCF Done:  E(RB3LYP) =  -695.814383719     A.U. after   11 cycles
 SCF Done:  E(RB3LYP) =  -695.812732659     A.U. after   11 cycles
 SCF Done:  E(RB3LYP) =  -695.814891642     A.U. after   10 cycles
 SCF Done:  E(RB3LYP) =  -695.815528860     A.U. after   10 cycles
 SCF Done:  E(RB3LYP) =  -695.815882716     A.U. after   11 cycles
 SCF Done:  E(RB3LYP) =  -695.815975016     A.U. after   10 cycles
 SCF Done:  E(RB3LYP) =  -695.816078215     A.U. after   10 cycles
 SCF Done:  E(RB3LYP) =  -695.816099517     A.U. after   10 cycles
 SCF Done:  E(RB3LYP) =  -695.816115842     A.U. after    9 cycles
 SCF Done:  E(RB3LYP) =  -695.816168999     A.U. after    7 cycles
 SCF Done:  E(RB3LYP) =  -695.816171316     A.U. after    8 cycles
 SCF Done:  E(RB3LYP) =  -695.816172641     A.U. after    8 cycles
 SCF Done:  E(RB3LYP) =  -695.816172698     A.U. after    6 cycles
 SCF Done:  E(RB3LYP) =  -695.816172743     A.U. after    6 cycles
 SCF Done:  E(RB3LYP) =  -695.816172744     A.U. after    5 cycles
 Optimization completed.
    -- Stationary point found.
 Normal termination of Gaussian 16 at Fri Dec 11 00:06:59 2020.

 --------------------------------------------------------------------
 #N Geom=AllCheck Guess=TCheck SCRF=Check GenChk RB3LYP/6-31G(d) Freq
 --------------------------------------------------------------------

 Structure from the checkpoint file:  "JID_6636.chk"
 ------------------------------
 CID_63712696_JID_6636_neutraal
 ------------------------------
 Charge =  0 Multiplicity = 1

 SCF Done:  E(RB3LYP) =  -695.816172744     A.U. after    1 cycles

  Exact polarizability: 172.709   2.934 147.653  -1.780   0.038 129.073
 Approx polarizability: 208.406   0.876 208.541  -4.488  -2.200 198.212

                      1                      2                      3
                      A                      A                      A
 Frequencies --     24.7695                33.7384                51.6384
 Red. masses --      3.4463                 3.2426                 2.7366
 Frc consts  --      0.0012                 0.0022                 0.0043
 IR Inten    --      0.5055                 0.2060                 0.2153

                      4                      5                      6
                      A                      A                      A
 Frequencies --     65.1596                91.1017               117.8401
 Red. masses --      2.9361                 3.1764                 2.7756
 Frc consts  --      0.0073                 0.0155                 0.0227
 IR Inten    --      0.5279                 0.9612                 0.3557

                      7                      8                      9
                      A                      A                      A
 Frequencies --    147.5577               179.2959               203.1155
 Red. masses --      2.3564                 2.2943                 3.2048
 Frc consts  --      0.0302                 0.0435                 0.0779
 IR Inten    --      0.2965                 0.6769                 0.9699

                     10                     11                     12
                      A                      A                      A
 Frequencies --    225.6061               244.7425               256.1590
 Red. masses --      1.5864                 2.0523                 1.9448
 Frc consts  --      0.0476                 0.0724                 0.0752
 IR Inten    --      0.2884                 0.2894                 0.9627

                     13                     14                     15
                      A                      A                      A
 Frequencies --    276.9483               314.9336               350.7763
 Red. masses --      2.8206                 2.7222                 2.1158
 Frc consts  --      0.1275                 0.1591                 0.1534
 IR Inten    --      5.6130                 6.0277                16.6387

                     16                     17                     18
                      A                      A                      A
 Frequencies --    354.0517               368.2946               395.4053
 Red. masses --      1.4406                 2.2859                 2.2962
 Frc consts  --      0.1064                 0.1827                 0.2115
 IR Inten    --     25.8865                 2.9532                 3.5070

                     19                     20                     21
                      A                      A                      A
 Frequencies --    417.9922               437.3501               460.2827
 Red. masses --      1.9270                 2.5642                 2.9134
 Frc consts  --      0.1984                 0.2890                 0.3637
 IR Inten    --      0.8992                 3.6658                 0.6792

                     22                     23                     24
                      A                      A                      A
 Frequencies --    480.2953               550.1322               585.5704
 Red. masses --      2.3872                 1.9131                 2.6164
 Frc consts  --      0.3245                 0.3411                 0.5286
 IR Inten    --      2.4411                 0.9883                 1.3407

                     25                     26                     27
                      A                      A                      A
 Frequencies --    644.0200               660.3865               680.0200
 Red. masses --      2.6704                 2.7650                 2.8623
 Frc consts  --      0.6526                 0.7105                 0.7799
 IR Inten    --      2.1611                 5.9705                 6.6336

                     28                     29                     30
                      A                      A                      A
 Frequencies --    802.3628               809.2942               816.6773
 Red. masses --      2.4704                 2.0046                 1.7753
 Frc consts  --      0.9371                 0.7735                 0.6976
 IR Inten    --      2.0957                 1.3090                29.2653

                     31                     32                     33
                      A                      A                      A
 Frequencies --    852.3566               858.8876               878.2896
 Red. masses --      2.4004                 2.1953                 1.6024
 Frc consts  --      1.0275                 0.9542                 0.7283
 IR Inten    --     12.0044                 8.9949                 6.1189

                     34                     35                     36
                      A                      A                      A
 Frequencies --    888.0211               898.1228               905.2328
 Red. masses --      2.4140                 2.2268                 2.3808
 Frc consts  --      1.1216                 1.0583                 1.1495
 IR Inten    --      7.8115                 7.4377                 1.3619

                     37                     38                     39
                      A                      A                      A
 Frequencies --    935.2603               951.0956               963.2100
 Red. masses --      1.8506                 1.9661                 1.8930
 Frc consts  --      0.9537                 1.0478                 1.0348
 IR Inten    --     50.2524                16.9708                10.3893

                     40                     41                     42
                      A                      A                      A
 Frequencies --    985.5391               994.8675              1005.0494
 Red. masses --      1.8906                 1.6166                 2.1381
 Frc consts  --      1.0819                 0.9427                 1.2725
 IR Inten    --      6.3591                 4.7332                31.6854

                     43                     44                     45
                      A                      A                      A
 Frequencies --   1019.5431              1032.4923              1042.7362
 Red. masses --      1.9925                 1.9793                 1.7466
 Frc consts  --      1.2203                 1.2432                 1.1189
 IR Inten    --     15.1703                14.5575                 3.5158

                     46                     47                     48
                      A                      A                      A
 Frequencies --   1052.3342              1053.7905              1090.1489
 Red. masses --      1.6855                 1.8962                 1.9124
 Frc consts  --      1.0997                 1.2406                 1.3391
 IR Inten    --      2.0292                 1.0129                36.1225

                     49                     50                     51
                      A                      A                      A
 Frequencies --   1110.2382              1115.2485              1135.9223
 Red. masses --      1.9437                 2.2903                 3.4168
 Frc consts  --      1.4116                 1.6784                 2.5976
 IR Inten    --      7.9761                15.9603                53.1085

                     52                     53                     54
                      A                      A                      A
 Frequencies --   1143.0437              1163.8356              1177.2618
 Red. masses --      2.4881                 1.4858                 1.6041
 Frc consts  --      1.9154                 1.1857                 1.3099
 IR Inten    --     35.4647                13.6726                 5.4028

                     55                     56                     57
                      A                      A                      A
 Frequencies --   1198.0525              1209.3847              1213.1640
 Red. masses --      2.2884                 1.4410                 1.6127
 Frc consts  --      1.9352                 1.2418                 1.3984
 IR Inten    --      1.0706                 3.8249                 5.0199

                     58                     59                     60
                      A                      A                      A
 Frequencies --   1224.7354              1234.1014              1245.0404
 Red. masses --      1.6692                 1.4325                 1.5057
 Frc consts  --      1.4752                 1.2854                 1.3751
 IR Inten    --     22.7278                 1.0087                 6.8660

                     61                     62                     63
                      A                      A                      A
 Frequencies --   1260.3420              1285.3122              1307.2631
 Red. masses --      1.4076                 1.2568                 1.2011
 Frc consts  --      1.3173                 1.2233                 1.2093
 IR Inten    --     13.0104                 4.1733                 7.3762

                     64                     65                     66
                      A                      A                      A
 Frequencies --   1315.1219              1317.6473              1331.8900
 Red. masses --      1.2515                 1.3461                 1.4029
 Frc consts  --      1.2753                 1.3770                 1.4663
 IR Inten    --      1.6942                 1.6167                 5.3614

                     67                     68                     69
                      A                      A                      A
 Frequencies --   1336.2780              1343.5734              1348.6937
 Red. masses --      1.3496                 1.2679                 1.2358
 Frc consts  --      1.4199                 1.3485                 1.3244
 IR Inten    --      3.8094                 3.4542                 3.7545

                     70                     71                     72
                      A                      A                      A
 Frequencies --   1356.3016              1359.4781              1362.7476
 Red. masses --      1.3713                 1.4054                 1.3365
 Frc consts  --      1.4862                 1.5304                 1.4624
 IR Inten    --      4.2698                 0.8159                 3.2859

                     73                     74                     75
                      A                      A                      A
 Frequencies --   1377.5178              1392.6491              1402.6221
 Red. masses --      1.4077                 1.4112                 1.3856
 Frc consts  --      1.5738                 1.6126                 1.6061
 IR Inten    --      4.5124                 5.6658                25.6565

                     76                     77                     78
                      A                      A                      A
 Frequencies --   1412.3538              1414.3061              1416.2142
 Red. masses --      1.4081                 1.4845                 1.4932
 Frc consts  --      1.6549                 1.7495                 1.7645
 IR Inten    --     10.9820                 6.8313                14.3376

                     79                     80                     81
                      A                      A                      A
 Frequencies --   1427.4292              1439.5655              1450.9365
 Red. masses --      1.4018                 1.3967                 1.3507
 Frc consts  --      1.6828                 1.7054                 1.6754
 IR Inten    --     19.1836                 3.6183                 2.1053

                     82                     83                     84
                      A                      A                      A
 Frequencies --   1488.6695              1509.7654              1512.4360
 Red. masses --      1.1732                 1.0908                 1.0789
 Frc consts  --      1.5318                 1.4649                 1.4541
 IR Inten    --      1.0916                 4.6916                 1.0165

                     85                     86                     87
                      A                      A                      A
 Frequencies --   1514.6074              1520.2838              1522.3235
 Red. masses --      1.0810                 1.0912                 1.0854
 Frc consts  --      1.4610                 1.4860                 1.4820
 IR Inten    --      3.3167                 2.3395                 0.3589

                     88                     89                     90
                      A                      A                      A
 Frequencies --   1525.7878              1529.3269              1534.6071
 Red. masses --      1.0881                 1.0580                 1.0681
 Frc consts  --      1.4924                 1.4579                 1.4820
 IR Inten    --      4.7074                 2.3353                 1.8353

                     91                     92                     93
                      A                      A                      A
 Frequencies --   1537.7806              1541.1257              1542.2013
 Red. masses --      1.0931                 1.0888                 1.0994
 Frc consts  --      1.5230                 1.5236                 1.5406
 IR Inten    --      5.6696                 7.4421                 6.5420

                     94                     95                     96
                      A                      A                      A
 Frequencies --   1694.6455              2919.3614              2941.4963
 Red. masses --      1.0888                 1.0734                 1.0638
 Frc consts  --      1.8423                 5.3900                 5.4230
 IR Inten    --     31.8752                61.7108                71.6151

                     97                     98                     99
                      A                      A                      A
 Frequencies --   2962.3285              2967.7107              2983.6515
 Red. masses --      1.0717                 1.0722                 1.0833
 Frc consts  --      5.5411                 5.5640                 5.6817
 IR Inten    --     97.8153                50.6872                58.3447

                    100                    101                    102
                      A                      A                      A
 Frequencies --   2991.9593              3019.4978              3035.3539
 Red. masses --      1.0685                 1.0819                 1.0598
 Frc consts  --      5.6354                 5.8117                 5.7531
 IR Inten    --     47.5131                37.4875                46.0160

                    103                    104                    105
                      A                      A                      A
 Frequencies --   3037.2533              3043.5607              3048.9446
 Red. masses --      1.0801                 1.0608                 1.0646
 Frc consts  --      5.8706                 5.7897                 5.8311
 IR Inten    --     13.6478                25.9894                55.2362

                    106                    107                    108
                      A                      A                      A
 Frequencies --   3063.3592              3070.1712              3074.2490
 Red. masses --      1.0600                 1.0932                 1.0994
 Frc consts  --      5.8606                 6.0714                 6.1217
 IR Inten    --     32.1617                 4.8161                32.2477

                    109                    110                    111
                      A                      A                      A
 Frequencies --   3077.7237              3083.7526              3088.5573
 Red. masses --      1.0663                 1.1009                 1.1032
 Frc consts  --      5.9512                 6.1682                 6.2004
 IR Inten    --     49.1918                27.3491                54.2058

                    112                    113                    114
                      A                      A                      A
 Frequencies --   3092.0695              3094.3280              3100.3228
 Red. masses --      1.0899                 1.0959                 1.1024
 Frc consts  --      6.1396                 6.1823                 6.2433
 IR Inten    --     36.0247                46.2989                13.2857

                    115                    116                    117
                      A                      A                      A
 Frequencies --   3107.5574              3111.2823              3125.5475
 Red. masses --      1.0929                 1.0712                 1.1046
 Frc consts  --      6.2182                 6.1095                 6.3578
 IR Inten    --     57.0853                31.3427                65.3118

                    118                    119                    120
                      A                      A                      A
 Frequencies --   3159.5625              3473.3110              3562.5040
 Red. masses --      1.1000                 1.0507                 1.0905
 Frc consts  --      6.4698                 7.4682                 8.1541
 IR Inten    --     27.1264                 4.9024                 4.8508

 - Thermochemistry -
 -------------------
 Temperature   298.150 Kelvin.  Pressure   1.00000 Atm.
 Atom     1 has atomic number  6 and mass  12.00000

 Molecular mass:   226.20451 amu.
 Principal axes and moments of inertia in atomic units:
                           1         2         3
     Eigenvalues --  1740.112977136.629817854.89135
           X            0.99999   0.00351  -0.00321
           Y           -0.00353   0.99999  -0.00365
           Z            0.00319   0.00366   0.99999
 This molecule is an asymmetric top.
 Rotational symmetry number  1.
 Warning -- assumption of classical behavior for rotation
           may cause significant error
 Rotational temperatures (Kelvin)      0.04977     0.01214     0.01103
 Rotational constants (GHZ):           1.03714     0.25288     0.22976
 Zero-point vibrational energy    1025736.5 (Joules/Mol)
                                  245.15690 (Kcal/Mol)
 Warning -- explicit consideration of  24 degrees of freedom as
           vibrations may cause significant error
 Vibrational temperatures:     35.64    48.54    74.30    93.75   131.07
          (Kelvin)            169.55   212.30   257.97   292.24   324.60
                              352.13   368.56   398.47   453.12   504.69
                              509.40   529.89   568.90   601.40   629.25
                              662.24   691.04   791.52   842.51   926.60
                              950.15   978.40  1154.42  1164.39  1175.02
                             1226.35  1235.75  1263.66  1277.66  1292.20
                             1302.43  1345.63  1368.41  1385.84  1417.97
                             1431.39  1446.04  1466.90  1485.53  1500.26
                             1514.07  1516.17  1568.48  1597.39  1604.59
                             1634.34  1644.58  1674.50  1693.82  1723.73
                             1740.03  1745.47  1762.12  1775.60  1791.34
                             1813.35  1849.28  1880.86  1892.17  1895.80
                             1916.29  1922.61  1933.10  1940.47  1951.42
                             1955.99  1960.69  1981.94  2003.71  2018.06
                             2032.06  2034.87  2037.62  2053.75  2071.21
                             2087.57  2141.86  2172.22  2176.06  2179.18
                             2187.35  2190.28  2195.27  2200.36  2207.96
                             2212.52  2217.34  2218.88  2438.22  4200.31
                             4232.16  4262.13  4269.87  4292.81  4304.76
                             4344.38  4367.20  4369.93  4379.01  4386.75
                             4407.49  4417.29  4423.16  4428.16  4436.83
                             4443.75  4448.80  4452.05  4460.67  4471.08
                             4476.44  4496.97  4545.91  4997.32  5125.65

 Zero-point correction=                           0.390682 (Hartree/Particle)
 Thermal correction to Energy=                    0.407151
 Thermal correction to Enthalpy=                  0.408096
 Thermal correction to Gibbs Free Energy=         0.345604
 Sum of electronic and zero-point Energies=           -695.425490
 Sum of electronic and thermal Energies=              -695.409021
 Sum of electronic and thermal Enthalpies=            -695.408077
 Sum of electronic and thermal Free Energies=         -695.470569

                     E (Thermal)             CV                S
                      KCal/Mol        Cal/Mol-Kelvin    Cal/Mol-Kelvin
 Total                  255.491             64.131            131.525
 Electronic               0.000              0.000              0.000
 Translational            0.889              2.981             42.151
 Rotational               0.889              2.981             32.945
 Vibrational            253.714             58.170             56.429
 Vibration     1          0.593              1.985              6.210
 Vibration     2          0.594              1.983              5.597
 Vibration     3          0.596              1.977              4.754
 Vibration     4          0.597              1.971              4.294
 Vibration     5          0.602              1.956              3.636
 Vibration     6          0.608              1.935              3.135
 Vibration     7          0.617              1.905              2.703
 Vibration     8          0.629              1.868              2.336
 Vibration     9          0.639              1.835              2.105
 Vibration    10          0.650              1.802              1.914
 Vibration    11          0.660              1.771              1.768
 Vibration    12          0.666              1.752              1.688
 Vibration    13          0.678              1.716              1.552
 Vibration    14          0.702              1.645              1.336
 Vibration    15          0.728              1.574              1.163
 Vibration    16          0.730              1.567              1.148
 Vibration    17          0.741              1.537              1.087
 Vibration    18          0.762              1.480              0.980
 Vibration    19          0.781              1.431              0.899
 Vibration    20          0.798              1.389              0.835
 Vibration    21          0.818              1.338              0.765
 Vibration    22          0.837              1.294              0.709
 Vibration    23          0.905              1.139              0.544
 Vibration    24          0.943              1.063              0.475

 Optimization completed.
    -- Stationary point found.
 Normal termination of Gaussian 16 at Fri Dec 11 00:21:55 2020.

 ----------------------------------------------------------------------
 # B3LYP/6-311++G(d,p) empiricaldispersion=gd3bj scf=xqc pop=npa geom=c
 heck
 ----------------------------------------------------------------------

 --------------------------------------
 CID_63712696_JID_6636_Energie_neutraal
 --------------------------------------
 Structure from the checkpoint file:  "JID_6636.chk"
 Charge =  0 Multiplicity = 1

 SCF Done:  E(RB3LYP) =  -696.015814172     A.U. after   14 cycles
 Normal termination of Gaussian 16 at Fri Dec 11 00:28:56 2020.

 ----------------------------------------------------------------------
 # B3LYP/6-311++G(d,p) empiricaldispersion=gd3bj scf=xqc pop=npa geom=c
 heck
 ----------------------------------------------------------------------

 ------------------------------------
 CID_63712696_JID_6636_Energie_kation
 ------------------------------------
 Structure from the checkpoint file:  "JID_6636.chk"
 Charge =  1 Multiplicity = 2

 SCF Done:  E(UB3LYP) =  -695.726184813     A.U. after   23 cycles
 Normal termination of Gaussian 16 at Fri Dec 11 00:45:23 2020.
 Gaussian 16:  ES64L-G16RevA.03 25-Dec-2016

 ----------------------------------------------------------------------
 # B3LYP/6-311++G(d,p) empiricaldispersion=gd3bj scf=xqc pop=npa geom=c
 heck
 ----------------------------------------------------------------------

 -----------------------------------
 CID_63712696_JID_6636_Energie_anion
 -----------------------------------
 Structure from the checkpoint file:  "JID_6636.chk"
 Charge = -1 Multiplicity = 2

                         Standard orientation:
 ---------------------------------------------------------------------
 Center     Atomic      Atomic             Coordinates (Angstroms)
 Number     Number       Type             X           Y           Z
 ---------------------------------------------------------------------
      1          6           0        0.072557    2.065640   -1.118200
      2          7           0        0.058022    1.167891    0.032119
      3          6           0       -1.061549    1.462676    0.937537
      4          6           0       -2.317261    0.602980    0.713850
      5          6           0       -2.046696   -0.897657    0.897327
      6          6           0       -3.332218   -1.708174    0.686086
      7          6           0       -3.980785   -1.327146   -0.645078
      8          8           0       -4.214995    0.072111   -0.732181
      9          6           0       -3.004032    0.812059   -0.640837
     10          6           0        1.349063    1.174306    0.732470
     11          6           0        2.506565    0.625439   -0.099338
     12          6           0        3.809505    0.461495    0.726575
     13          6           0        4.535236   -0.780987    0.139580
     14          6           0        3.682605   -1.215947   -1.070742
     15          6           0        2.258790   -0.766844   -0.718101
     16          7           0        1.697456   -1.666118    0.298305
     17          1           0       -0.909400    2.087835   -1.593959
     18          1           0        0.791471    1.718070   -1.864586
     19          1           0        0.338195    3.104057   -0.839207
     20          1           0       -0.726940    1.276174    1.964449
     21          1           0       -1.333085    2.532976    0.895102
     22          1           0       -3.044068    0.916583    1.478323
     23          1           0       -1.295231   -1.202745    0.157315
     24          1           0       -1.621422   -1.093505    1.890376
     25          1           0       -3.125204   -2.785900    0.703478
     26          1           0       -4.041305   -1.497333    1.496879
     27          1           0       -3.333855   -1.649028   -1.480955
     28          1           0       -4.956916   -1.805695   -0.768168
     29          1           0       -3.277097    1.861866   -0.791940
     30          1           0       -2.326847    0.506904   -1.455533
     31          1           0        1.609181    2.190647    1.091596
     32          1           0        1.246087    0.541597    1.619751
     33          1           0        2.715428    1.309569   -0.932026
     34          1           0        3.571148    0.298494    1.782541
     35          1           0        4.425016    1.365612    0.673050
     36          1           0        4.559800   -1.582499    0.882386
     37          1           0        5.570430   -0.566516   -0.145311
     38          1           0        3.748026   -2.290779   -1.278950
     39          1           0        4.004364   -0.690186   -1.978731
     40          1           0        1.625726   -0.687511   -1.616631
     41          1           0        0.737968   -1.383423    0.487023
     42          1           0        1.649467   -2.611595   -0.078571
 ---------------------------------------------------------------------

 SCF Done:  E(UB3LYP) =  -696.001639493     A.U. after   29 cycles

 The electronic state is 2-A.
 Alpha  occ. eigenvalues --  -19.03019 -14.21187 -14.18489 -10.12016 -10.11983
 Alpha  occ. eigenvalues --  -10.10231 -10.09353 -10.08990 -10.08904 -10.08058
 Alpha  occ. eigenvalues --  -10.07312 -10.07113 -10.06816 -10.06335 -10.06302
 Alpha  occ. eigenvalues --  -10.06172  -0.94473  -0.83161  -0.78916  -0.71736
 Alpha  occ. eigenvalues --   -0.70785  -0.67829  -0.64333  -0.61337  -0.59362
 Alpha  occ. eigenvalues --   -0.57580  -0.55136  -0.52806  -0.49731  -0.47015
 Alpha  occ. eigenvalues --   -0.46407  -0.44499  -0.40603  -0.40134  -0.39233
 Alpha  occ. eigenvalues --   -0.38896  -0.37597  -0.37156  -0.36269  -0.34840
 Alpha  occ. eigenvalues --   -0.34614  -0.33398  -0.32814  -0.32338  -0.30752
 Alpha  occ. eigenvalues --   -0.29535  -0.28826  -0.28692  -0.28082  -0.27027
 Alpha  occ. eigenvalues --   -0.25553  -0.25029  -0.24449  -0.23882  -0.23349
 Alpha  occ. eigenvalues --   -0.23156  -0.22476  -0.22303  -0.21313  -0.21016
 Alpha  occ. eigenvalues --   -0.16280  -0.14119  -0.12683   0.04325
 Alpha virt. eigenvalues --    0.06182   0.06602   0.07252   0.07838   0.08254
 Alpha virt. eigenvalues --    0.08575   0.09219   0.09320   0.09862   0.10238
 Alpha virt. eigenvalues --    0.10849   0.11065   0.11230   0.11999   0.12427

  Beta  occ. eigenvalues --  -19.03014 -14.21175 -14.18462 -10.12000 -10.11972
  Beta  occ. eigenvalues --  -10.10223 -10.09344 -10.08964 -10.08893 -10.08054
  Beta  occ. eigenvalues --  -10.07292 -10.07098 -10.06807 -10.06324 -10.06293
  Beta  occ. eigenvalues --  -10.06153  -0.94462  -0.83138  -0.78881  -0.71712
  Beta  occ. eigenvalues --   -0.70754  -0.67801  -0.64307  -0.61303  -0.59323
  Beta  occ. eigenvalues --   -0.57545  -0.55098  -0.52769  -0.49684  -0.46972
  Beta  occ. eigenvalues --   -0.46369  -0.44458  -0.40568  -0.40101  -0.39200
  Beta  occ. eigenvalues --   -0.38858  -0.37567  -0.37127  -0.36239  -0.34810
  Beta  occ. eigenvalues --   -0.34586  -0.33364  -0.32786  -0.32309  -0.30721
  Beta  occ. eigenvalues --   -0.29506  -0.28800  -0.28666  -0.28059  -0.27005
  Beta  occ. eigenvalues --   -0.25523  -0.25001  -0.24421  -0.23854  -0.23323
  Beta  occ. eigenvalues --   -0.23128  -0.22454  -0.22274  -0.21287  -0.20991
  Beta  occ. eigenvalues --   -0.16254  -0.14080  -0.12622
  Beta virt. eigenvalues --    0.06326   0.06892   0.07193   0.07647   0.08344
  Beta virt. eigenvalues --    0.08503   0.08839   0.09557   0.09648   0.10185
  Beta virt. eigenvalues --    0.10474   0.11070   0.11254   0.11478   0.12309

 Mulliken charges and spin densities:
               1          2
     1  C    0.328992  -0.675764
     2  N    0.300782   0.082489
     3  C   -0.448970  -0.193955
     4  C    0.580578  -0.092783
     5  C   -0.691701   0.511523
     6  C    0.089865  -0.588938
     7  C    0.421784  -0.698613
     8  O   -0.148328   0.034199
     9  C   -0.356250  -0.302824
    10  C   -0.433523  -0.747948
    11  C    0.259798   0.837052
    12  C    0.158450  -0.937047
    13  C   -0.188822  -0.034122
    14  C    0.080951  -0.718464
    15  C    0.107747  -0.505941
    16  N   -0.329434   0.105055
    17  H   -0.381262   0.502780
    18  H   -0.084201   0.232913
    19  H   -0.140064   0.256188
    20  H   -0.086433   0.218952
    21  H    0.027091   0.124064
    22  H    0.003084   0.176040
    23  H    0.453724  -0.290750
    24  H   -0.165669   0.320972
    25  H   -0.520860   0.685427
    26  H    0.108252   0.027623
    27  H   -0.178393   0.291400
    28  H   -0.068341   0.254239
    29  H    0.058144   0.115925
    30  H    0.265742  -0.080168
    31  H   -0.030002   0.164694
    32  H    0.335389  -0.127146
    33  H   -0.091876   0.306139
    34  H   -0.040693   0.159670
    35  H   -0.075544   0.207436
    36  H    0.188679  -0.052644
    37  H   -0.064625   0.208948
    38  H   -0.221848   0.380667
    39  H   -0.086230   0.213643
    40  H   -0.062061   0.285782
    41  H    0.107870   0.136005
    42  H    0.018205   0.207281
 Sum of Mulliken charges =  -1.00000   1.00000

 Dipole moment (field-independent basis, Debye):
    X=             -0.7498    Y=              2.1333    Z=              2.4770  Tot=              3.3539
 Quadrupole moment (field-independent basis, Debye-Ang):
   XX=           -184.4198   YY=           -153.3704   ZZ=           -139.2797
   XY=             -6.8643   XZ=              1.9212   YZ=              2.4383

 Summary of Natural Population Analysis:

                                       Natural Population
                Natural  -----------------------------------------------
    Atom  No    Charge         Core      Valence    Rydberg      Total
 -----------------------------------------------------------------------
      C    1   -0.17685      0.99963     2.16814    0.00908     3.17685
      N    2   -0.29286      0.99972     2.78096    0.01219     3.79286
      C    3   -0.07605      0.99958     2.06645    0.01002     3.07605
      C    4   -0.12600      0.99958     2.11639    0.01003     3.12600
      C    5   -0.19417      0.99960     2.18440    0.01016     3.19417
      C    6   -0.20239      0.99963     2.19414    0.00863     3.20239
      C    7   -0.00989      0.99958     1.99665    0.01366     3.00989
      O    8   -0.30140      0.99989     3.29231    0.00921     4.30140
      C    9   -0.00865      0.99954     1.99806    0.01106     3.00865
      C   10   -0.08030      0.99958     2.06992    0.01080     3.08030
      C   11   -0.11667      0.99957     2.10561    0.01148     3.11667
      C   12   -0.18801      0.99963     2.17977    0.00860     3.18801
      C   13   -0.19105      0.99964     2.18420    0.00720     3.19105
      C   14   -0.19093      0.99962     2.18259    0.00872     3.19093
      C   15   -0.01083      0.99957     1.99774    0.01352     3.01083
      N   16   -0.43189      0.99975     2.92170    0.01043     3.93189
      H   17    0.09543      0.00000     0.40330    0.00127     0.40457
      H   18    0.09920      0.00000     0.39944    0.00136     0.40080
      H   19    0.08084      0.00000     0.41780    0.00135     0.41916
      H   20    0.09731      0.00000     0.40143    0.00125     0.40269
      H   21    0.08638      0.00000     0.41233    0.00128     0.41362
      H   22    0.09561      0.00000     0.40275    0.00164     0.40439
      H   23    0.09906      0.00000     0.39810    0.00284     0.40094
      H   24    0.09969      0.00000     0.39898    0.00133     0.40031
      H   25    0.10311      0.00000     0.39533    0.00156     0.39689
      H   26    0.09388      0.00000     0.40484    0.00128     0.40612
      H   27    0.07795      0.00000     0.42051    0.00154     0.42205
      H   28    0.08993      0.00000     0.40887    0.00120     0.41007
      H   29    0.08995      0.00000     0.40866    0.00139     0.41005
      H   30    0.08111      0.00000     0.41705    0.00184     0.41889
      H   31    0.08371      0.00000     0.41504    0.00125     0.41629
      H   32    0.09884      0.00000     0.39960    0.00156     0.40116
      H   33    0.09975      0.00000     0.39829    0.00196     0.40025
      H   34    0.09729      0.00000     0.40158    0.00113     0.40271
      H   35    0.09730      0.00000     0.40169    0.00101     0.40270
      H   36    0.09865      0.00000     0.40008    0.00128     0.40135
      H   37    0.09487      0.00000     0.40404    0.00109     0.40513
      H   38    0.09827      0.00000     0.40071    0.00101     0.40173
      H   39    0.09822      0.00000     0.40032    0.00147     0.40178
      H   40    0.08719      0.00000     0.41067    0.00213     0.41281
      H   41    0.17892      0.00000     0.31828    0.00280     0.32108
      H   42    0.17545      0.00000     0.32262    0.00193     0.32455
 =======================================================================
   * Total *    0.00000     15.99413    46.80133    0.20455    63.00000

 Normal termination of Gaussian 16 at Fri Dec 11 01:05:11 2020.
