 Gaussian 16, Revision A.03,

 -----------------------------------------------------------
 # opt freq B3LYP/6-31G(d) empiricaldispersion=gd3bj scf=xqc
 -----------------------------------------------------------

 ------------------------------
 CID_62961033_JID_4808_neutraal
 ------------------------------
 Symbolic Z-matrix:
 Charge =  0 Multiplicity = 1

 SCF Done:  E(RB3LYP) =  -974.856830587     A.U. after   14 cycles
 SCF Done:  E(RB3LYP) =  -974.856898776     A.U. after   13 cycles
 SCF Done:  E(RB3LYP) =  -974.862247561     A.U. after   14 cycles
 SCF Done:  E(RB3LYP) =  -974.863564194     A.U. after   12 cycles
 SCF Done:  E(RB3LYP) =  -974.864361749     A.U. after   11 cycles
 SCF Done:  E(RB3LYP) =  -974.865032603     A.U. after   12 cycles
 SCF Done:  E(RB3LYP) =  -974.865496506     A.U. after   11 cycles
 SCF Done:  E(RB3LYP) =  -974.865899421     A.U. after   12 cycles
 SCF Done:  E(RB3LYP) =  -974.866042200     A.U. after   11 cycles
 SCF Done:  E(RB3LYP) =  -974.866108920     A.U. after   11 cycles
 SCF Done:  E(RB3LYP) =  -974.866121788     A.U. after    8 cycles
 SCF Done:  E(RB3LYP) =  -974.866122214     A.U. after    8 cycles
 SCF Done:  E(RB3LYP) =  -974.866122366     A.U. after    8 cycles
 SCF Done:  E(RB3LYP) =  -974.866122469     A.U. after    7 cycles
 SCF Done:  E(RB3LYP) =  -974.866122487     A.U. after    7 cycles
 Optimization completed.
    -- Stationary point found.
 Normal termination of Gaussian 16 at Thu Dec 10 10:20:21 2020.

 --------------------------------------------------------------------
 #N Geom=AllCheck Guess=TCheck SCRF=Check GenChk RB3LYP/6-31G(d) Freq
 --------------------------------------------------------------------

 Structure from the checkpoint file:  "JID_4808.chk"
 ------------------------------
 CID_62961033_JID_4808_neutraal
 ------------------------------
 Charge =  0 Multiplicity = 1

 SCF Done:  E(RB3LYP) =  -974.866122487     A.U. after    1 cycles

  Exact polarizability: 156.042  -3.856 148.732  12.740   2.735 104.481
 Approx polarizability: 222.317  -7.609 220.663  27.513   3.699 156.064

                      1                      2                      3
                      A                      A                      A
 Frequencies --     21.2804                24.6116                39.5892
 Red. masses --      3.9384                 2.8723                 3.1729
 Frc consts  --      0.0011                 0.0010                 0.0029
 IR Inten    --      0.0511                 0.2358                 0.1959

                      4                      5                      6
                      A                      A                      A
 Frequencies --     61.9361                72.0053               113.7071
 Red. masses --      2.6471                 4.0279                 3.7615
 Frc consts  --      0.0060                 0.0123                 0.0287
 IR Inten    --      0.8418                 1.8320                 0.7140

                      7                      8                      9
                      A                      A                      A
 Frequencies --    149.5687               162.3949               206.8361
 Red. masses --      2.3670                 2.7552                 1.7453
 Frc consts  --      0.0312                 0.0428                 0.0440
 IR Inten    --      0.1535                 2.0248                 0.3697

                     10                     11                     12
                      A                      A                      A
 Frequencies --    224.1494               229.6597               247.7491
 Red. masses --      1.2098                 1.4450                 2.6149
 Frc consts  --      0.0358                 0.0449                 0.0946
 IR Inten    --      1.6801                 2.1856                 1.8645

                     13                     14                     15
                      A                      A                      A
 Frequencies --    268.2827               307.5999               320.7733
 Red. masses --      1.3303                 3.9148                 2.8056
 Frc consts  --      0.0564                 0.2182                 0.1701
 IR Inten    --      0.3526                 1.5040                 4.4229

                     16                     17                     18
                      A                      A                      A
 Frequencies --    356.7526               380.1188               413.0546
 Red. masses --      3.1000                 3.2916                 2.4831
 Frc consts  --      0.2325                 0.2802                 0.2496
 IR Inten    --      2.8890                 0.6302                 0.4023

                     19                     20                     21
                      A                      A                      A
 Frequencies --    446.2015               477.4383               517.7917
 Red. masses --      3.6797                 2.1485                 3.0836
 Frc consts  --      0.4316                 0.2886                 0.4871
 IR Inten    --      0.4697                 1.6793                 6.3338

                     22                     23                     24
                      A                      A                      A
 Frequencies --    553.7418               581.6946               596.7491
 Red. masses --      5.2798                 6.9072                 5.0494
 Frc consts  --      0.9539                 1.3770                 1.0594
 IR Inten    --      1.1215                 8.8241                14.6735

                     25                     26                     27
                      A                      A                      A
 Frequencies --    690.3900               721.1212               766.5741
 Red. masses --      4.6023                 1.2810                 3.4783
 Frc consts  --      1.2925                 0.3925                 1.2043
 IR Inten    --      0.5986                20.4404                 8.8312

                     28                     29                     30
                      A                      A                      A
 Frequencies --    798.9672               815.1408               837.1676
 Red. masses --      1.8095                 1.5936                 3.7154
 Frc consts  --      0.6806                 0.6239                 1.5342
 IR Inten    --     16.4448                10.6408                14.0864

                     31                     32                     33
                      A                      A                      A
 Frequencies --    859.2386               913.1854               934.9955
 Red. masses --      2.4520                 2.5113                 1.2758
 Frc consts  --      1.0666                 1.2339                 0.6571
 IR Inten    --     17.2846                28.3123                 0.9136

                     34                     35                     36
                      A                      A                      A
 Frequencies --    948.1517               955.4569               959.5188
 Red. masses --      2.0348                 1.5135                 1.5083
 Frc consts  --      1.0778                 0.8141                 0.8182
 IR Inten    --     12.2740                 1.8542                17.2144

                     37                     38                     39
                      A                      A                      A
 Frequencies --   1010.6192              1028.5531              1046.5242
 Red. masses --      2.1786                 3.1164                 2.5025
 Frc consts  --      1.3110                 1.9425                 1.6148
 IR Inten    --      2.7073                27.2577                30.8688

                     40                     41                     42
                      A                      A                      A
 Frequencies --   1086.9037              1093.6797              1106.6810
 Red. masses --      2.4303                 1.9263                 1.4908
 Frc consts  --      1.6916                 1.3575                 1.0758
 IR Inten    --      5.8698                10.5228                 0.2786

                     43                     44                     45
                      A                      A                      A
 Frequencies --   1152.0217              1159.9709              1170.3561
 Red. masses --      2.4176                 2.3180                 1.4533
 Frc consts  --      1.8904                 1.8376                 1.1729
 IR Inten    --      6.3386                21.7678                41.5147

                     46                     47                     48
                      A                      A                      A
 Frequencies --   1209.6214              1219.9469              1273.8068
 Red. masses --      2.0157                 1.6057                 1.6487
 Frc consts  --      1.7377                 1.4080                 1.5762
 IR Inten    --     29.7693                16.3588                99.7983

                     49                     50                     51
                      A                      A                      A
 Frequencies --   1278.4101              1292.4287              1322.5902
 Red. masses --      3.2580                 1.3714                 1.2076
 Frc consts  --      3.1372                 1.3497                 1.2445
 IR Inten    --    235.7566                12.2756                15.0449

                     52                     53                     54
                      A                      A                      A
 Frequencies --   1365.0095              1366.3904              1375.7309
 Red. masses --      1.7133                 1.5980                 1.7849
 Frc consts  --      1.8809                 1.7578                 1.9903
 IR Inten    --     39.4517                 9.2506                24.4720

                     55                     56                     57
                      A                      A                      A
 Frequencies --   1377.0935              1403.1131              1421.5140
 Red. masses --      1.3667                 1.2996                 1.2782
 Frc consts  --      1.5270                 1.5074                 1.5218
 IR Inten    --     10.7709                10.0654                 9.9723

                     58                     59                     60
                      A                      A                      A
 Frequencies --   1436.0066              1438.4710              1442.0908
 Red. masses --      1.2610                 1.3163                 1.2667
 Frc consts  --      1.5321                 1.6048                 1.5521
 IR Inten    --      5.5041                 4.9948                10.0876

                     61                     62                     63
                      A                      A                      A
 Frequencies --   1507.3746              1508.1399              1514.0174
 Red. masses --      1.1139                 1.1121                 1.0500
 Frc consts  --      1.4913                 1.4903                 1.4180
 IR Inten    --     13.5745                 9.6796                 1.1029

                     64                     65                     66
                      A                      A                      A
 Frequencies --   1515.7792              1524.8168              1525.2243
 Red. masses --      1.0562                 1.0441                 1.0554
 Frc consts  --      1.4298                 1.4303                 1.4465
 IR Inten    --      2.0244                 8.3458                 6.8135

                     67                     68                     69
                      A                      A                      A
 Frequencies --   1534.1011              1537.4408              1540.7888
 Red. masses --      1.0727                 1.0713                 1.0808
 Frc consts  --      1.4875                 1.4920                 1.5117
 IR Inten    --      0.2106                 4.4946                 5.9380

                     70                     71                     72
                      A                      A                      A
 Frequencies --   1566.2981              1601.6286              1604.5961
 Red. masses --      1.1874                 5.7267                 5.9789
 Frc consts  --      1.7164                 8.6552                 9.0699
 IR Inten    --     74.8442                92.4011               180.2609

                     73                     74                     75
                      A                      A                      A
 Frequencies --   2959.6528              3015.1436              3032.2659
 Red. masses --      1.0716                 1.0840                 1.0670
 Frc consts  --      5.5307                 5.8062                 5.7805
 IR Inten    --     46.9086                26.3047                25.9410

                     76                     77                     78
                      A                      A                      A
 Frequencies --   3037.5312              3040.8241              3043.4365
 Red. masses --      1.0387                 1.0852                 1.0400
 Frc consts  --      5.6468                 5.9119                 5.6757
 IR Inten    --     18.5885                36.2326                39.1181

                     79                     80                     81
                      A                      A                      A
 Frequencies --   3056.3551              3088.2809              3091.1636
 Red. masses --      1.0349                 1.0957                 1.0615
 Frc consts  --      5.6960                 6.1572                 5.9758
 IR Inten    --     28.6082                18.0604                32.2666

                     82                     83                     84
                      A                      A                      A
 Frequencies --   3100.1423              3108.7962              3118.2089
 Red. masses --      1.1000                 1.0991                 1.1005
 Frc consts  --      6.2286                 6.2587                 6.3047
 IR Inten    --      3.3003               102.4587                34.4952

                     85                     86                     87
                      A                      A                      A
 Frequencies --   3124.3931              3135.2981              3136.2115
 Red. masses --      1.1033                 1.1021                 1.1027
 Frc consts  --      6.3459                 6.3829                 6.3902
 IR Inten    --     34.2419                27.0270                32.8642

                     88                     89                     90
                      A                      A                      A
 Frequencies --   3157.7483              3276.7128              3463.0697
 Red. masses --      1.1070                 1.0948                 1.0735
 Frc consts  --      6.5036                 6.9256                 7.5857
 IR Inten    --     21.8953                 1.7352               123.4799

 - Thermochemistry -
 -------------------
 Temperature   298.150 Kelvin.  Pressure   1.00000 Atm.
 Atom     1 has atomic number  6 and mass  12.00000

 Molecular mass:   214.11399 amu.
 Principal axes and moments of inertia in atomic units:
                           1         2         3
     Eigenvalues --  2429.679654252.944255697.89793
           X            0.99970   0.02121  -0.01217
           Y           -0.02129   0.99975  -0.00682
           Z            0.01202   0.00707   0.99990
 This molecule is an asymmetric top.
 Rotational symmetry number  1.
 Warning -- assumption of classical behavior for rotation
           may cause significant error
 Rotational temperatures (Kelvin)      0.03565     0.02037     0.01520
 Rotational constants (GHZ):           0.74279     0.42435     0.31674
 Zero-point vibrational energy     726830.5 (Joules/Mol)
                                  173.71666 (Kcal/Mol)
 Warning -- explicit consideration of  24 degrees of freedom as
           vibrations may cause significant error
 Vibrational temperatures:     30.62    35.41    56.96    89.11   103.60
          (Kelvin)            163.60   215.20   233.65   297.59   322.50
                              330.43   356.46   386.00   442.57   461.52
                              513.29   546.91   594.29   641.98   686.93
                              744.99   796.71   836.93   858.59   993.32
                             1037.53  1102.93  1149.54  1172.81  1204.50
                             1236.25  1313.87  1345.25  1364.18  1374.69
                             1380.53  1454.06  1479.86  1505.71  1563.81
                             1573.56  1592.27  1657.50  1668.94  1683.88
                             1740.38  1755.23  1832.72  1839.35  1859.52
                             1902.91  1963.94  1965.93  1979.37  1981.33
                             2018.77  2045.24  2066.09  2069.64  2074.85
                             2168.78  2169.88  2178.33  2180.87  2193.87
                             2194.46  2207.23  2212.03  2216.85  2253.55
                             2304.39  2308.66  4258.28  4338.12  4362.75
                             4370.33  4375.07  4378.83  4397.41  4443.35
                             4447.49  4460.41  4472.86  4486.41  4495.30
                             4510.99  4512.31  4543.30  4714.46  4982.58

 Zero-point correction=                           0.276835 (Hartree/Particle)
 Thermal correction to Energy=                    0.292703
 Thermal correction to Enthalpy=                  0.293647
 Thermal correction to Gibbs Free Energy=         0.231315
 Sum of electronic and zero-point Energies=           -974.589287
 Sum of electronic and thermal Energies=              -974.573419
 Sum of electronic and thermal Enthalpies=            -974.572475
 Sum of electronic and thermal Free Energies=         -974.634808

                     E (Thermal)             CV                S
                      KCal/Mol        Cal/Mol-Kelvin    Cal/Mol-Kelvin
 Total                  183.674             57.764            131.190
 Electronic               0.000              0.000              0.000
 Translational            0.889              2.981             41.987
 Rotational               0.889              2.981             32.443
 Vibrational            181.897             51.803             56.760
 Vibration     1          0.593              1.985              6.511
 Vibration     2          0.593              1.985              6.222
 Vibration     3          0.594              1.981              5.280
 Vibration     4          0.597              1.972              4.395
 Vibration     5          0.598              1.967              4.098
 Vibration     6          0.607              1.938              3.205
 Vibration     7          0.618              1.903              2.678
 Vibration     8          0.623              1.889              2.522
 Vibration     9          0.641              1.830              2.071
 Vibration    10          0.649              1.804              1.925
 Vibration    11          0.652              1.796              1.882
 Vibration    12          0.661              1.767              1.747
 Vibration    13          0.673              1.731              1.607
 Vibration    14          0.697              1.659              1.375
 Vibration    15          0.706              1.634              1.306
 Vibration    16          0.732              1.561              1.136
 Vibration    17          0.750              1.513              1.039
 Vibration    18          0.777              1.442              0.916
 Vibration    19          0.805              1.369              0.807
 Vibration    20          0.834              1.300              0.717
 Vibration    21          0.873              1.211              0.615
 Vibration    22          0.909              1.132              0.536
 Vibration    23          0.938              1.071              0.482
 Vibration    24          0.955              1.039              0.455

                           ! Non-Optimized Parameters !
 Normal termination of Gaussian 16 at Thu Dec 10 10:30:04 2020.

 ----------------------------------------------------------------------
 # B3LYP/6-311++G(d,p) empiricaldispersion=gd3bj scf=xqc pop=npa geom=c
 heck
 ----------------------------------------------------------------------

 --------------------------------------
 CID_62961033_JID_4808_Energie_neutraal
 --------------------------------------
 Structure from the checkpoint file:  "JID_4808.chk"
 Charge =  0 Multiplicity = 1

 SCF Done:  E(RB3LYP) =  -975.055523750     A.U. after   15 cycles
 Normal termination of Gaussian 16 at Thu Dec 10 10:35:29 2020.

 ----------------------------------------------------------------------
 # B3LYP/6-311++G(d,p) empiricaldispersion=gd3bj scf=xqc pop=npa geom=c
 heck
 ----------------------------------------------------------------------

 ------------------------------------
 CID_62961033_JID_4808_Energie_kation
 ------------------------------------
 Structure from the checkpoint file:  "JID_4808.chk"
 Charge =  1 Multiplicity = 2

 SCF Done:  E(UB3LYP) =  -974.771771440     A.U. after   24 cycles
 Normal termination of Gaussian 16 at Thu Dec 10 10:46:59 2020.
 Gaussian 16:  ES64L-G16RevA.03 25-Dec-2016

 ----------------------------------------------------------------------
 # B3LYP/6-311++G(d,p) empiricaldispersion=gd3bj scf=xqc pop=npa geom=c
 heck
 ----------------------------------------------------------------------

 -----------------------------------
 CID_62961033_JID_4808_Energie_anion
 -----------------------------------
 Structure from the checkpoint file:  "JID_4808.chk"
 Charge = -1 Multiplicity = 2

                         Standard orientation:
 ---------------------------------------------------------------------
 Center     Atomic      Atomic             Coordinates (Angstroms)
 Number     Number       Type             X           Y           Z
 ---------------------------------------------------------------------
      1          6           0        0.750132    3.021830   -1.298577
      2          6           0        1.121113    2.592886    0.128522
      3          6           0        1.621921    1.179313    0.195767
      4          6           0        2.828589    0.765817    0.669905
      5         16           0        2.973487   -0.977313    0.563200
      6          6           0        1.353500   -0.998726   -0.127419
      7          7           0        0.789973    0.162352   -0.260777
      8          8           0        0.845959   -2.185270   -0.453245
      9          6           0       -0.428346   -2.216862   -1.151522
     10          6           0       -1.632099   -1.860615   -0.271776
     11          7           0       -2.094476   -0.505015   -0.532807
     12          6           0       -3.157638   -0.023361    0.351959
     13          6           0       -2.726229    0.144322    1.820173
     14          6           0       -3.687391    1.297221   -0.212249
     15          1           0        1.625048    2.984352   -1.956560
     16          1           0        0.356925    4.044002   -1.307062
     17          1           0       -0.011745    2.355032   -1.713903
     18          1           0        1.882664    3.262753    0.543131
     19          1           0        0.235499    2.683612    0.773207
     20          1           0        3.629877    1.365085    1.078185
     21          1           0       -0.381210   -1.547693   -2.016001
     22          1           0       -0.480503   -3.251360   -1.492999
     23          1           0       -2.453649   -2.550966   -0.508014
     24          1           0       -1.346193   -2.069205    0.775322
     25          1           0       -1.285940    0.114453   -0.464491
     26          1           0       -3.967800   -0.766847    0.311685
     27          1           0       -1.920419    0.886024    1.895055
     28          1           0       -3.560860    0.487810    2.442635
     29          1           0       -2.357410   -0.793765    2.248030
     30          1           0       -4.017177    1.165674   -1.246881
     31          1           0       -4.523868    1.678667    0.383967
     32          1           0       -2.896486    2.059221   -0.204149
 ---------------------------------------------------------------------

 SCF Done:  E(UB3LYP) =  -975.039713664     A.U. after   33 cycles
 SCF Done:  E(UB3LYP) =  -975.039713664     a.u. after    1 cycles

 The electronic state is 2-A.
 Alpha  occ. eigenvalues --  -88.79084 -19.08557 -14.22017 -14.18819 -10.20341
 Alpha  occ. eigenvalues --  -10.14356 -10.11761 -10.10296 -10.10114 -10.10016
 Alpha  occ. eigenvalues --  -10.08015 -10.06518 -10.05927 -10.05912  -7.87704
 Alpha  occ. eigenvalues --   -5.84001  -5.83657  -5.83253  -1.00902  -0.86920
 Alpha  occ. eigenvalues --   -0.80987  -0.71203  -0.70046  -0.68535  -0.64719
 Alpha  occ. eigenvalues --   -0.61037  -0.58881  -0.55141  -0.52657  -0.50153
 Alpha  occ. eigenvalues --   -0.48710  -0.46141  -0.42716  -0.40014  -0.39195
 Alpha  occ. eigenvalues --   -0.37164  -0.36201  -0.35362  -0.34222  -0.33543
 Alpha  occ. eigenvalues --   -0.33017  -0.31861  -0.31568  -0.29524  -0.28917
 Alpha  occ. eigenvalues --   -0.28789  -0.27686  -0.27420  -0.26272  -0.25389
 Alpha  occ. eigenvalues --   -0.24919  -0.24504  -0.23977  -0.23303  -0.19826
 Alpha  occ. eigenvalues --   -0.19302  -0.13427  -0.12557   0.04365
 Alpha virt. eigenvalues --    0.05743   0.06645   0.07187   0.07631   0.08333
 Alpha virt. eigenvalues --    0.08703   0.09083   0.09427   0.09779   0.10146
 Alpha virt. eigenvalues --    0.11011   0.11333   0.11688   0.12397   0.12483

  Beta  occ. eigenvalues --  -88.79081 -19.08556 -14.22010 -14.18815 -10.20341
  Beta  occ. eigenvalues --  -10.14341 -10.11760 -10.10279 -10.10079 -10.10006
  Beta  occ. eigenvalues --  -10.07987 -10.06495 -10.05903 -10.05892  -7.87700
  Beta  occ. eigenvalues --   -5.83995  -5.83653  -5.83250  -1.00898  -0.86905
  Beta  occ. eigenvalues --   -0.80972  -0.71176  -0.70014  -0.68506  -0.64691
  Beta  occ. eigenvalues --   -0.61005  -0.58837  -0.55100  -0.52593  -0.50111
  Beta  occ. eigenvalues --   -0.48664  -0.46109  -0.42685  -0.39992  -0.39150
  Beta  occ. eigenvalues --   -0.37132  -0.36169  -0.35339  -0.34195  -0.33517
  Beta  occ. eigenvalues --   -0.32984  -0.31822  -0.31521  -0.29492  -0.28892
  Beta  occ. eigenvalues --   -0.28765  -0.27649  -0.27383  -0.26241  -0.25361
  Beta  occ. eigenvalues --   -0.24885  -0.24478  -0.23939  -0.23275  -0.19813
  Beta  occ. eigenvalues --   -0.19280  -0.13393  -0.12544
  Beta virt. eigenvalues --    0.06429   0.06875   0.07397   0.07471   0.07957
  Beta virt. eigenvalues --    0.08622   0.09139   0.09415   0.09750   0.10000
  Beta virt. eigenvalues --    0.10384   0.11251   0.11639   0.12092   0.12590

 Mulliken charges and spin densities:
               1          2
     1  C    0.196237  -0.686946
     2  C    1.143068  -1.600629
     3  C   -1.372116   0.562895
     4  C    0.789811  -0.411907
     5  S    0.058322  -0.452994
     6  C    0.224269   0.170443
     7  N    0.052035   0.132940
     8  O   -0.042529   0.000078
     9  C    0.224954  -0.541837
    10  C    0.061285  -0.291089
    11  N    0.072916  -0.070259
    12  C   -0.985438   0.914591
    13  C    0.695524  -1.204050
    14  C   -0.091329  -0.445391
    15  H    0.057321   0.067412
    16  H   -0.274719   0.415520
    17  H   -0.055645   0.228925
    18  H   -0.459720   0.637920
    19  H    0.029755   0.098772
    20  H   -1.138494   1.426657
    21  H    0.176026   0.028165
    22  H   -0.421122   0.627658
    23  H   -0.311761   0.460491
    24  H    0.141160  -0.016731
    25  H    0.814190  -0.626624
    26  H   -0.164072   0.307041
    27  H   -0.016182   0.176058
    28  H   -0.224023   0.366940
    29  H   -0.044376   0.171382
    30  H    0.021819   0.128524
    31  H   -0.214833   0.343018
    32  H    0.057668   0.083027
 Sum of Mulliken charges =  -1.00000   1.00000

 Dipole moment (field-independent basis, Debye):
    X=              0.6232    Y=             -3.8112    Z=             -1.5474  Tot=              4.1603
 Quadrupole moment (field-independent basis, Debye-Ang):
   XX=           -170.1551   YY=           -155.7430   ZZ=           -129.0144
   XY=            -14.2306   XZ=             -3.5082   YZ=             -6.5953

 Summary of Natural Population Analysis:

                                       Natural Population
                Natural  -----------------------------------------------
    Atom  No    Charge         Core      Valence    Rydberg      Total
 -----------------------------------------------------------------------
      C    1   -0.28139      0.99966     2.27627    0.00546     3.28139
      C    2   -0.20113      0.99960     2.19176    0.00977     3.20113
      C    3    0.07388      0.99948     1.91195    0.01469     2.92612
      C    4   -0.20391      0.99943     2.19412    0.01036     3.20391
      S    5    0.16946      4.99945     2.81056    0.02053     7.83054
      C    6    0.21179      0.99954     1.76635    0.02232     2.78821
      N    7   -0.29466      0.99960     2.78358    0.01148     3.79466
      O    8   -0.27387      0.99984     3.26493    0.00910     4.27387
      C    9   -0.01457      0.99955     2.00252    0.01250     3.01457
      C   10   -0.10288      0.99962     2.09271    0.01055     3.10288
      N   11   -0.35727      0.99973     2.84554    0.01200     3.85727
      C   12   -0.01078      0.99963     2.00014    0.01101     3.01078
      C   13   -0.29490      0.99965     2.28947    0.00578     3.29490
      C   14   -0.28483      0.99965     2.27875    0.00643     3.28483
      H   15    0.09679      0.00000     0.40218    0.00103     0.40321
      H   16    0.09908      0.00000     0.39990    0.00102     0.40092
      H   17    0.10153      0.00000     0.39704    0.00143     0.39847
      H   18    0.10521      0.00000     0.39251    0.00228     0.39479
      H   19    0.10366      0.00000     0.39455    0.00179     0.39634
      H   20    0.11691      0.00000     0.37997    0.00312     0.38309
      H   21    0.09623      0.00000     0.40222    0.00155     0.40377
      H   22    0.09581      0.00000     0.40295    0.00124     0.40419
      H   23    0.09611      0.00000     0.40213    0.00176     0.40389
      H   24    0.08591      0.00000     0.41254    0.00155     0.41409
      H   25    0.19002      0.00000     0.30451    0.00547     0.30998
      H   26    0.08608      0.00000     0.41200    0.00192     0.41392
      H   27    0.09813      0.00000     0.40047    0.00140     0.40187
      H   28    0.09913      0.00000     0.39984    0.00103     0.40087
      H   29    0.09792      0.00000     0.40108    0.00101     0.40208
      H   30    0.10228      0.00000     0.39663    0.00109     0.39772
      H   31    0.09745      0.00000     0.40170    0.00085     0.40255
      H   32    0.09680      0.00000     0.40187    0.00133     0.40320
 =======================================================================
   * Total *   -0.00000     17.99442    39.81275    0.19282    58.00000

 Normal termination of Gaussian 16 at Thu Dec 10 11:03:08 2020.
