 Gaussian 16, Revision A.03,

 -----------------------------------------------------------
 # opt freq B3LYP/6-31G(d) empiricaldispersion=gd3bj scf=xqc
 -----------------------------------------------------------

 ------------------------------
 CID_80496854_JID_4718_neutraal
 ------------------------------
 Symbolic Z-matrix:
 Charge =  0 Multiplicity = 1

 SCF Done:  E(RB3LYP) =  -610.886261817     A.U. after   14 cycles
 SCF Done:  E(RB3LYP) =  -610.888426984     A.U. after   12 cycles
 SCF Done:  E(RB3LYP) =  -610.889311809     A.U. after   12 cycles
 SCF Done:  E(RB3LYP) =  -610.889767019     A.U. after   12 cycles
 SCF Done:  E(RB3LYP) =  -610.890062836     A.U. after   12 cycles
 SCF Done:  E(RB3LYP) =  -610.890216345     A.U. after   11 cycles
 SCF Done:  E(RB3LYP) =  -610.890257875     A.U. after   11 cycles
 SCF Done:  E(RB3LYP) =  -610.890269474     A.U. after   10 cycles
 SCF Done:  E(RB3LYP) =  -610.890275078     A.U. after   10 cycles
 SCF Done:  E(RB3LYP) =  -610.890275490     A.U. after    7 cycles
 SCF Done:  E(RB3LYP) =  -610.890275710     A.U. after    7 cycles
 SCF Done:  E(RB3LYP) =  -610.890275793     A.U. after    7 cycles
 SCF Done:  E(RB3LYP) =  -610.890275831     A.U. after    6 cycles
 Optimization completed.
    -- Stationary point found.
 Normal termination of Gaussian 16 at Thu Dec 10 10:27:49 2020.

 --------------------------------------------------------------------
 #N Geom=AllCheck Guess=TCheck SCRF=Check GenChk RB3LYP/6-31G(d) Freq
 --------------------------------------------------------------------

 Structure from the checkpoint file:  "JID_4718.chk"
 ------------------------------
 CID_80496854_JID_4718_neutraal
 ------------------------------
 Charge =  0 Multiplicity = 1

 SCF Done:  E(RB3LYP) =  -610.890275831     A.U. after    1 cycles

  Exact polarizability: 139.794  -6.007 110.687   0.962  -5.479 117.343
 Approx polarizability: 191.976 -13.599 151.963  -0.342 -14.502 190.819

                      1                      2                      3
                      A                      A                      A
 Frequencies --     32.6540                49.0730                60.9324
 Red. masses --      3.2181                 5.1234                 3.1064
 Frc consts  --      0.0020                 0.0073                 0.0068
 IR Inten    --      0.0980                 0.0155                 0.2194

                      4                      5                      6
                      A                      A                      A
 Frequencies --     71.5623                72.9216                91.9062
 Red. masses --      3.5643                 2.8103                 3.2184
 Frc consts  --      0.0108                 0.0088                 0.0160
 IR Inten    --      0.2976                 0.0479                 0.3352

                      7                      8                      9
                      A                      A                      A
 Frequencies --    147.9201               189.8635               192.8904
 Red. masses --      2.1632                 2.8984                 3.1585
 Frc consts  --      0.0279                 0.0616                 0.0692
 IR Inten    --      0.7940                 1.4682                 0.5473

                     10                     11                     12
                      A                      A                      A
 Frequencies --    239.9312               276.6249               300.3362
 Red. masses --      1.5272                 3.5076                 1.7958
 Frc consts  --      0.0518                 0.1581                 0.0954
 IR Inten    --      0.0409                 1.3946                 1.2449

                     13                     14                     15
                      A                      A                      A
 Frequencies --    333.9630               337.0313               383.0565
 Red. masses --      3.7696                 4.0742                 2.4086
 Frc consts  --      0.2477                 0.2727                 0.2082
 IR Inten    --      0.4927                 0.2860                 0.1510

                     16                     17                     18
                      A                      A                      A
 Frequencies --    427.4624               473.7579               514.4215
 Red. masses --      2.1089                 1.6570                 2.7523
 Frc consts  --      0.2270                 0.2191                 0.4291
 IR Inten    --      0.3666                47.6342                 1.0899

                     19                     20                     21
                      A                      A                      A
 Frequencies --    636.9463               691.8418               716.9392
 Red. masses --      2.9412                 2.2531                 2.7103
 Frc consts  --      0.7030                 0.6354                 0.8208
 IR Inten    --      6.6140                47.6546                26.2427

                     22                     23                     24
                      A                      A                      A
 Frequencies --    734.6445               762.7891               778.5101
 Red. masses --      2.7337                 1.9910                 1.1542
 Frc consts  --      0.8693                 0.6825                 0.4122
 IR Inten    --     25.6438                20.4822                 5.7626

                     25                     26                     27
                      A                      A                      A
 Frequencies --    791.7429               825.0047               851.6368
 Red. masses --      1.1916                 1.3738                 1.6956
 Frc consts  --      0.4401                 0.5509                 0.7246
 IR Inten    --     22.1941                 3.9836                27.6558

                     28                     29                     30
                      A                      A                      A
 Frequencies --    862.8817               885.6180               902.0481
 Red. masses --      1.6125                 2.0915                 2.3804
 Frc consts  --      0.7074                 0.9665                 1.1412
 IR Inten    --      8.3620                 2.4180                 5.2913

                     31                     32                     33
                      A                      A                      A
 Frequencies --    925.0257               946.6993               983.0644
 Red. masses --      1.4029                 2.6269                 1.8434
 Frc consts  --      0.7073                 1.3871                 1.0496
 IR Inten    --      4.7461                17.5176                17.5513

                     34                     35                     36
                      A                      A                      A
 Frequencies --    999.9054              1011.9956              1027.3387
 Red. masses --      5.5402                 2.2871                 1.9163
 Frc consts  --      3.2636                 1.3800                 1.1916
 IR Inten    --     22.6462                11.4052                12.2611

                     37                     38                     39
                      A                      A                      A
 Frequencies --   1051.4341              1066.4295              1080.3923
 Red. masses --      2.6166                 1.4363                 2.6356
 Frc consts  --      1.7043                 0.9624                 1.8125
 IR Inten    --     22.4240                 4.0466                 4.2203

                     40                     41                     42
                      A                      A                      A
 Frequencies --   1082.8018              1136.6584              1149.2155
 Red. masses --      1.3762                 1.4734                 1.3689
 Frc consts  --      0.9507                 1.1216                 1.0652
 IR Inten    --      2.5193                 9.2781                10.7309

                     43                     44                     45
                      A                      A                      A
 Frequencies --   1155.3937              1164.0588              1174.2339
 Red. masses --      1.8142                 1.8869                 2.5658
 Frc consts  --      1.4269                 1.5064                 2.0844
 IR Inten    --      5.1301                 9.4180                 9.8644

                     46                     47                     48
                      A                      A                      A
 Frequencies --   1196.3335              1210.5262              1212.0264
 Red. masses --      3.9034                 1.4711                 2.4668
 Frc consts  --      3.2915                 1.2701                 2.1350
 IR Inten    --     22.0663                 2.7664                18.6818

                     49                     50                     51
                      A                      A                      A
 Frequencies --   1236.1641              1239.6290              1270.7827
 Red. masses --      2.0848                 1.8180                 1.4074
 Frc consts  --      1.8770                 1.6460                 1.3391
 IR Inten    --      6.5162                 5.2158                 8.1995

                     52                     53                     54
                      A                      A                      A
 Frequencies --   1284.4756              1306.7975              1313.1910
 Red. masses --      1.3139                 1.4261                 1.2738
 Frc consts  --      1.2772                 1.4349                 1.2942
 IR Inten    --      0.7439                 1.2812                 1.1129

                     55                     56                     57
                      A                      A                      A
 Frequencies --   1349.6201              1370.7099              1386.2620
 Red. masses --      1.7032                 1.6506                 2.0126
 Frc consts  --      1.8279                 1.8272                 2.2788
 IR Inten    --     11.7090                10.1343                 5.0238

                     58                     59                     60
                      A                      A                      A
 Frequencies --   1393.5581              1419.9523              1430.1934
 Red. masses --      1.3859                 1.7304                 1.9201
 Frc consts  --      1.5857                 2.0556                 2.3140
 IR Inten    --      4.2843                 1.1023                 0.2155

                     61                     62                     63
                      A                      A                      A
 Frequencies --   1442.8329              1448.1220              1496.7655
 Red. masses --      1.3489                 1.4995                 1.0963
 Frc consts  --      1.6545                 1.8527                 1.4471
 IR Inten    --      8.2713                 3.6685                 1.4277

                     64                     65                     66
                      A                      A                      A
 Frequencies --   1497.9654              1509.4755              1514.0711
 Red. masses --      2.0679                 1.0984                 1.1116
 Frc consts  --      2.7338                 1.4746                 1.5014
 IR Inten    --      5.8342                 1.0233                 2.4943

                     67                     68                     69
                      A                      A                      A
 Frequencies --   1524.3383              1531.8411              1538.4794
 Red. masses --      1.1770                 1.1226                 1.3570
 Frc consts  --      1.6113                 1.5521                 1.8924
 IR Inten    --     21.5178                44.5499                 4.6119

                     70                     71                     72
                      A                      A                      A
 Frequencies --   1543.3881              1550.0110              1577.3183
 Red. masses --      1.0972                 1.0947                 4.0444
 Frc consts  --      1.5398                 1.5496                 5.9285
 IR Inten    --     11.7297                13.8732                 2.8190

                     73                     74                     75
                      A                      A                      A
 Frequencies --   2933.1698              3015.2736              3039.0767
 Red. masses --      1.0726                 1.0816                 1.0636
 Frc consts  --      5.4372                 5.7940                 5.7877
 IR Inten    --     70.4385                21.3698                27.3865

                     76                     77                     78
                      A                      A                      A
 Frequencies --   3040.3294              3041.5299              3054.0276
 Red. masses --      1.0650                 1.0410                 1.0801
 Frc consts  --      5.8004                 5.6739                 5.9355
 IR Inten    --     27.7094                19.6521                66.2166

                     79                     80                     81
                      A                      A                      A
 Frequencies --   3072.7120              3083.3051              3109.4643
 Red. masses --      1.1021                 1.1002                 1.1013
 Frc consts  --      6.1306                 6.1623                 6.2735
 IR Inten    --     38.9342                 9.0289                56.2525

                     82                     83                     84
                      A                      A                      A
 Frequencies --   3116.1736              3141.7541              3147.6481
 Red. masses --      1.1021                 1.0531                 1.0782
 Frc consts  --      6.3054                 6.1243                 6.2937
 IR Inten    --     52.4796                25.3600                26.8999

                     85                     86                     87
                      A                      A                      A
 Frequencies --   3152.0381              3216.6296              3232.8905
 Red. masses --      1.0662                 1.1191                 1.1161
 Frc consts  --      6.2412                 6.8224                 6.8728
 IR Inten    --      4.1047                 2.8441                22.5845

                     88                     89                     90
                      A                      A                      A
 Frequencies --   3279.1091              3534.6726              3672.0970
 Red. masses --      1.0976                 1.0734                 1.0824
 Frc consts  --      6.9533                 7.9017                 8.5990
 IR Inten    --      1.2509                 1.5468                91.7954

 - Thermochemistry -
 -------------------
 Temperature   298.150 Kelvin.  Pressure   1.00000 Atm.
 Atom     1 has atomic number  6 and mass  12.00000

 Molecular mass:   194.15315 amu.
 Principal axes and moments of inertia in atomic units:
                           1         2         3
     Eigenvalues --  2161.859173834.316594905.86838
           X            0.99923   0.03831  -0.00880
           Y           -0.03834   0.99926  -0.00293
           Z            0.00868   0.00327   0.99996
 This molecule is an asymmetric top.
 Rotational symmetry number  1.
 Warning -- assumption of classical behavior for rotation
           may cause significant error
 Rotational temperatures (Kelvin)      0.04006     0.02259     0.01766
 Rotational constants (GHZ):           0.83481     0.47068     0.36787
 Zero-point vibrational energy     743289.4 (Joules/Mol)
                                  177.65044 (Kcal/Mol)
 Warning -- explicit consideration of  18 degrees of freedom as
           vibrations may cause significant error
 Vibrational temperatures:     46.98    70.61    87.67   102.96   104.92
          (Kelvin)            132.23   212.82   273.17   277.53   345.21
                              398.00   432.12   480.50   484.91   551.13
                              615.02   681.63   740.14   916.42   995.41
                             1031.52  1056.99  1097.48  1120.10  1139.14
                             1187.00  1225.32  1241.49  1274.21  1297.85
                             1330.91  1362.09  1414.41  1438.64  1456.04
                             1478.11  1512.78  1534.35  1554.44  1557.91
                             1635.40  1653.46  1662.35  1674.82  1689.46
                             1721.26  1741.68  1743.84  1778.56  1783.55
                             1828.37  1848.07  1880.19  1889.39  1941.80
                             1972.15  1994.52  2005.02  2042.99  2057.73
                             2075.91  2083.52  2153.51  2155.24  2171.80
                             2178.41  2193.18  2203.98  2213.53  2220.59
                             2230.12  2269.41  4220.18  4338.31  4372.55
                             4374.36  4376.08  4394.06  4420.95  4436.19
                             4473.83  4483.48  4520.28  4528.76  4535.08
                             4628.01  4651.41  4717.91  5085.61  5283.33

 Zero-point correction=                           0.283104 (Hartree/Particle)
 Thermal correction to Energy=                    0.297479
 Thermal correction to Enthalpy=                  0.298424
 Thermal correction to Gibbs Free Energy=         0.240190
 Sum of electronic and zero-point Energies=           -610.607172
 Sum of electronic and thermal Energies=              -610.592796
 Sum of electronic and thermal Enthalpies=            -610.591852
 Sum of electronic and thermal Free Energies=         -610.650086

                     E (Thermal)             CV                S
                      KCal/Mol        Cal/Mol-Kelvin    Cal/Mol-Kelvin
 Total                  186.671             53.277            122.562
 Electronic               0.000              0.000              0.000
 Translational            0.889              2.981             41.696
 Rotational               0.889              2.981             32.075
 Vibrational            184.894             47.316             48.791
 Vibration     1          0.594              1.983              5.661
 Vibration     2          0.595              1.978              4.854
 Vibration     3          0.597              1.973              4.427
 Vibration     4          0.598              1.968              4.110
 Vibration     5          0.599              1.967              4.073
 Vibration     6          0.602              1.955              3.619
 Vibration     7          0.617              1.905              2.699
 Vibration     8          0.633              1.854              2.229
 Vibration     9          0.635              1.850              2.200
 Vibration    10          0.657              1.779              1.803
 Vibration    11          0.678              1.717              1.554
 Vibration    12          0.693              1.673              1.415
 Vibration    13          0.715              1.608              1.241
 Vibration    14          0.718              1.602              1.226
 Vibration    15          0.752              1.506              1.027
 Vibration    16          0.789              1.410              0.867
 Vibration    17          0.831              1.308              0.727
 Vibration    18          0.869              1.218              0.623

 Optimization completed.
    -- Stationary point found.
 Normal termination of Gaussian 16 at Thu Dec 10 10:38:09 2020.

 ----------------------------------------------------------------------
 # B3LYP/6-311++G(d,p) empiricaldispersion=gd3bj scf=xqc pop=npa geom=c
 heck
 ----------------------------------------------------------------------

 --------------------------------------
 CID_80496854_JID_4718_Energie_neutraal
 --------------------------------------
 Structure from the checkpoint file:  "JID_4718.chk"
 Charge =  0 Multiplicity = 1

 SCF Done:  E(RB3LYP) =  -611.062428654     A.U. after   14 cycles
 Normal termination of Gaussian 16 at Thu Dec 10 10:42:58 2020.

 ----------------------------------------------------------------------
 # B3LYP/6-311++G(d,p) empiricaldispersion=gd3bj scf=xqc pop=npa geom=c
 heck
 ----------------------------------------------------------------------

 ------------------------------------
 CID_80496854_JID_4718_Energie_kation
 ------------------------------------
 Structure from the checkpoint file:  "JID_4718.chk"
 Charge =  1 Multiplicity = 2

 SCF Done:  E(UB3LYP) =  -610.764692092     A.U. after   24 cycles
 Normal termination of Gaussian 16 at Thu Dec 10 10:54:47 2020.
 Gaussian 16:  ES64L-G16RevA.03 25-Dec-2016

 ----------------------------------------------------------------------
 # B3LYP/6-311++G(d,p) empiricaldispersion=gd3bj scf=xqc pop=npa geom=c
 heck
 ----------------------------------------------------------------------

 -----------------------------------
 CID_80496854_JID_4718_Energie_anion
 -----------------------------------
 Structure from the checkpoint file:  "JID_4718.chk"
 Charge = -1 Multiplicity = 2

                         Standard orientation:
 ---------------------------------------------------------------------
 Center     Atomic      Atomic             Coordinates (Angstroms)
 Number     Number       Type             X           Y           Z
 ---------------------------------------------------------------------
      1          6           0       -3.757338   -0.652119    1.342228
      2          6           0       -3.709632   -0.837334   -0.177746
      3          6           0       -2.512551   -0.146726   -0.835633
      4          7           0       -1.257217   -0.724509   -0.375443
      5          6           0       -0.057303   -0.270656   -1.071392
      6          6           0        0.124124    1.272950   -1.163807
      7          6           0        0.153794    1.964914    0.180413
      8          6           0        1.444012    2.086697    0.952395
      9          6           0        0.820595    3.310939    0.328891
     10          6           0        1.150630   -0.894558   -0.428500
     11          7           0        1.166833   -1.256251    0.859285
     12          7           0        2.418156   -1.673805    1.046725
     13          7           0        3.227994   -1.624288   -0.006526
     14          6           0        2.436874   -1.124374   -0.960901
     15          1           0       -2.905465   -1.136074    1.833314
     16          1           0       -4.667038   -1.091487    1.765665
     17          1           0       -3.744664    0.412015    1.611402
     18          1           0       -3.674061   -1.906318   -0.419396
     19          1           0       -4.628383   -0.433362   -0.622829
     20          1           0       -2.563140   -0.289119   -1.923506
     21          1           0       -2.591158    0.943631   -0.660513
     22          1           0       -1.133599   -0.589334    0.624099
     23          1           0       -0.119617   -0.644237   -2.104062
     24          1           0        1.055437    1.482829   -1.706845
     25          1           0       -0.688435    1.683977   -1.776486
     26          1           0       -0.741917    1.815976    0.780978
     27          1           0        1.410749    1.977862    2.032420
     28          1           0        2.343032    1.682338    0.495591
     29          1           0        1.300761    3.736201   -0.549101
     30          1           0        0.359569    4.047645    0.980888
     31          1           0        2.726785   -2.039332    1.935230
     32          1           0        2.811559   -0.959633   -1.960825
 ---------------------------------------------------------------------

 SCF Done:  E(UB3LYP) =  -611.047055637     A.U. after   33 cycles
 SCF Done:  E(UB3LYP) =  -611.047055637     a.u. after    1 cycles

 The electronic state is 2-A.
 Alpha  occ. eigenvalues --  -14.32091 -14.25723 -14.25176 -14.19692 -10.11405
 Alpha  occ. eigenvalues --  -10.10907 -10.10425 -10.09284 -10.08102 -10.07579
 Alpha  occ. eigenvalues --  -10.07438 -10.07220 -10.06985 -10.06504  -1.01004
 Alpha  occ. eigenvalues --   -0.82235  -0.79520  -0.76427  -0.73479  -0.68446
 Alpha  occ. eigenvalues --   -0.64504  -0.58853  -0.56016  -0.53718  -0.50574
 Alpha  occ. eigenvalues --   -0.49727  -0.48714  -0.46387  -0.44987  -0.40152
 Alpha  occ. eigenvalues --   -0.39370  -0.38085  -0.37877  -0.36027  -0.35775
 Alpha  occ. eigenvalues --   -0.33755  -0.32909  -0.32256  -0.30889  -0.29590
 Alpha  occ. eigenvalues --   -0.28023  -0.26983  -0.25283  -0.25010  -0.24510
 Alpha  occ. eigenvalues --   -0.24047  -0.22879  -0.20762  -0.20490  -0.19557
 Alpha  occ. eigenvalues --   -0.18914  -0.16877  -0.12706   0.04381
 Alpha virt. eigenvalues --    0.06048   0.06465   0.07091   0.07987   0.08064
 Alpha virt. eigenvalues --    0.08845   0.09234   0.09503   0.10053   0.11056
 Alpha virt. eigenvalues --    0.11647   0.11926   0.12335   0.12442   0.13364

  Beta  occ. eigenvalues --  -14.32040 -14.25721 -14.25168 -14.19689 -10.11394
  Beta  occ. eigenvalues --  -10.10908 -10.10415 -10.09267 -10.08097 -10.07566
  Beta  occ. eigenvalues --  -10.07423 -10.07208 -10.06971 -10.06481  -1.00969
  Beta  occ. eigenvalues --   -0.82218  -0.79503  -0.76413  -0.73415  -0.68409
  Beta  occ. eigenvalues --   -0.64471  -0.58813  -0.55967  -0.53671  -0.50531
  Beta  occ. eigenvalues --   -0.49685  -0.48663  -0.46353  -0.44935  -0.40123
  Beta  occ. eigenvalues --   -0.39336  -0.38055  -0.37847  -0.35993  -0.35731
  Beta  occ. eigenvalues --   -0.33718  -0.32877  -0.32233  -0.30858  -0.29562
  Beta  occ. eigenvalues --   -0.27997  -0.26964  -0.25253  -0.24979  -0.24478
  Beta  occ. eigenvalues --   -0.24019  -0.22858  -0.20740  -0.20477  -0.19538
  Beta  occ. eigenvalues --   -0.18895  -0.16848  -0.12693
  Beta virt. eigenvalues --    0.06485   0.07174   0.07438   0.07671   0.08097
  Beta virt. eigenvalues --    0.08717   0.09099   0.09550   0.09881   0.10322
  Beta virt. eigenvalues --    0.11227   0.11911   0.12148   0.12513   0.12672

 Mulliken charges and spin densities:
               1          2
     1  C    0.097577  -0.631373
     2  C    0.276092  -0.645149
     3  C    0.005086  -0.173600
     4  N    0.075530  -0.021178
     5  C    0.227266  -0.356296
     6  C    0.883045  -1.433846
     7  C   -0.960702   1.114774
     8  C   -0.028816  -0.395440
     9  C    0.140215  -0.694519
    10  C    0.414654  -0.429602
    11  N   -0.047064  -0.007185
    12  N    0.125622  -0.066511
    13  N    0.179174  -0.261071
    14  C   -1.187895   0.693086
    15  H   -0.138064   0.296055
    16  H   -0.220276   0.373121
    17  H   -0.023120   0.148137
    18  H    0.118368   0.020553
    19  H   -0.266239   0.407282
    20  H   -0.217565   0.366465
    21  H    0.014978   0.126667
    22  H    0.635779  -0.456583
    23  H   -0.132670   0.375484
    24  H   -0.080589   0.243937
    25  H   -0.127819   0.310208
    26  H    0.145090   0.109449
    27  H   -0.139123   0.310153
    28  H    0.154769  -0.020498
    29  H   -0.032533   0.148845
    30  H   -0.076310   0.220093
    31  H   -0.478117   0.833157
    32  H   -0.336341   0.495385
 Sum of Mulliken charges =  -1.00000   1.00000

 Dipole moment (field-independent basis, Debye):
    X=             -0.0998    Y=              1.1944    Z=             -1.4213  Tot=              1.8592
 Quadrupole moment (field-independent basis, Debye-Ang):
   XX=           -158.3930   YY=           -129.9217   ZZ=           -131.2896
   XY=              6.9734   XZ=             -6.4117   YZ=              5.4530

 Summary of Natural Population Analysis:

                                       Natural Population
                Natural  -----------------------------------------------
    Atom  No    Charge         Core      Valence    Rydberg      Total
 -----------------------------------------------------------------------
      C    1   -0.28816      0.99967     2.28404    0.00446     3.28816
      C    2   -0.19142      0.99964     2.18317    0.00861     3.19142
      C    3   -0.08718      0.99962     2.07591    0.01165     3.08718
      N    4   -0.34109      0.99973     2.83037    0.01099     3.84109
      C    5   -0.01628      0.99956     2.00306    0.01367     3.01628
      C    6   -0.19364      0.99959     2.18322    0.01082     3.19364
      C    7   -0.12311      0.99958     2.11135    0.01217     3.12311
      C    8   -0.19482      0.99961     2.18674    0.00847     3.19482
      C    9   -0.19610      0.99962     2.19016    0.00632     3.19610
      C   10    0.05988      0.99956     1.92467    0.01589     2.94012
      N   11   -0.13966      0.99969     2.62715    0.01281     3.63966
      N   12   -0.07094      0.99974     2.55382    0.01738     3.57094
      N   13   -0.13679      0.99974     2.62358    0.01347     3.63679
      C   14   -0.03285      0.99955     2.02066    0.01263     3.03285
      H   15    0.09772      0.00000     0.40114    0.00114     0.40228
      H   16    0.09866      0.00000     0.40031    0.00103     0.40134
      H   17    0.09599      0.00000     0.40268    0.00133     0.40401
      H   18    0.09623      0.00000     0.40254    0.00123     0.40377
      H   19    0.09502      0.00000     0.40378    0.00120     0.40498
      H   20    0.09285      0.00000     0.40568    0.00146     0.40715
      H   21    0.07802      0.00000     0.42025    0.00174     0.42198
      H   22    0.17908      0.00000     0.31553    0.00539     0.32092
      H   23    0.09889      0.00000     0.39933    0.00178     0.40111
      H   24    0.10001      0.00000     0.39837    0.00162     0.39999
      H   25    0.10278      0.00000     0.39582    0.00140     0.39722
      H   26    0.10321      0.00000     0.39494    0.00185     0.39679
      H   27    0.10374      0.00000     0.39495    0.00130     0.39626
      H   28    0.10257      0.00000     0.39605    0.00139     0.39743
      H   29    0.09902      0.00000     0.39994    0.00104     0.40098
      H   30    0.10065      0.00000     0.39831    0.00103     0.39935
      H   31    0.20423      0.00000     0.28381    0.01197     0.29577
      H   32    0.10351      0.00000     0.39523    0.00125     0.39649
 =======================================================================
   * Total *    0.00000     13.99492    38.80658    0.19851    53.00000

 Normal termination of Gaussian 16 at Thu Dec 10 11:10:38 2020.
