 Gaussian 16, Revision A.03,

 -----------------------------------------------------------
 # opt freq B3LYP/6-31G(d) empiricaldispersion=gd3bj scf=xqc
 -----------------------------------------------------------

 ------------------------------
 CID_84649865_JID_1375_neutraal
 ------------------------------
 Symbolic Z-matrix:
 Charge =  0 Multiplicity = 1

 SCF Done:  E(RB3LYP) =  -447.232704864     A.U. after   12 cycles
 SCF Done:  E(RB3LYP) =  -447.236337604     A.U. after   11 cycles
 SCF Done:  E(RB3LYP) =  -447.235249714     A.U. after   11 cycles
 SCF Done:  E(RB3LYP) =  -447.236042138     A.U. after   11 cycles
 SCF Done:  E(RB3LYP) =  -447.237161973     A.U. after    8 cycles
 SCF Done:  E(RB3LYP) =  -447.238015824     A.U. after   10 cycles
 SCF Done:  E(RB3LYP) =  -447.238641688     A.U. after   11 cycles
 SCF Done:  E(RB3LYP) =  -447.239037193     A.U. after   10 cycles
 SCF Done:  E(RB3LYP) =  -447.239191889     A.U. after    9 cycles
 SCF Done:  E(RB3LYP) =  -447.239259354     A.U. after    9 cycles
 SCF Done:  E(RB3LYP) =  -447.239269575     A.U. after    8 cycles
 SCF Done:  E(RB3LYP) =  -447.239273704     A.U. after    8 cycles
 SCF Done:  E(RB3LYP) =  -447.239274380     A.U. after    7 cycles
 SCF Done:  E(RB3LYP) =  -447.239274555     A.U. after    6 cycles
 SCF Done:  E(RB3LYP) =  -447.239274603     A.U. after    6 cycles
 Optimization completed.
    -- Stationary point found.
 Normal termination of Gaussian 16 at Tue Dec  8 19:53:52 2020.

 --------------------------------------------------------------------
 #N Geom=AllCheck Guess=TCheck SCRF=Check GenChk RB3LYP/6-31G(d) Freq
 --------------------------------------------------------------------

 Structure from the checkpoint file:  "JID_1375.chk"
 ------------------------------
 CID_84649865_JID_1375_neutraal
 ------------------------------
 Charge =  0 Multiplicity = 1

 SCF Done:  E(RB3LYP) =  -447.239274603     A.U. after    1 cycles

  Exact polarizability: 121.436   1.103 106.433  -1.324   1.716  92.218
 Approx polarizability: 151.157   3.353 147.120  -2.223   2.580 144.067

                      1                      2                      3
                      A                      A                      A
 Frequencies --     49.0685                90.1646               116.1944
 Red. masses --      2.5946                 3.2671                 2.6582
 Frc consts  --      0.0037                 0.0156                 0.0211
 IR Inten    --      0.0135                 0.1558                 0.1798

                      4                      5                      6
                      A                      A                      A
 Frequencies --    140.1853               191.4126               205.4265
 Red. masses --      2.8660                 2.6544                 2.7121
 Frc consts  --      0.0332                 0.0573                 0.0674
 IR Inten    --      0.3516                 0.9224                 0.0427

                      7                      8                      9
                      A                      A                      A
 Frequencies --    236.8807               254.4216               274.0087
 Red. masses --      1.0512                 1.3190                 1.9218
 Frc consts  --      0.0348                 0.0503                 0.0850
 IR Inten    --      0.2105                 0.1905                 4.9492

                     10                     11                     12
                      A                      A                      A
 Frequencies --    297.8444               323.8754               347.0027
 Red. masses --      1.7168                 1.8718                 2.3845
 Frc consts  --      0.0897                 0.1157                 0.1692
 IR Inten    --     15.4106                 8.1499                 0.7800

                     13                     14                     15
                      A                      A                      A
 Frequencies --    374.4240               400.2339               430.4879
 Red. masses --      1.9519                 2.2493                 2.3047
 Frc consts  --      0.1612                 0.2123                 0.2516
 IR Inten    --      0.5376                 4.2983                 7.8772

                     16                     17                     18
                      A                      A                      A
 Frequencies --    476.6828               505.1130               556.0941
 Red. masses --      2.4731                 2.4106                 2.8513
 Frc consts  --      0.3311                 0.3624                 0.5195
 IR Inten    --      0.4447                 1.5457                 3.9535

                     19                     20                     21
                      A                      A                      A
 Frequencies --    741.2045               783.1075               788.0020
 Red. masses --      3.1547                 1.6235                 1.8761
 Frc consts  --      1.0211                 0.5866                 0.6864
 IR Inten    --      8.0431                 5.9163                 1.7670

                     22                     23                     24
                      A                      A                      A
 Frequencies --    814.9985               832.6084               864.1760
 Red. masses --      1.1865                 1.4263                 1.5183
 Frc consts  --      0.4643                 0.5826                 0.6681
 IR Inten    --      5.3889                 3.2598               181.3907

                     25                     26                     27
                      A                      A                      A
 Frequencies --    871.6874               897.9767               924.4882
 Red. masses --      2.7248                 2.9095                 1.6537
 Frc consts  --      1.2199                 1.3823                 0.8327
 IR Inten    --      9.1339                 5.9117                 3.9618

                     28                     29                     30
                      A                      A                      A
 Frequencies --    939.8169               944.6749               961.1400
 Red. masses --      1.3188                 1.4139                 1.6149
 Frc consts  --      0.6863                 0.7434                 0.8790
 IR Inten    --      1.3449                 2.0453                 5.3720

                     31                     32                     33
                      A                      A                      A
 Frequencies --    980.3871              1004.1786              1025.8254
 Red. masses --      1.7024                 1.8404                 1.7976
 Frc consts  --      0.9641                 1.0934                 1.1145
 IR Inten    --      2.0259                12.7022                 2.3166

                     34                     35                     36
                      A                      A                      A
 Frequencies --   1055.2560              1067.9208              1076.1208
 Red. masses --      1.4174                 1.5030                 1.6990
 Frc consts  --      0.9299                 1.0099                 1.1592
 IR Inten    --      2.7203                 6.7864                 6.3842

                     37                     38                     39
                      A                      A                      A
 Frequencies --   1082.1875              1099.3292              1136.0739
 Red. masses --      1.3808                 1.7233                 1.4192
 Frc consts  --      0.9527                 1.2271                 1.0792
 IR Inten    --      3.4661                 5.7385                 1.4374

                     40                     41                     42
                      A                      A                      A
 Frequencies --   1149.5866              1156.8028              1199.6859
 Red. masses --      1.1136                 2.1376                 1.7617
 Frc consts  --      0.8671                 1.6854                 1.4939
 IR Inten    --      0.4472                 1.1653                 4.0381

                     43                     44                     45
                      A                      A                      A
 Frequencies --   1214.9025              1226.9037              1235.0939
 Red. masses --      1.3994                 1.8473                 1.4268
 Frc consts  --      1.2169                 1.6384                 1.2824
 IR Inten    --      0.3983                 2.4791                 4.3916

                     46                     47                     48
                      A                      A                      A
 Frequencies --   1254.2714              1269.7375              1304.2790
 Red. masses --      1.9054                 1.5301                 1.9689
 Frc consts  --      1.7661                 1.4535                 1.9734
 IR Inten    --      4.0191                 5.9222                 6.7905

                     49                     50                     51
                      A                      A                      A
 Frequencies --   1324.4481              1356.5628              1361.6390
 Red. masses --      1.4169                 1.5617                 1.3529
 Frc consts  --      1.4644                 1.6932                 1.4779
 IR Inten    --      7.5823                 6.4373                 2.7509

                     52                     53                     54
                      A                      A                      A
 Frequencies --   1390.1552              1426.1090              1430.4801
 Red. masses --      1.8408                 1.2544                 1.4608
 Frc consts  --      2.0960                 1.5031                 1.7612
 IR Inten    --      1.1612                 4.3672                 5.4061

                     55                     56                     57
                      A                      A                      A
 Frequencies --   1443.7363              1451.5673              1498.6067
 Red. masses --      1.3484                 1.4287                 1.0999
 Frc consts  --      1.6560                 1.7736                 1.4553
 IR Inten    --      7.6190                 0.6689                 4.4259

                     58                     59                     60
                      A                      A                      A
 Frequencies --   1512.3926              1515.4560              1521.1425
 Red. masses --      1.4255                 1.1002                 1.0506
 Frc consts  --      1.9210                 1.4886                 1.4323
 IR Inten    --      6.4903                 4.3372                 1.8671

                     61                     62                     63
                      A                      A                      A
 Frequencies --   1521.7188              1534.4413              1541.2904
 Red. masses --      1.0494                 1.0670                 1.2092
 Frc consts  --      1.4318                 1.4802                 1.6925
 IR Inten    --      2.1988                 3.7679                 1.8674

                     64                     65                     66
                      A                      A                      A
 Frequencies --   1546.1370              1695.7788              3007.6023
 Red. masses --      1.1616                 1.1032                 1.0710
 Frc consts  --      1.6361                 1.8691                 5.7081
 IR Inten    --      7.1153                 8.0229                45.1949

                     67                     68                     69
                      A                      A                      A
 Frequencies --   3029.1366              3039.0947              3045.1111
 Red. masses --      1.0828                 1.0366                 1.0398
 Frc consts  --      5.8538                 5.6411                 5.6809
 IR Inten    --     15.3006                22.7459                47.9651

                     70                     71                     72
                      A                      A                      A
 Frequencies --   3073.9624              3098.2164              3105.8568
 Red. masses --      1.0895                 1.1016                 1.1009
 Frc consts  --      6.0655                 6.2300                 6.2568
 IR Inten    --     22.6986                 4.5690                68.2990

                     73                     74                     75
                      A                      A                      A
 Frequencies --   3117.7575              3139.9588              3141.1972
 Red. masses --      1.1021                 1.0600                 1.0825
 Frc consts  --      6.3116                 6.1573                 6.2929
 IR Inten    --     32.7167                10.6189                24.4888

                     76                     77                     78
                      A                      A                      A
 Frequencies --   3142.8944              3148.7315              3150.8374
 Red. masses --      1.0863                 1.0597                 1.0859
 Frc consts  --      6.3224                 6.1903                 6.3520
 IR Inten    --     18.5315                43.4828                 4.0771

                     79                     80                     81
                      A                      A                      A
 Frequencies --   3154.6345              3222.2919              3230.6426
 Red. masses --      1.0643                 1.1175                 1.1157
 Frc consts  --      6.2406                 6.8365                 6.8611
 IR Inten    --      9.4485                 0.4189                 9.7237

                     82                     83                     84
                      A                      A                      A
 Frequencies --   3234.6084              3469.0487              3562.9935
 Red. masses --      1.1145                 1.0504                 1.0905
 Frc consts  --      6.8702                 7.4475                 8.1569
 IR Inten    --     32.9386                 4.6458                 0.0706

 - Thermochemistry -
 -------------------
 Temperature   298.150 Kelvin.  Pressure   1.00000 Atm.
 Atom     1 has atomic number  6 and mass  12.00000

 Molecular mass:   153.15175 amu.
 Principal axes and moments of inertia in atomic units:
                           1         2         3
     Eigenvalues --  1110.471672351.208132923.05827
           X            0.99996   0.00892  -0.00212
           Y           -0.00889   0.99984   0.01553
           Z            0.00226  -0.01551   0.99988
 This molecule is an asymmetric top.
 Rotational symmetry number  1.
 Warning -- assumption of classical behavior for rotation
           may cause significant error
 Rotational temperatures (Kelvin)      0.07800     0.03684     0.02963
 Rotational constants (GHZ):           1.62520     0.76758     0.61742
 Zero-point vibrational energy     725883.1 (Joules/Mol)
                                  173.49023 (Kcal/Mol)
 Warning -- explicit consideration of  18 degrees of freedom as
           vibrations may cause significant error
 Vibrational temperatures:     70.60   129.73   167.18   201.70   275.40
          (Kelvin)            295.56   340.82   366.06   394.24   428.53
                              465.98   499.26   538.71   575.85   619.38
                              685.84   726.75   800.10  1066.43  1126.72
                             1133.76  1172.60  1197.94  1243.36  1254.16
                             1291.99  1330.13  1352.19  1359.18  1382.87
                             1410.56  1444.79  1475.93  1518.28  1536.50
                             1548.30  1557.03  1581.69  1634.56  1654.00
                             1664.38  1726.08  1747.97  1765.24  1777.02
                             1804.62  1826.87  1876.57  1905.59  1951.79
                             1959.09  2000.12  2051.85  2058.14  2077.21
                             2088.48  2156.16  2176.00  2180.40  2188.58
                             2189.41  2207.72  2217.57  2224.55  2439.85
                             4327.27  4358.25  4372.58  4381.24  4422.75
                             4457.64  4468.64  4485.76  4517.70  4519.48
                             4521.92  4530.32  4533.35  4538.82  4636.16
                             4648.17  4653.88  4991.19  5126.35

 Zero-point correction=                           0.276474 (Hartree/Particle)
 Thermal correction to Energy=                    0.288852
 Thermal correction to Enthalpy=                  0.289797
 Thermal correction to Gibbs Free Energy=         0.238857
 Sum of electronic and zero-point Energies=           -446.962800
 Sum of electronic and thermal Energies=              -446.950422
 Sum of electronic and thermal Enthalpies=            -446.949478
 Sum of electronic and thermal Free Energies=         -447.000418

                     E (Thermal)             CV                S
                      KCal/Mol        Cal/Mol-Kelvin    Cal/Mol-Kelvin
 Total                  181.258             48.399            107.212
 Electronic               0.000              0.000              0.000
 Translational            0.889              2.981             40.989
 Rotational               0.889              2.981             30.413
 Vibrational            179.480             42.437             35.811
 Vibration     1          0.595              1.978              4.855
 Vibration     2          0.602              1.956              3.656
 Vibration     3          0.608              1.936              3.163
 Vibration     4          0.615              1.913              2.801
 Vibration     5          0.634              1.852              2.214
 Vibration     6          0.640              1.832              2.084
 Vibration     7          0.656              1.784              1.826
 Vibration     8          0.665              1.755              1.700
 Vibration     9          0.676              1.721              1.571
 Vibration    10          0.691              1.678              1.429
 Vibration    11          0.708              1.628              1.290
 Vibration    12          0.725              1.581              1.180
 Vibration    13          0.746              1.525              1.062
 Vibration    14          0.766              1.470              0.962
 Vibration    15          0.792              1.404              0.857
 Vibration    16          0.833              1.302              0.719
 Vibration    17          0.860              1.239              0.645
 Vibration    18          0.912              1.126              0.532

 Optimization completed.
    -- Stationary point found.
 Normal termination of Gaussian 16 at Tue Dec  8 20:00:38 2020.

 ----------------------------------------------------------------------
 # B3LYP/6-311++G(d,p) empiricaldispersion=gd3bj scf=xqc pop=npa geom=c
 heck
 ----------------------------------------------------------------------

 --------------------------------------
 CID_84649865_JID_1375_Energie_neutraal
 --------------------------------------
 Structure from the checkpoint file:  "JID_1375.chk"
 Charge =  0 Multiplicity = 1

 SCF Done:  E(RB3LYP) =  -447.368870277     A.U. after   15 cycles
 Normal termination of Gaussian 16 at Tue Dec  8 20:03:41 2020.

 ----------------------------------------------------------------------
 # B3LYP/6-311++G(d,p) empiricaldispersion=gd3bj scf=xqc pop=npa geom=c
 heck
 ----------------------------------------------------------------------

 ------------------------------------
 CID_84649865_JID_1375_Energie_kation
 ------------------------------------
 Structure from the checkpoint file:  "JID_1375.chk"
 Charge =  1 Multiplicity = 2

 SCF Done:  E(UB3LYP) =  -447.051597382     A.U. after   25 cycles
 Normal termination of Gaussian 16 at Tue Dec  8 20:09:50 2020.
 Gaussian 16:  ES64L-G16RevA.03 25-Dec-2016

 ----------------------------------------------------------------------
 # B3LYP/6-311++G(d,p) empiricaldispersion=gd3bj scf=xqc pop=npa geom=c
 heck
 ----------------------------------------------------------------------

 -----------------------------------
 CID_84649865_JID_1375_Energie_anion
 -----------------------------------
 Structure from the checkpoint file:  "JID_1375.chk"
 Charge = -1 Multiplicity = 2

                         Standard orientation:
 ---------------------------------------------------------------------
 Center     Atomic      Atomic             Coordinates (Angstroms)
 Number     Number       Type             X           Y           Z
 ---------------------------------------------------------------------
      1          6           0       -3.396028   -0.365479    0.150135
      2          6           0       -1.878935   -0.596418    0.217407
      3          6           0       -1.500477   -1.926046   -0.446402
      4          6           0       -1.158859    0.585900   -0.411581
      5          6           0       -1.032230    1.883912    0.349907
      6          6           0        0.212098    1.101768   -0.010178
      7          6           0        0.997881    0.475769    1.138945
      8          6           0        1.966649   -0.665354    0.829036
      9          6           0        2.026881   -1.394809   -0.491858
     10          6           0        3.168441   -0.501357   -0.070152
     11          7           0        0.944488    1.706536   -1.111182
     12          1           0       -3.732449   -0.306830   -0.892847
     13          1           0       -3.675581    0.571739    0.643253
     14          1           0       -3.942864   -1.184728    0.631465
     15          1           0       -1.600377   -0.654677    1.278548
     16          1           0       -1.708366   -1.894085   -1.523788
     17          1           0       -0.439168   -2.148789   -0.312976
     18          1           0       -2.079457   -2.754996   -0.022193
     19          1           0       -1.361058    0.701691   -1.475789
     20          1           0       -1.197180    2.817117   -0.178629
     21          1           0       -1.347007    1.881920    1.391436
     22          1           0        1.560022    1.279327    1.639916
     23          1           0        0.281937    0.113525    1.885393
     24          1           0        2.150201   -1.294264    1.698678
     25          1           0        2.183278   -2.470063   -0.483314
     26          1           0        1.374622   -1.061279   -1.292669
     27          1           0        3.296427    0.446221   -0.584522
     28          1           0        4.103212   -0.968079    0.228519
     29          1           0        1.617737    2.382765   -0.752256
     30          1           0        1.472135    1.010411   -1.631508
 ---------------------------------------------------------------------

 SCF Done:  E(UB3LYP) =  -447.350983452     A.U. after   29 cycles

 The electronic state is 2-A.
 Alpha  occ. eigenvalues --  -14.19397 -10.10497 -10.07354 -10.07087 -10.07028
 Alpha  occ. eigenvalues --  -10.06525 -10.06513 -10.06193 -10.06093 -10.05775
 Alpha  occ. eigenvalues --  -10.05286  -0.81033  -0.75040  -0.72789  -0.67632
 Alpha  occ. eigenvalues --   -0.61620  -0.58231  -0.51773  -0.49800  -0.48164
 Alpha  occ. eigenvalues --   -0.47115  -0.43177  -0.39582  -0.39379  -0.37758
 Alpha  occ. eigenvalues --   -0.35996  -0.34259  -0.33178  -0.31511  -0.30040
 Alpha  occ. eigenvalues --   -0.29850  -0.28486  -0.27994  -0.26093  -0.25969
 Alpha  occ. eigenvalues --   -0.24460  -0.24147  -0.22467  -0.19579  -0.18676
 Alpha  occ. eigenvalues --   -0.17752  -0.16674  -0.14106   0.04787
 Alpha virt. eigenvalues --    0.06802   0.07406   0.07851   0.08950   0.09130
 Alpha virt. eigenvalues --    0.09612   0.10281   0.10557   0.11184   0.11909
 Alpha virt. eigenvalues --    0.12482   0.12804   0.13087   0.13756   0.14574

  Beta  occ. eigenvalues --  -14.19373 -10.10496 -10.07341 -10.07071 -10.07022
  Beta  occ. eigenvalues --  -10.06507 -10.06495 -10.06165 -10.06081 -10.05753
  Beta  occ. eigenvalues --  -10.05271  -0.81007  -0.75008  -0.72755  -0.67602
  Beta  occ. eigenvalues --   -0.61584  -0.58192  -0.51734  -0.49727  -0.48113
  Beta  occ. eigenvalues --   -0.47068  -0.43137  -0.39549  -0.39323  -0.37711
  Beta  occ. eigenvalues --   -0.35964  -0.34225  -0.33137  -0.31479  -0.30004
  Beta  occ. eigenvalues --   -0.29822  -0.28464  -0.27969  -0.26059  -0.25932
  Beta  occ. eigenvalues --   -0.24438  -0.24114  -0.22432  -0.19553  -0.18644
  Beta  occ. eigenvalues --   -0.17727  -0.16650  -0.14080
  Beta virt. eigenvalues --    0.06975   0.07653   0.08235   0.08397   0.09535
  Beta virt. eigenvalues --    0.09615   0.10036   0.10686   0.10979   0.11642
  Beta virt. eigenvalues --    0.12334   0.12931   0.13160   0.13345   0.13968

 Mulliken charges and spin densities:
               1          2
     1  C    0.255236  -0.894228
     2  C   -0.533949   0.845641
     3  C   -0.141562  -0.505317
     4  C   -0.260451   0.476556
     5  C    0.784726  -1.395771
     6  C   -1.031759   0.978856
     7  C    2.308976  -2.848384
     8  C   -1.758578   1.829386
     9  C    0.559944  -0.982371
    10  C    1.592226  -2.043910
    11  N   -0.322399   0.022390
    12  H    0.045557   0.079849
    13  H    0.014747   0.121681
    14  H   -0.303124   0.450165
    15  H   -0.197131   0.367160
    16  H    0.041456   0.082269
    17  H    0.158653  -0.008957
    18  H   -0.210987   0.346848
    19  H    0.176344   0.048048
    20  H    0.023110   0.128912
    21  H   -0.069886   0.218060
    22  H   -0.196215   0.381457
    23  H   -0.104843   0.181772
    24  H   -0.942590   1.197253
    25  H   -0.425751   0.602080
    26  H    0.016666   0.084963
    27  H   -0.204612   0.311270
    28  H   -0.397389   0.555794
    29  H   -0.004183   0.251183
    30  H    0.127767   0.117342
 Sum of Mulliken charges =  -1.00000   1.00000

 Dipole moment (field-independent basis, Debye):
    X=             -3.1750    Y=              2.9659    Z=             -3.4044  Tot=              5.5196
 Quadrupole moment (field-independent basis, Debye-Ang):
   XX=           -137.8330   YY=           -117.6577   ZZ=           -108.0572
   XY=              4.0624   XZ=             -0.6816   YZ=              6.2093

 Summary of Natural Population Analysis:

                                       Natural Population
                Natural  -----------------------------------------------
    Atom  No    Charge         Core      Valence    Rydberg      Total
 -----------------------------------------------------------------------
      C    1   -0.28048      0.99965     2.27485    0.00599     3.28048
      C    2   -0.11713      0.99959     2.10754    0.00999     3.11713
      C    3   -0.28173      0.99964     2.27606    0.00603     3.28173
      C    4   -0.10428      0.99952     2.09457    0.01020     3.10428
      C    5   -0.19512      0.99957     2.18644    0.00912     3.19512
      C    6    0.05079      0.99951     1.93571    0.01400     2.94921
      C    7   -0.19397      0.99956     2.18375    0.01066     3.19397
      C    8   -0.11387      0.99960     2.10111    0.01316     3.11387
      C    9   -0.20309      0.99962     2.19370    0.00977     3.20309
      C   10   -0.19861      0.99961     2.18943    0.00957     3.19861
      N   11   -0.42210      0.99975     2.91266    0.00969     3.92210
      H   12    0.09308      0.00000     0.40606    0.00085     0.40692
      H   13    0.09977      0.00000     0.39939    0.00085     0.40023
      H   14    0.09882      0.00000     0.40024    0.00094     0.40118
      H   15    0.09676      0.00000     0.40076    0.00249     0.40324
      H   16    0.09207      0.00000     0.40700    0.00093     0.40793
      H   17    0.10552      0.00000     0.39301    0.00146     0.39448
      H   18    0.09775      0.00000     0.40136    0.00088     0.40225
      H   19    0.10515      0.00000     0.39347    0.00138     0.39485
      H   20    0.10473      0.00000     0.39429    0.00099     0.39527
      H   21    0.10126      0.00000     0.39762    0.00112     0.39874
      H   22    0.09922      0.00000     0.39914    0.00164     0.40078
      H   23    0.10462      0.00000     0.39314    0.00224     0.39538
      H   24    0.10530      0.00000     0.39205    0.00265     0.39470
      H   25    0.10568      0.00000     0.39295    0.00136     0.39432
      H   26    0.09854      0.00000     0.40018    0.00128     0.40146
      H   27    0.09728      0.00000     0.40142    0.00130     0.40272
      H   28    0.10409      0.00000     0.39406    0.00185     0.39591
      H   29    0.17494      0.00000     0.32316    0.00190     0.32506
      H   30    0.17504      0.00000     0.32258    0.00239     0.32496
 =======================================================================
   * Total *   -0.00000     10.99562    31.86769    0.13669    43.00000

 Normal termination of Gaussian 16 at Tue Dec  8 20:17:49 2020.
