 Gaussian 16, Revision A.03,

 -----------------------------------------------------------
 # opt freq B3LYP/6-31G(d) empiricaldispersion=gd3bj scf=xqc
 -----------------------------------------------------------

 -------------------------------
 CID_130055489_JID_4599_neutraal
 -------------------------------
 Symbolic Z-matrix:
 Charge =  0 Multiplicity = 1

 SCF Done:  E(RB3LYP) =  -629.599136194     A.U. after   14 cycles
 SCF Done:  E(RB3LYP) =  -629.604822518     A.U. after   12 cycles
 SCF Done:  E(RB3LYP) =  -629.605746899     A.U. after   12 cycles
 SCF Done:  E(RB3LYP) =  -629.606080372     A.U. after   12 cycles
 SCF Done:  E(RB3LYP) =  -629.606168644     A.U. after   11 cycles
 SCF Done:  E(RB3LYP) =  -629.606210335     A.U. after   11 cycles
 SCF Done:  E(RB3LYP) =  -629.606231730     A.U. after   11 cycles
 SCF Done:  E(RB3LYP) =  -629.606236100     A.U. after    9 cycles
 SCF Done:  E(RB3LYP) =  -629.606237772     A.U. after    8 cycles
 SCF Done:  E(RB3LYP) =  -629.606239306     A.U. after    9 cycles
 SCF Done:  E(RB3LYP) =  -629.606587975     A.U. after    9 cycles
 SCF Done:  E(RB3LYP) =  -629.606589736     A.U. after    8 cycles
 SCF Done:  E(RB3LYP) =  -629.606589957     A.U. after    9 cycles
 SCF Done:  E(RB3LYP) =  -629.606590136     A.U. after    7 cycles
 SCF Done:  E(RB3LYP) =  -629.606590094     A.U. after    6 cycles
 Optimization completed.
    -- Stationary point found.
 Normal termination of Gaussian 16 at Thu Dec 10 10:25:22 2020.

 --------------------------------------------------------------------
 #N Geom=AllCheck Guess=TCheck SCRF=Check GenChk RB3LYP/6-31G(d) Freq
 --------------------------------------------------------------------

 Structure from the checkpoint file:  "JID_4599.chk"
 -------------------------------
 CID_130055489_JID_4599_neutraal
 -------------------------------
 Charge =  0 Multiplicity = 1

 SCF Done:  E(RB3LYP) =  -629.606590094     A.U. after    1 cycles

  Exact polarizability: 147.149   1.269 112.149 -16.265   9.551  99.650
 Approx polarizability: 193.822   6.737 194.677 -32.984  20.382 153.297

                      1                      2                      3
                      A                      A                      A
 Frequencies --     32.0479                56.6927                66.3204
 Red. masses --      3.1559                 3.0344                 4.3809
 Frc consts  --      0.0019                 0.0057                 0.0114
 IR Inten    --      0.0635                 0.2911                 0.4521

                      4                      5                      6
                      A                      A                      A
 Frequencies --     85.5682               196.0738               207.2893
 Red. masses --      4.7191                 2.3254                 2.3348
 Frc consts  --      0.0204                 0.0527                 0.0591
 IR Inten    --      0.8653                 6.8819                12.8153

                      7                      8                      9
                      A                      A                      A
 Frequencies --    237.4170               246.1386               267.7166
 Red. masses --      2.7720                 1.4272                 3.6411
 Frc consts  --      0.0921                 0.0509                 0.1538
 IR Inten    --      1.3902                20.6563                 2.8914

                     10                     11                     12
                      A                      A                      A
 Frequencies --    289.3753               343.9342               351.7047
 Red. masses --      3.0081                 1.2655                 3.5024
 Frc consts  --      0.1484                 0.0882                 0.2553
 IR Inten    --      0.4108               113.6994                38.8967

                     13                     14                     15
                      A                      A                      A
 Frequencies --    401.8675               427.5450               460.9321
 Red. masses --      2.9264                 4.0849                 2.5619
 Frc consts  --      0.2784                 0.4399                 0.3207
 IR Inten    --      2.5637                11.8098                 9.1565

                     16                     17                     18
                      A                      A                      A
 Frequencies --    489.8246               555.3855               581.9481
 Red. masses --      4.3810                 3.7900                 2.0678
 Frc consts  --      0.6193                 0.6888                 0.4126
 IR Inten    --      7.8040                 0.9787                 1.9740

                     19                     20                     21
                      A                      A                      A
 Frequencies --    627.0027               664.2248               704.8513
 Red. masses --      7.2724                 3.4268                 4.5810
 Frc consts  --      1.6845                 0.8908                 1.3409
 IR Inten    --      2.8472                 7.2988                 3.4034

                     22                     23                     24
                      A                      A                      A
 Frequencies --    758.4291               792.2076               814.5695
 Red. masses --      2.3257                 2.1473                 1.9878
 Frc consts  --      0.7882                 0.7940                 0.7771
 IR Inten    --      1.9643                 6.5309                 1.5630

                     25                     26                     27
                      A                      A                      A
 Frequencies --    850.5199               861.7374               878.0232
 Red. masses --      3.7952                 1.7315                 1.9287
 Frc consts  --      1.6176                 0.7576                 0.8761
 IR Inten    --     20.3880                 4.1880                 1.5426

                     28                     29                     30
                      A                      A                      A
 Frequencies --    901.2704               921.9955               947.3073
 Red. masses --      2.1176                 2.3373                 1.3912
 Frc consts  --      1.0135                 1.1706                 0.7355
 IR Inten    --      4.5815                 3.8123                 0.5761

                     31                     32                     33
                      A                      A                      A
 Frequencies --    965.6306               974.7165               979.8672
 Red. masses --      1.9510                 1.8544                 1.4493
 Frc consts  --      1.0718                 1.0380                 0.8198
 IR Inten    --      5.4751               203.1687                 0.4577

                     34                     35                     36
                      A                      A                      A
 Frequencies --   1015.9773              1029.5849              1041.0822
 Red. masses --      1.7144                 2.2752                 5.0875
 Frc consts  --      1.0427                 1.4210                 3.2488
 IR Inten    --     36.3740                 1.2279                25.5292

                     37                     38                     39
                      A                      A                      A
 Frequencies --   1066.3474              1073.3556              1092.5551
 Red. masses --      1.6497                 1.9348                 2.4113
 Frc consts  --      1.1052                 1.3133                 1.6959
 IR Inten    --      8.0241                12.5015                16.6375

                     40                     41                     42
                      A                      A                      A
 Frequencies --   1111.2176              1153.4671              1190.7078
 Red. masses --      2.1550                 2.1196                 1.6025
 Frc consts  --      1.5678                 1.6616                 1.3386
 IR Inten    --      8.1441                 0.7578                14.0180

                     43                     44                     45
                      A                      A                      A
 Frequencies --   1215.5773              1229.2305              1231.7463
 Red. masses --      1.8128                 1.5374                 1.6811
 Frc consts  --      1.5782                 1.3687                 1.5027
 IR Inten    --      7.1643                21.5889                25.5911

                     46                     47                     48
                      A                      A                      A
 Frequencies --   1245.9616              1259.3769              1266.6589
 Red. masses --      1.7739                 2.5098                 2.1619
 Frc consts  --      1.6226                 2.3453                 2.0436
 IR Inten    --     14.2495                 2.2931                 6.5661

                     49                     50                     51
                      A                      A                      A
 Frequencies --   1290.6013              1303.3770              1324.4826
 Red. masses --      1.7646                 1.4111                 1.3635
 Frc consts  --      1.7317                 1.4124                 1.4092
 IR Inten    --      0.7094                29.4867                 6.6067

                     52                     53                     54
                      A                      A                      A
 Frequencies --   1344.4639              1350.5781              1364.8534
 Red. masses --      1.4108                 1.3415                 1.2933
 Frc consts  --      1.5025                 1.4417                 1.4194
 IR Inten    --      5.5999                 0.9068                 8.2106

                     55                     56                     57
                      A                      A                      A
 Frequencies --   1377.2985              1408.1711              1428.8531
 Red. masses --      1.6143                 1.6436                 1.3577
 Frc consts  --      1.8042                 1.9203                 1.6332
 IR Inten    --      5.0731                10.4174                26.8508

                     58                     59                     60
                      A                      A                      A
 Frequencies --   1451.0075              1509.5458              1519.7872
 Red. masses --      1.8539                 1.0915                 1.0940
 Frc consts  --      2.2997                 1.4654                 1.4888
 IR Inten    --     21.4569                 1.0642                 1.7377

                     61                     62                     63
                      A                      A                      A
 Frequencies --   1520.3643              1521.2844              1543.0768
 Red. masses --      1.1381                 1.9580                 1.1064
 Frc consts  --      1.5500                 2.6698                 1.5522
 IR Inten    --      1.9448                10.5937                 0.3754

                     64                     65                     66
                      A                      A                      A
 Frequencies --   1593.8616              1632.4040              1712.1292
 Red. masses --      8.7807                 5.0848                 1.0837
 Frc consts  --     13.1425                 7.9832                 1.8717
 IR Inten    --      5.0616                 1.5608                34.5222

                     67                     68                     69
                      A                      A                      A
 Frequencies --   3034.0428              3041.6191              3055.2876
 Red. masses --      1.0828                 1.0697                 1.0663
 Frc consts  --      5.8730                 5.8308                 5.8646
 IR Inten    --      7.6880                61.6602                28.4675

                     70                     71                     72
                      A                      A                      A
 Frequencies --   3063.4123              3090.5790              3101.3924
 Red. masses --      1.0619                 1.0652                 1.0937
 Frc consts  --      5.8712                 5.9945                 6.1983
 IR Inten    --     43.1315                23.5745                22.1588

                     73                     74                     75
                      A                      A                      A
 Frequencies --   3107.2521              3121.5289              3135.8338
 Red. masses --      1.1018                 1.0993                 1.1054
 Frc consts  --      6.2678                 6.3111                 6.4044
 IR Inten    --     20.5881                26.1119                26.3332

                     76                     77                     78
                      A                      A                      A
 Frequencies --   3176.3692              3193.3244              3198.2665
 Red. masses --      1.0874                 1.0918                 1.0962
 Frc consts  --      6.4643                 6.5594                 6.6064
 IR Inten    --      6.0872                65.7218                 5.1397

                     79                     80                     81
                      A                      A                      A
 Frequencies --   3464.1017              3542.2892              3722.7177
 Red. masses --      1.0502                 1.0908                 1.0657
 Frc consts  --      7.4250                 8.0641                 8.7019
 IR Inten    --      2.6692                 4.6566                 7.9547

 - Thermochemistry -
 -------------------
 Temperature   298.150 Kelvin.  Pressure   1.00000 Atm.
 Atom     1 has atomic number  6 and mass  12.00000

 Molecular mass:   193.12151 amu.
 Principal axes and moments of inertia in atomic units:
                           1         2         3
     Eigenvalues --  1225.046964124.162114255.30336
           X            0.99999  -0.00417   0.00032
           Y            0.00411   0.99427   0.10682
           Z           -0.00076  -0.10682   0.99428
 This molecule is an asymmetric top.
 Rotational symmetry number  1.
 Warning -- assumption of classical behavior for rotation
           may cause significant error
 Rotational temperatures (Kelvin)      0.07070     0.02100     0.02035
 Rotational constants (GHZ):           1.47320     0.43760     0.42412
 Zero-point vibrational energy     654400.0 (Joules/Mol)
                                  156.40536 (Kcal/Mol)
 Warning -- explicit consideration of  18 degrees of freedom as
           vibrations may cause significant error
 Vibrational temperatures:     46.11    81.57    95.42   123.11   282.11
          (Kelvin)            298.24   341.59   354.14   385.18   416.35
                              494.84   506.02   578.20   615.14   663.18
                              704.75   799.08   837.29   902.12   955.67
                             1014.12  1091.21  1139.81  1171.98  1223.71
                             1239.85  1263.28  1296.73  1326.55  1362.96
                             1389.33  1402.40  1409.81  1461.76  1481.34
                             1497.89  1534.24  1544.32  1571.94  1598.79
                             1659.58  1713.16  1748.94  1768.59  1772.21
                             1792.66  1811.96  1822.44  1856.89  1875.27
                             1905.64  1934.38  1943.18  1963.72  1981.63
                             2026.04  2055.80  2087.68  2171.90  2186.63
                             2187.47  2188.79  2220.14  2293.21  2348.67
                             2463.37  4365.31  4376.21  4395.88  4407.57
                             4446.65  4462.21  4470.64  4491.18  4511.77
                             4570.09  4594.48  4601.59  4984.07  5096.56
                             5356.16

 Zero-point correction=                           0.249248 (Hartree/Particle)
 Thermal correction to Energy=                    0.262041
 Thermal correction to Enthalpy=                  0.262985
 Thermal correction to Gibbs Free Energy=         0.209322
 Sum of electronic and zero-point Energies=           -629.357342
 Sum of electronic and thermal Energies=              -629.344549
 Sum of electronic and thermal Enthalpies=            -629.343605
 Sum of electronic and thermal Free Energies=         -629.397268

                     E (Thermal)             CV                S
                      KCal/Mol        Cal/Mol-Kelvin    Cal/Mol-Kelvin
 Total                  164.433             49.768            112.945
 Electronic               0.000              0.000              0.000
 Translational            0.889              2.981             41.680
 Rotational               0.889              2.981             31.442
 Vibrational            162.656             43.806             39.823
 Vibration     1          0.594              1.983              5.698
 Vibration     2          0.596              1.975              4.569
 Vibration     3          0.598              1.970              4.260
 Vibration     4          0.601              1.959              3.759
 Vibration     5          0.636              1.845              2.170
 Vibration     6          0.641              1.829              2.067
 Vibration     7          0.656              1.783              1.822
 Vibration     8          0.661              1.769              1.758
 Vibration     9          0.673              1.732              1.611
 Vibration    10          0.686              1.693              1.478
 Vibration    11          0.723              1.588              1.194
 Vibration    12          0.728              1.572              1.159
 Vibration    13          0.767              1.466              0.956
 Vibration    14          0.789              1.410              0.867
 Vibration    15          0.819              1.337              0.763
 Vibration    16          0.846              1.273              0.684
 Vibration    17          0.911              1.128              0.533
 Vibration    18          0.939              1.070              0.482

 Optimization completed.
    -- Stationary point found.
 Normal termination of Gaussian 16 at Thu Dec 10 10:35:13 2020.

 ----------------------------------------------------------------------
 # B3LYP/6-311++G(d,p) empiricaldispersion=gd3bj scf=xqc pop=npa geom=c
 heck
 ----------------------------------------------------------------------

 ---------------------------------------
 CID_130055489_JID_4599_Energie_neutraal
 ---------------------------------------
 Structure from the checkpoint file:  "JID_4599.chk"
 Charge =  0 Multiplicity = 1

 SCF Done:  E(RB3LYP) =  -629.790644837     A.U. after   15 cycles
 Normal termination of Gaussian 16 at Thu Dec 10 10:40:08 2020.

 ----------------------------------------------------------------------
 # B3LYP/6-311++G(d,p) empiricaldispersion=gd3bj scf=xqc pop=npa geom=c
 heck
 ----------------------------------------------------------------------

 -------------------------------------
 CID_130055489_JID_4599_Energie_kation
 -------------------------------------
 Structure from the checkpoint file:  "JID_4599.chk"
 Charge =  1 Multiplicity = 2

 SCF Done:  E(UB3LYP) =  -629.473551775     A.U. after   29 cycles
 Normal termination of Gaussian 16 at Thu Dec 10 10:51:39 2020.
 Gaussian 16:  ES64L-G16RevA.03 25-Dec-2016

 ----------------------------------------------------------------------
 # B3LYP/6-311++G(d,p) empiricaldispersion=gd3bj scf=xqc pop=npa geom=c
 heck
 ----------------------------------------------------------------------

 ------------------------------------
 CID_130055489_JID_4599_Energie_anion
 ------------------------------------
 Structure from the checkpoint file:  "JID_4599.chk"
 Charge = -1 Multiplicity = 2

                         Standard orientation:
 ---------------------------------------------------------------------
 Center     Atomic      Atomic             Coordinates (Angstroms)
 Number     Number       Type             X           Y           Z
 ---------------------------------------------------------------------
      1          6           0        2.845317    0.564504    1.424199
      2          6           0        3.544334   -0.346874    0.398561
      3          6           0        2.621575   -0.244582   -0.821383
      4          6           0        1.212975   -0.336196   -0.210992
      5          6           0        1.329122    0.387551    1.153673
      6          6           0        0.104201    0.230988   -1.143446
      7          6           0       -1.261249    0.088575   -0.484744
      8          7           0       -1.731443    1.156227    0.172661
      9          6           0       -2.913115    1.023472    0.785411
     10          6           0       -3.636050   -0.166202    0.737365
     11          7           0       -3.183479   -1.238939    0.075264
     12          6           0       -1.999476   -1.103435   -0.523744
     13          7           0        0.416919    1.604342   -1.543562
     14          8           0        0.898789   -1.706923    0.099096
     15          1           0        3.118675    0.329625    2.457549
     16          1           0        3.134400    1.606470    1.241619
     17          1           0        3.561855   -1.380483    0.762661
     18          1           0        4.575308   -0.044507    0.187755
     19          1           0        2.789512   -1.023121   -1.578159
     20          1           0        2.728191    0.727662   -1.311887
     21          1           0        0.805083    1.346704    1.147553
     22          1           0        0.843832   -0.237499    1.907837
     23          1           0        0.117616   -0.392653   -2.047776
     24          1           0       -3.291761    1.890673    1.322377
     25          1           0       -4.598984   -0.259402    1.234467
     26          1           0       -1.617283   -1.969663   -1.056946
     27          1           0       -0.123365    1.835629   -2.375768
     28          1           0        0.058018    2.223585   -0.816448
     29          1           0        1.108797   -2.235839   -0.687541
 ---------------------------------------------------------------------

 SCF Done:  E(UB3LYP) =  -629.788238933     A.U. after   33 cycles
 SCF Done:  E(UB3LYP) =  -629.788238933     a.u. after    1 cycles

 The electronic state is 2-A.
 Alpha  occ. eigenvalues --  -19.00004 -14.17394 -14.14867 -14.14616 -10.10536
 Alpha  occ. eigenvalues --  -10.07883 -10.05648 -10.05602 -10.05555 -10.05321
 Alpha  occ. eigenvalues --  -10.05317 -10.05080 -10.04571 -10.04333  -0.90465
 Alpha  occ. eigenvalues --   -0.82180  -0.77387  -0.74143  -0.71223  -0.63217
 Alpha  occ. eigenvalues --   -0.59833  -0.59741  -0.54109  -0.50180  -0.47849
 Alpha  occ. eigenvalues --   -0.46882  -0.43383  -0.39400  -0.37692  -0.36856
 Alpha  occ. eigenvalues --   -0.36112  -0.35462  -0.34240  -0.32984  -0.30666
 Alpha  occ. eigenvalues --   -0.29862  -0.28138  -0.27163  -0.26181  -0.24581
 Alpha  occ. eigenvalues --   -0.24252  -0.23347  -0.22766  -0.22545  -0.21128
 Alpha  occ. eigenvalues --   -0.19263  -0.18402  -0.16249  -0.15146  -0.12922
 Alpha  occ. eigenvalues --   -0.11767  -0.09405   0.05238
 Alpha virt. eigenvalues --    0.07062   0.08090   0.08994   0.09521   0.09915
 Alpha virt. eigenvalues --    0.10913   0.11067   0.11393   0.11852   0.12468
 Alpha virt. eigenvalues --    0.13084   0.13787   0.14249   0.14498   0.15422

  Beta  occ. eigenvalues --  -18.99975 -14.17389 -14.14305 -14.14053 -10.10522
  Beta  occ. eigenvalues --  -10.07893 -10.05575 -10.05567 -10.05549 -10.05304
  Beta  occ. eigenvalues --  -10.05294 -10.05052 -10.04553 -10.04331  -0.90407
  Beta  occ. eigenvalues --   -0.81510  -0.77226  -0.73265  -0.71196  -0.62961
  Beta  occ. eigenvalues --   -0.59803  -0.59628  -0.53907  -0.49824  -0.47526
  Beta  occ. eigenvalues --   -0.46776  -0.43315  -0.39345  -0.37602  -0.36718
  Beta  occ. eigenvalues --   -0.35954  -0.35347  -0.34077  -0.32912  -0.30583
  Beta  occ. eigenvalues --   -0.29792  -0.27821  -0.26741  -0.25678  -0.24372
  Beta  occ. eigenvalues --   -0.23980  -0.23274  -0.22700  -0.22467  -0.21099
  Beta  occ. eigenvalues --   -0.19208  -0.17014  -0.14892  -0.14517  -0.12758
  Beta  occ. eigenvalues --   -0.10877  -0.08829
  Beta virt. eigenvalues --    0.07508   0.08609   0.08975   0.09493   0.09974
  Beta virt. eigenvalues --    0.10845   0.11065   0.11616   0.11665   0.11842
  Beta virt. eigenvalues --    0.12677   0.13073   0.13776   0.14223   0.14639

 Mulliken charges and spin densities:
               1          2
     1  C   -0.073535  -0.593116
     2  C    0.002475  -0.107486
     3  C   -0.344713   0.036539
     4  C    0.528168  -0.252950
     5  C   -0.507313   0.169557
     6  C   -0.634745  -0.507642
     7  C   -0.018408   0.216041
     8  N   -0.039238   0.241085
     9  C   -0.003824   0.116983
    10  C   -0.206498   0.019086
    11  N   -0.107119   0.247325
    12  C   -0.269586  -0.032154
    13  N   -0.213962   0.000761
    14  O   -0.158517   0.006535
    15  H    0.094573   0.038654
    16  H    0.077384   0.043821
    17  H    0.083934   0.040041
    18  H   -0.240063   0.404885
    19  H   -0.464569   0.590411
    20  H    0.234916  -0.031020
    21  H    0.123021   0.009512
    22  H    0.199468   0.004215
    23  H    0.178036   0.032747
    24  H    0.116318   0.002690
    25  H    0.122245  -0.007318
    26  H    0.030989   0.102106
    27  H    0.224756  -0.002133
    28  H    0.215334   0.012214
    29  H    0.050474   0.198611
 Sum of Mulliken charges =  -1.00000   1.00000

 Dipole moment (field-independent basis, Debye):
    X=              1.5876    Y=              2.9928    Z=             -0.0518  Tot=              3.3882
 Quadrupole moment (field-independent basis, Debye-Ang):
   XX=           -140.7993   YY=           -108.5619   ZZ=            -99.0614
   XY=             -2.9721   XZ=              3.9510   YZ=             -0.5194

 Summary of Natural Population Analysis:

                                       Natural Population
                Natural  -----------------------------------------------
    Atom  No    Charge         Core      Valence    Rydberg      Total
 -----------------------------------------------------------------------
      C    1   -0.19014      0.99964     2.18349    0.00700     3.19014
      C    2   -0.19318      0.99964     2.18503    0.00851     3.19318
      C    3   -0.20616      0.99957     2.19634    0.01025     3.20616
      C    4    0.14285      0.99950     1.84109    0.01656     2.85715
      C    5   -0.20214      0.99958     2.19443    0.00813     3.20214
      C    6   -0.03412      0.99950     2.01860    0.01602     3.03412
      C    7    0.08942      0.99952     1.89532    0.01575     2.91058
      N    8   -0.17767      0.99966     2.66548    0.01253     3.67767
      C    9   -0.00003      0.99960     1.98348    0.01695     3.00003
      C   10   -0.00446      0.99960     1.99183    0.01304     3.00446
      N   11   -0.15251      0.99971     2.64164    0.01116     3.65251
      C   12    0.01154      0.99954     1.97098    0.01795     2.98846
      N   13   -0.42646      0.99977     2.91871    0.00797     3.92646
      O   14   -0.37712      0.99989     3.36984    0.00739     4.37712
      H   15    0.09487      0.00000     0.40408    0.00105     0.40513
      H   16    0.09128      0.00000     0.40747    0.00125     0.40872
      H   17    0.09707      0.00000     0.40160    0.00134     0.40293
      H   18    0.09482      0.00000     0.40419    0.00099     0.40518
      H   19    0.09664      0.00000     0.40185    0.00151     0.40336
      H   20    0.11118      0.00000     0.38721    0.00161     0.38882
      H   21    0.10688      0.00000     0.39184    0.00128     0.39312
      H   22    0.10930      0.00000     0.38950    0.00120     0.39070
      H   23    0.09167      0.00000     0.40658    0.00175     0.40833
      H   24    0.08032      0.00000     0.41857    0.00112     0.41968
      H   25    0.08043      0.00000     0.41837    0.00120     0.41957
      H   26    0.08292      0.00000     0.41475    0.00233     0.41708
      H   27    0.17204      0.00000     0.32651    0.00145     0.32796
      H   28    0.18476      0.00000     0.31322    0.00202     0.31524
      H   29    0.22601      0.00000     0.27056    0.00343     0.27399
 =======================================================================
   * Total *    0.00000     13.99472    37.81253    0.19275    52.00000

 Normal termination of Gaussian 16 at Thu Dec 10 11:05:47 2020.
