 Gaussian 16, Revision A.03,

 -----------------------------------------------------------
 # opt freq B3LYP/6-31G(d) empiricaldispersion=gd3bj scf=xqc
 -----------------------------------------------------------

 -------------------------------
 CID_103757529_JID_7852_neutraal
 -------------------------------
 Symbolic Z-matrix:
 Charge =  0 Multiplicity = 1

 SCF Done:  E(RB3LYP) =  -729.040199772     A.U. after   16 cycles
 SCF Done:  E(RB3LYP) =  -729.049405301     A.U. after   15 cycles
 SCF Done:  E(RB3LYP) =  -729.053358392     A.U. after   12 cycles
 SCF Done:  E(RB3LYP) =  -729.063185521     A.U. after   13 cycles
 SCF Done:  E(RB3LYP) =  -729.065405915     A.U. after   13 cycles
 SCF Done:  E(RB3LYP) =  -729.071287114     A.U. after   13 cycles
 SCF Done:  E(RB3LYP) =  -729.075809294     A.U. after   12 cycles
 SCF Done:  E(RB3LYP) =  -729.076012984     A.U. after   12 cycles
 SCF Done:  E(RB3LYP) =  -729.075665911     A.U. after   12 cycles
 SCF Done:  E(RB3LYP) =  -729.077215062     A.U. after   12 cycles
 SCF Done:  E(RB3LYP) =  -729.077884993     A.U. after   10 cycles
 SCF Done:  E(RB3LYP) =  -729.077885421     A.U. after   10 cycles
 SCF Done:  E(RB3LYP) =  -729.077885988     A.U. after    9 cycles
 SCF Done:  E(RB3LYP) =  -729.077885996     A.U. after    7 cycles
 SCF Done:  E(RB3LYP) =  -729.077886008     A.U. after    6 cycles
 Optimization completed.
    -- Stationary point found.
 Normal termination of Gaussian 16 at Fri Dec 11 14:28:09 2020.

 --------------------------------------------------------------------
 #N Geom=AllCheck Guess=TCheck SCRF=Check GenChk RB3LYP/6-31G(d) Freq
 --------------------------------------------------------------------

 Structure from the checkpoint file:  "JID_7852.chk"
 -------------------------------
 CID_103757529_JID_7852_neutraal
 -------------------------------
 Charge =  0 Multiplicity = 1

 SCF Done:  E(RB3LYP) =  -729.077886008     A.U. after    1 cycles

  Exact polarizability: 171.679 -11.454 169.306 -10.619  -3.144 119.577
 Approx polarizability: 244.066 -24.202 268.944 -22.996  -5.856 187.573

                      1                      2                      3
                      A                      A                      A
 Frequencies --     24.2124                35.1296                52.8082
 Red. masses --      4.1253                 3.7767                 5.1545
 Frc consts  --      0.0014                 0.0027                 0.0085
 IR Inten    --      0.1121                 0.2951                 0.9705

                      4                      5                      6
                      A                      A                      A
 Frequencies --     60.9835                78.8417                97.4128
 Red. masses --      3.1161                 3.6423                 2.5628
 Frc consts  --      0.0068                 0.0133                 0.0143
 IR Inten    --      1.2924                 1.9282                 0.4139

                      7                      8                      9
                      A                      A                      A
 Frequencies --     99.2630               129.7006               171.6563
 Red. masses --      2.1038                 2.8137                 3.3685
 Frc consts  --      0.0122                 0.0279                 0.0585
 IR Inten    --      0.4203                 0.6314                 1.6759

                     10                     11                     12
                      A                      A                      A
 Frequencies --    193.1071               218.5748               222.9530
 Red. masses --      3.4052                 3.0115                 3.4498
 Frc consts  --      0.0748                 0.0848                 0.1010
 IR Inten    --      0.3338                 0.4250                 1.0091

                     13                     14                     15
                      A                      A                      A
 Frequencies --    270.8175               298.3787               309.1537
 Red. masses --      3.5954                 3.4974                 3.6500
 Frc consts  --      0.1554                 0.1835                 0.2055
 IR Inten    --      4.2577                 1.7221                 1.2723

                     16                     17                     18
                      A                      A                      A
 Frequencies --    348.4995               360.3935               384.2737
 Red. masses --      2.1051                 2.6994                 4.0104
 Frc consts  --      0.1506                 0.2066                 0.3489
 IR Inten    --      3.6793                 5.2154                 4.8768

                     19                     20                     21
                      A                      A                      A
 Frequencies --    435.4223               454.2346               466.0742
 Red. masses --      3.2869                 2.8408                 2.3805
 Frc consts  --      0.3672                 0.3453                 0.3047
 IR Inten    --      1.5816                 7.8672                 5.1208

                     22                     23                     24
                      A                      A                      A
 Frequencies --    510.8100               531.5324               553.0494
 Red. masses --      1.4241                 4.7551                 3.1452
 Frc consts  --      0.2189                 0.7915                 0.5668
 IR Inten    --     61.6825                 0.9666                 3.7489

                     25                     26                     27
                      A                      A                      A
 Frequencies --    562.1129               585.7458               596.6269
 Red. masses --      3.5760                 3.4396                 1.2005
 Frc consts  --      0.6657                 0.6953                 0.2518
 IR Inten    --      5.6378                27.9935                60.0917

                     28                     29                     30
                      A                      A                      A
 Frequencies --    623.1725               667.8353               690.1700
 Red. masses --      1.2002                 1.9059                 3.0571
 Frc consts  --      0.2746                 0.5008                 0.8580
 IR Inten    --     58.4642                91.8432                 7.6870

                     31                     32                     33
                      A                      A                      A
 Frequencies --    709.5321               754.1530               784.8744
 Red. masses --      2.6893                 3.3935                 1.9541
 Frc consts  --      0.7977                 1.1372                 0.7092
 IR Inten    --     10.6834                33.1836                49.6800

                     34                     35                     36
                      A                      A                      A
 Frequencies --    793.4762               809.7072               818.4891
 Red. masses --      1.7190                 3.0558                 2.7391
 Frc consts  --      0.6377                 1.1804                 1.0811
 IR Inten    --     10.4170                 3.3284                 3.8264

                     37                     38                     39
                      A                      A                      A
 Frequencies --    838.3304               892.7799               915.4396
 Red. masses --      2.0521                 1.3283                 2.3659
 Frc consts  --      0.8497                 0.6238                 1.1682
 IR Inten    --     17.1508                 0.2073                 3.1172

                     40                     41                     42
                      A                      A                      A
 Frequencies --    932.6139               960.1958               968.9343
 Red. masses --      1.3334                 2.2069                 1.2726
 Frc consts  --      0.6833                 1.1988                 0.7039
 IR Inten    --      7.4600                 5.5624                 0.1331

                     43                     44                     45
                      A                      A                      A
 Frequencies --    991.3889               992.9699              1021.7729
 Red. masses --      2.1587                 2.4996                 5.6026
 Frc consts  --      1.2501                 1.4521                 3.4462
 IR Inten    --      2.1954                 3.7429                 0.2424

                     46                     47                     48
                      A                      A                      A
 Frequencies --   1038.2402              1049.4641              1080.9706
 Red. masses --      2.0484                 1.7534                 1.5077
 Frc consts  --      1.3009                 1.1378                 1.0380
 IR Inten    --      7.4786                 2.2564                 5.9078

                     49                     50                     51
                      A                      A                      A
 Frequencies --   1088.2046              1122.6432              1130.4730
 Red. masses --      1.9830                 2.2875                 1.6419
 Frc consts  --      1.3835                 1.6986                 1.2363
 IR Inten    --      6.2618                 7.7151                 8.4884

                     52                     53                     54
                      A                      A                      A
 Frequencies --   1147.3927              1202.1391              1208.8078
 Red. masses --      2.5406                 1.2274                 1.5899
 Frc consts  --      1.9706                 1.0451                 1.3688
 IR Inten    --     21.0596                 0.7189                23.1893

                     55                     56                     57
                      A                      A                      A
 Frequencies --   1214.4366              1230.6285              1290.6289
 Red. masses --      1.2977                 1.1816                 2.3435
 Frc consts  --      1.1277                 1.0543                 2.2999
 IR Inten    --     28.3754                 2.0592                32.2961

                     58                     59                     60
                      A                      A                      A
 Frequencies --   1311.6623              1324.3834              1341.9645
 Red. masses --      1.3936                 1.1640                 1.8744
 Frc consts  --      1.4126                 1.2029                 1.9889
 IR Inten    --     76.9380                 1.7690                12.4228

                     61                     62                     63
                      A                      A                      A
 Frequencies --   1367.0107              1373.5182              1396.1546
 Red. masses --      2.9141                 1.3575                 1.4151
 Frc consts  --      3.2084                 1.5089                 1.6252
 IR Inten    --      3.0843                 7.9737               108.1601

                     64                     65                     66
                      A                      A                      A
 Frequencies --   1412.2130              1421.8312              1444.3630
 Red. masses --      1.4568                 1.4832                 2.3117
 Frc consts  --      1.7118                 1.7666                 2.8414
 IR Inten    --     47.8952                 8.6095               226.9266

                     67                     68                     69
                      A                      A                      A
 Frequencies --   1445.3133              1456.6684              1484.3955
 Red. masses --      1.2813                 1.8100                 1.4009
 Frc consts  --      1.5770                 2.2629                 1.8187
 IR Inten    --     13.9751                 6.2208                21.7151

                     70                     71                     72
                      A                      A                      A
 Frequencies --   1493.9968              1506.2895              1510.4658
 Red. masses --      1.8916                 1.0882                 1.0986
 Frc consts  --      2.4875                 1.4546                 1.4768
 IR Inten    --     12.0271                 1.1434                 1.3306

                     73                     74                     75
                      A                      A                      A
 Frequencies --   1515.4621              1516.3746              1527.8957
 Red. masses --      1.0575                 1.1006                 1.1150
 Frc consts  --      1.4310                 1.4911                 1.5335
 IR Inten    --      5.4178                 2.1295                15.7919

                     76                     77                     78
                      A                      A                      A
 Frequencies --   1531.6727              1550.4721              1650.7094
 Red. masses --      1.2633                 2.2998                 5.4474
 Frc consts  --      1.7462                 3.2574                 8.7454
 IR Inten    --      6.5987                67.0426                29.2402

                     79                     80                     81
                      A                      A                      A
 Frequencies --   1667.1171              1802.1737              2239.0884
 Red. masses --      5.7897                 6.2247                 5.9940
 Frc consts  --      9.4806                11.9113                17.7056
 IR Inten    --     53.3260               570.7688                 3.6890

                     82                     83                     84
                      A                      A                      A
 Frequencies --   3013.6825              3035.0822              3044.4011
 Red. masses --      1.0744                 1.0640                 1.0394
 Frc consts  --      5.7490                 5.7749                 5.6761
 IR Inten    --     47.4206                15.6534                24.8526

                     85                     86                     87
                      A                      A                      A
 Frequencies --   3046.3384              3051.6862              3074.2846
 Red. masses --      1.0658                 1.0695                 1.0987
 Frc consts  --      5.8273                 5.8684                 6.1182
 IR Inten    --     36.6202                47.2092                 2.8007

                     88                     89                     90
                      A                      A                      A
 Frequencies --   3093.2155              3101.6330              3128.4871
 Red. masses --      1.0971                 1.0968                 1.0921
 Frc consts  --      6.1848                 6.2167                 6.2977
 IR Inten    --     46.7460                15.1297                15.1371

                     91                     92                     93
                      A                      A                      A
 Frequencies --   3129.9677              3149.2373              3182.2115
 Red. masses --      1.1018                 1.0900                 1.0859
 Frc consts  --      6.3598                 6.3693                 6.4787
 IR Inten    --     24.3851                10.2437                 2.1970

                     94                     95                     96
                      A                      A                      A
 Frequencies --   3192.6973              3206.7617              3213.1957
 Red. masses --      1.0907                 1.0966                 1.0912
 Frc consts  --      6.5504                 6.6440                 6.6381
 IR Inten    --     22.5441                23.9963                 0.7063

                     97                     98                     99
                      A                      A                      A
 Frequencies --   3498.6276              3598.8630              3603.2557
 Red. masses --      1.1594                 1.0751                 1.0750
 Frc consts  --      8.3611                 8.2040                 8.2235
 IR Inten    --     47.5691                41.0845                14.5614

 - Thermochemistry -
 -------------------
 Temperature   298.150 Kelvin.  Pressure   1.00000 Atm.
 Atom     1 has atomic number  6 and mass  12.00000

 Molecular mass:   230.14191 amu.
 Principal axes and moments of inertia in atomic units:
                           1         2         3
     Eigenvalues --  3262.086704691.114306336.09425
           X            0.99991  -0.00818   0.01063
           Y            0.00843   0.99968  -0.02375
           Z           -0.01043   0.02384   0.99966
 This molecule is an asymmetric top.
 Rotational symmetry number  1.
 Warning -- assumption of classical behavior for rotation
           may cause significant error
 Rotational temperatures (Kelvin)      0.02655     0.01846     0.01367
 Rotational constants (GHZ):           0.55325     0.38471     0.28483
 Zero-point vibrational energy     781618.8 (Joules/Mol)
                                  186.81137 (Kcal/Mol)
 Warning -- explicit consideration of  27 degrees of freedom as
           vibrations may cause significant error
 Vibrational temperatures:     34.84    50.54    75.98    87.74   113.44
          (Kelvin)            140.16   142.82   186.61   246.98   277.84
                              314.48   320.78   389.65   429.30   444.80
                              501.41   518.53   552.88   626.48   653.54
                              670.58   734.94   764.76   795.71   808.76
                              842.76   858.41   896.61   960.87   993.00
                             1020.86  1085.06  1129.26  1141.64  1164.99
                             1177.62  1206.17  1284.51  1317.11  1341.82
                             1381.51  1394.08  1426.39  1428.66  1470.10
                             1493.80  1509.94  1555.28  1565.68  1615.23
                             1626.50  1650.84  1729.61  1739.20  1747.30
                             1770.60  1856.93  1887.19  1905.49  1930.79
                             1966.82  1976.19  2008.76  2031.86  2045.70
                             2078.12  2079.48  2095.82  2135.71  2149.53
                             2167.21  2173.22  2180.41  2181.72  2198.30
                             2203.74  2230.78  2375.00  2398.61  2592.93
                             3221.55  4336.02  4366.81  4380.21  4383.00
                             4390.70  4423.21  4450.45  4462.56  4501.20
                             4503.33  4531.05  4578.49  4593.58  4613.81
                             4623.07  5033.74  5177.96  5184.28

 Zero-point correction=                           0.297703 (Hartree/Particle)
 Thermal correction to Energy=                    0.315043
 Thermal correction to Enthalpy=                  0.315987
 Thermal correction to Gibbs Free Energy=         0.251291
 Sum of electronic and zero-point Energies=           -728.780183
 Sum of electronic and thermal Energies=              -728.762843
 Sum of electronic and thermal Enthalpies=            -728.761899
 Sum of electronic and thermal Free Energies=         -728.826595

                     E (Thermal)             CV                S
                      KCal/Mol        Cal/Mol-Kelvin    Cal/Mol-Kelvin
 Total                  197.692             65.305            136.164
 Electronic               0.000              0.000              0.000
 Translational            0.889              2.981             42.203
 Rotational               0.889              2.981             32.939
 Vibrational            195.915             59.343             61.023
 Vibration     1          0.593              1.985              6.255
 Vibration     2          0.594              1.982              5.516
 Vibration     3          0.596              1.976              4.709
 Vibration     4          0.597              1.973              4.425
 Vibration     5          0.600              1.963              3.920
 Vibration     6          0.603              1.951              3.505
 Vibration     7          0.604              1.950              3.469
 Vibration     8          0.612              1.924              2.950
 Vibration     9          0.626              1.877              2.417
 Vibration    10          0.635              1.849              2.198
 Vibration    11          0.646              1.813              1.971
 Vibration    12          0.649              1.806              1.935
 Vibration    13          0.675              1.727              1.591
 Vibration    14          0.691              1.677              1.426
 Vibration    15          0.699              1.656              1.367
 Vibration    16          0.726              1.578              1.173
 Vibration    17          0.735              1.554              1.120
 Vibration    18          0.753              1.504              1.022
 Vibration    19          0.796              1.393              0.841
 Vibration    20          0.813              1.352              0.783
 Vibration    21          0.823              1.325              0.749
 Vibration    22          0.866              1.226              0.632
 Vibration    23          0.886              1.180              0.584
 Vibration    24          0.908              1.133              0.538
 Vibration    25          0.918              1.113              0.520
 Vibration    26          0.943              1.062              0.475
 Vibration    27          0.954              1.039              0.455

 Optimization completed.
    -- Stationary point found.
 Normal termination of Gaussian 16 at Fri Dec 11 14:43:22 2020.

 ----------------------------------------------------------------------
 # B3LYP/6-311++G(d,p) empiricaldispersion=gd3bj scf=xqc pop=npa geom=c
 heck
 ----------------------------------------------------------------------

 ---------------------------------------
 CID_103757529_JID_7852_Energie_neutraal
 ---------------------------------------
 Structure from the checkpoint file:  "JID_7852.chk"
 Charge =  0 Multiplicity = 1

 SCF Done:  E(RB3LYP) =  -729.287011830     A.U. after   15 cycles
 Normal termination of Gaussian 16 at Fri Dec 11 14:50:51 2020.

 ----------------------------------------------------------------------
 # B3LYP/6-311++G(d,p) empiricaldispersion=gd3bj scf=xqc pop=npa geom=c
 heck
 ----------------------------------------------------------------------

 -------------------------------------
 CID_103757529_JID_7852_Energie_kation
 -------------------------------------
 Structure from the checkpoint file:  "JID_7852.chk"
 Charge =  1 Multiplicity = 2

 SCF Done:  E(UB3LYP) =  -728.990845728     A.U. after   32 cycles
 Normal termination of Gaussian 16 at Fri Dec 11 15:13:25 2020.
 Gaussian 16:  ES64L-G16RevA.03 25-Dec-2016

 ----------------------------------------------------------------------
 # B3LYP/6-311++G(d,p) empiricaldispersion=gd3bj scf=xqc pop=npa geom=c
 heck
 ----------------------------------------------------------------------

 ------------------------------------
 CID_103757529_JID_7852_Energie_anion
 ------------------------------------
 Structure from the checkpoint file:  "JID_7852.chk"
 Charge = -1 Multiplicity = 2

                         Standard orientation:
 ---------------------------------------------------------------------
 Center     Atomic      Atomic             Coordinates (Angstroms)
 Number     Number       Type             X           Y           Z
 ---------------------------------------------------------------------
      1          6           0       -1.210711    2.909649   -0.705022
      2          6           0       -1.832507    1.602916   -0.274918
      3          6           0       -1.185523    0.393136   -0.556581
      4          6           0       -1.746922   -0.824149   -0.159066
      5          6           0       -2.983362   -0.837297    0.500595
      6          6           0       -3.640215    0.361346    0.759502
      7          6           0       -3.065296    1.576481    0.384996
      8          7           0       -1.124674   -2.069815   -0.430642
      9          6           0        0.218080   -2.337461   -0.682211
     10          8           0        0.548019   -3.218022   -1.467899
     11          7           0        1.153027   -1.583440    0.006016
     12          6           0        1.007472   -1.127469    1.393870
     13          6           0        1.429934    0.325138    1.636911
     14          6           0        2.925854    0.633997    1.496500
     15          6           0        3.496115    0.603126    0.059098
     16          6           0        2.769858    1.455238   -0.880703
     17          6           0        2.174382    2.166070   -1.654764
     18          1           0       -0.174446    2.990801   -0.359267
     19          1           0       -1.190832    2.995849   -1.798986
     20          1           0       -1.772290    3.764084   -0.315217
     21          1           0       -0.234750    0.399183   -1.079380
     22          1           0       -3.410997   -1.785940    0.812796
     23          1           0       -4.599280    0.349163    1.269834
     24          1           0       -3.576794    2.509979    0.603588
     25          1           0       -1.708868   -2.761555   -0.883393
     26          1           0        2.072905   -1.926792   -0.237909
     27          1           0       -0.040178   -1.242846    1.674428
     28          1           0        1.585710   -1.793680    2.051879
     29          1           0        0.855881    0.980929    0.976621
     30          1           0        1.130537    0.574242    2.663670
     31          1           0        3.108518    1.634857    1.905355
     32          1           0        3.512768   -0.064805    2.108318
     33          1           0        4.546520    0.921644    0.094359
     34          1           0        3.509962   -0.420992   -0.330065
     35          1           0        1.660056    2.788517   -2.350295
 ---------------------------------------------------------------------

 SCF Done:  E(UB3LYP) =  -729.276117854     A.U. after   33 cycles
 SCF Done:  E(UB3LYP) =  -729.276117855     a.u. after    1 cycles

 The electronic state is 2-A.
 Alpha  occ. eigenvalues --  -18.99650 -14.25298 -14.23964 -10.20962 -10.13303
 Alpha  occ. eigenvalues --  -10.11498 -10.10473 -10.09826 -10.08875 -10.08807
 Alpha  occ. eigenvalues --  -10.08614 -10.08262 -10.08155 -10.08146 -10.07986
 Alpha  occ. eigenvalues --  -10.07485 -10.07336  -0.96289  -0.85291  -0.82437
 Alpha  occ. eigenvalues --   -0.76508  -0.72438  -0.68690  -0.67410  -0.65624
 Alpha  occ. eigenvalues --   -0.63223  -0.60378  -0.57450  -0.54758  -0.51279
 Alpha  occ. eigenvalues --   -0.50490  -0.49763  -0.44426  -0.44268  -0.41950
 Alpha  occ. eigenvalues --   -0.40842  -0.40136  -0.38148  -0.37625  -0.36539
 Alpha  occ. eigenvalues --   -0.35240  -0.34906  -0.34271  -0.33161  -0.32780
 Alpha  occ. eigenvalues --   -0.32552  -0.31988  -0.30941  -0.30010  -0.27768
 Alpha  occ. eigenvalues --   -0.27250  -0.26223  -0.26080  -0.25500  -0.24783
 Alpha  occ. eigenvalues --   -0.21188  -0.18873  -0.18642  -0.18454  -0.16461
 Alpha  occ. eigenvalues --   -0.16001  -0.13970   0.03928
 Alpha virt. eigenvalues --    0.05483   0.06218   0.06636   0.06941   0.07393
 Alpha virt. eigenvalues --    0.07645   0.07896   0.08756   0.09627   0.09753
 Alpha virt. eigenvalues --    0.10156   0.10634   0.10987   0.11462   0.12037

  Beta  occ. eigenvalues --  -18.99647 -14.25289 -14.23951 -10.20962 -10.13301
  Beta  occ. eigenvalues --  -10.11478 -10.10447 -10.09825 -10.08852 -10.08807
  Beta  occ. eigenvalues --  -10.08603 -10.08227 -10.08144 -10.08131 -10.07971
  Beta  occ. eigenvalues --  -10.07476 -10.07318  -0.96284  -0.85279  -0.82415
  Beta  occ. eigenvalues --   -0.76484  -0.72396  -0.68664  -0.67377  -0.65590
  Beta  occ. eigenvalues --   -0.63185  -0.60347  -0.57397  -0.54727  -0.51249
  Beta  occ. eigenvalues --   -0.50448  -0.49704  -0.44395  -0.44229  -0.41913
  Beta  occ. eigenvalues --   -0.40809  -0.40101  -0.38116  -0.37597  -0.36495
  Beta  occ. eigenvalues --   -0.35208  -0.34879  -0.34244  -0.33136  -0.32756
  Beta  occ. eigenvalues --   -0.32526  -0.31950  -0.30903  -0.29983  -0.27734
  Beta  occ. eigenvalues --   -0.27219  -0.26181  -0.26054  -0.25462  -0.24744
  Beta  occ. eigenvalues --   -0.21161  -0.18851  -0.18598  -0.18431  -0.16429
  Beta  occ. eigenvalues --   -0.15962  -0.13940
  Beta virt. eigenvalues --    0.05945   0.06536   0.06630   0.06839   0.07150
  Beta virt. eigenvalues --    0.07818   0.08286   0.08385   0.09205   0.09853
  Beta virt. eigenvalues --    0.10156   0.10462   0.10878   0.11249   0.11728

 Mulliken charges and spin densities:
               1          2
     1  C    0.453922  -1.212119
     2  C   -0.800020   1.356755
     3  C    0.268748  -0.160710
     4  C    0.171994  -0.415042
     5  C    0.251379  -0.357799
     6  C    0.996380  -1.170658
     7  C   -0.975750   0.358154
     8  N   -0.207618   0.006682
     9  C    0.275740  -0.193738
    10  O   -0.346612   0.009775
    11  N   -0.185998  -0.017728
    12  C   -0.043618  -0.480090
    13  C   -0.564822   0.704461
    14  C    0.857650  -1.492621
    15  C   -0.837158   0.483748
    16  C    1.170212  -0.903564
    17  C   -0.067733  -0.217264
    18  H    0.001210   0.163064
    19  H    0.120169   0.055781
    20  H   -0.195970   0.338038
    21  H    0.355994  -0.093816
    22  H   -0.296384   0.456717
    23  H   -0.489677   0.668729
    24  H   -0.366155   0.518016
    25  H    0.243103   0.082677
    26  H    0.309516  -0.000196
    27  H    0.177239   0.003525
    28  H   -0.301483   0.514226
    29  H    0.526872  -0.530725
    30  H   -0.286205   0.476978
    31  H   -0.209742   0.372052
    32  H   -0.484189   0.650932
    33  H   -0.395694   0.619606
    34  H   -0.002963   0.109477
    35  H   -0.122338   0.296672
 Sum of Mulliken charges =  -1.00000   1.00000

 Dipole moment (field-independent basis, Debye):
    X=             -1.9654    Y=             -0.1712    Z=             -2.5479  Tot=              3.2225
 Quadrupole moment (field-independent basis, Debye-Ang):
   XX=           -185.1580   YY=           -155.4723   ZZ=           -145.9995
   XY=              3.4372   XZ=             -2.4595   YZ=             -6.1335

 Summary of Natural Population Analysis:

                                       Natural Population
                Natural  -----------------------------------------------
    Atom  No    Charge         Core      Valence    Rydberg      Total
 -----------------------------------------------------------------------
      C    1   -0.29449      0.99963     2.28896    0.00590     3.29449
      C    2   -0.00787      0.99952     1.99906    0.00929     3.00787
      C    3   -0.11816      0.99946     2.10994    0.00876     3.11816
      C    4    0.07623      0.99946     1.91289    0.01142     2.92377
      C    5   -0.11657      0.99951     2.10690    0.01016     3.11657
      C    6   -0.08870      0.99957     2.07899    0.01015     3.08870
      C    7   -0.10973      0.99951     2.10045    0.00978     3.10973
      N    8   -0.32853      0.99964     2.81946    0.00943     3.82853
      C    9    0.41099      0.99970     1.56687    0.02244     2.58901
      O   10   -0.33496      0.99988     3.33002    0.00506     4.33496
      N   11   -0.33247      0.99967     2.82371    0.00909     3.83247
      C   12   -0.08839      0.99960     2.07813    0.01067     3.08839
      C   13   -0.19792      0.99961     2.18939    0.00892     3.19792
      C   14   -0.18112      0.99962     2.17241    0.00909     3.18112
      C   15   -0.23212      0.99956     2.22243    0.01012     3.23212
      C   16    0.00921      0.99937     1.98256    0.00887     2.99079
      C   17   -0.13264      0.99926     2.13003    0.00335     3.13264
      H   18    0.10955      0.00000     0.38925    0.00120     0.39045
      H   19    0.10279      0.00000     0.39617    0.00105     0.39721
      H   20    0.10212      0.00000     0.39702    0.00086     0.39788
      H   21    0.11412      0.00000     0.38395    0.00192     0.38588
      H   22    0.10322      0.00000     0.39554    0.00124     0.39678
      H   23    0.10238      0.00000     0.39630    0.00132     0.39762
      H   24    0.10112      0.00000     0.39769    0.00119     0.39888
      H   25    0.19940      0.00000     0.29855    0.00206     0.30060
      H   26    0.19229      0.00000     0.30507    0.00264     0.30771
      H   27    0.10532      0.00000     0.39294    0.00174     0.39468
      H   28    0.09224      0.00000     0.40643    0.00133     0.40776
      H   29    0.10443      0.00000     0.39303    0.00254     0.39557
      H   30    0.10219      0.00000     0.39655    0.00125     0.39781
      H   31    0.10069      0.00000     0.39776    0.00155     0.39931
      H   32    0.10064      0.00000     0.39618    0.00318     0.39936
      H   33    0.11607      0.00000     0.38224    0.00169     0.38393
      H   34    0.10681      0.00000     0.39132    0.00187     0.39319
      H   35    0.11185      0.00000     0.38692    0.00123     0.38815
 =======================================================================
   * Total *   -0.00000     16.99256    44.81510    0.19233    62.00000

 Normal termination of Gaussian 16 at Fri Dec 11 15:37:03 2020.
