 Gaussian 16, Revision A.03,

 -----------------------------------------------------------
 # opt freq B3LYP/6-31G(d) empiricaldispersion=gd3bj scf=xqc
 -----------------------------------------------------------

 ------------------------------
 CID_66045781_JID_2854_neutraal
 ------------------------------
 Symbolic Z-matrix:
 Charge =  0 Multiplicity = 1

 SCF Done:  E(RB3LYP) =  -507.671831653     A.U. after   13 cycles
 SCF Done:  E(RB3LYP) =  -507.672741475     A.U. after   11 cycles
 SCF Done:  E(RB3LYP) =  -507.672719266     A.U. after   11 cycles
 SCF Done:  E(RB3LYP) =  -507.672846478     A.U. after   11 cycles
 SCF Done:  E(RB3LYP) =  -507.673846665     A.U. after   11 cycles
 SCF Done:  E(RB3LYP) =  -507.673912626     A.U. after   10 cycles
 SCF Done:  E(RB3LYP) =  -507.673959569     A.U. after   10 cycles
 SCF Done:  E(RB3LYP) =  -507.674000492     A.U. after   10 cycles
 SCF Done:  E(RB3LYP) =  -507.674007431     A.U. after    9 cycles
 SCF Done:  E(RB3LYP) =  -507.674013107     A.U. after    9 cycles
 SCF Done:  E(RB3LYP) =  -507.674014077     A.U. after    8 cycles
 SCF Done:  E(RB3LYP) =  -507.674014334     A.U. after    7 cycles
 SCF Done:  E(RB3LYP) =  -507.674014432     A.U. after    7 cycles
 Optimization completed.
    -- Stationary point found.
 Normal termination of Gaussian 16 at Wed Dec  9 18:10:23 2020.

 --------------------------------------------------------------------
 #N Geom=AllCheck Guess=TCheck SCRF=Check GenChk RB3LYP/6-31G(d) Freq
 --------------------------------------------------------------------

 Structure from the checkpoint file:  "JID_2854.chk"
 ------------------------------
 CID_66045781_JID_2854_neutraal
 ------------------------------
 Charge =  0 Multiplicity = 1

 SCF Done:  E(RB3LYP) =  -507.674014432     A.U. after    1 cycles

  Exact polarizability: 144.117   7.542 117.386   2.926  -3.004  97.852
 Approx polarizability: 182.253  11.897 165.568   5.560  -4.403 147.193

                      1                      2                      3
                      A                      A                      A
 Frequencies --     29.4512                57.8307                77.2399
 Red. masses --      3.3717                 3.1046                 3.0788
 Frc consts  --      0.0017                 0.0061                 0.0108
 IR Inten    --      0.1614                 0.0173                 0.1581

                      4                      5                      6
                      A                      A                      A
 Frequencies --    117.8933               135.9849               171.3716
 Red. masses --      2.5094                 2.5935                 2.2423
 Frc consts  --      0.0205                 0.0283                 0.0388
 IR Inten    --      0.1423                 1.7590                 0.9818

                      7                      8                      9
                      A                      A                      A
 Frequencies --    206.9414               214.1255               231.5971
 Red. masses --      2.8301                 1.2207                 1.3942
 Frc consts  --      0.0714                 0.0330                 0.0441
 IR Inten    --      3.0586                 0.2182                 1.1677

                     10                     11                     12
                      A                      A                      A
 Frequencies --    241.9096               273.0799               280.5126
 Red. masses --      2.1978                 1.4235                 1.9177
 Frc consts  --      0.0758                 0.0625                 0.0889
 IR Inten    --      1.2164                 1.2332                 5.5023

                     13                     14                     15
                      A                      A                      A
 Frequencies --    306.1532               308.3941               334.5388
 Red. masses --      1.7267                 1.1231                 1.2920
 Frc consts  --      0.0954                 0.0629                 0.0852
 IR Inten    --      9.6646                15.2865                65.4443

                     16                     17                     18
                      A                      A                      A
 Frequencies --    357.0279               393.8839               407.1911
 Red. masses --      2.0341                 2.7475                 2.1117
 Frc consts  --      0.1528                 0.2511                 0.2063
 IR Inten    --      1.0936                33.2991                13.7002

                     19                     20                     21
                      A                      A                      A
 Frequencies --    416.1589               430.4542               447.1723
 Red. masses --      1.9900                 1.9408                 1.9214
 Frc consts  --      0.2031                 0.2119                 0.2264
 IR Inten    --      6.9322                13.6024                 4.4093

                     22                     23                     24
                      A                      A                      A
 Frequencies --    487.2929               594.2728               639.2581
 Red. masses --      2.6100                 3.0785                 2.9367
 Frc consts  --      0.3651                 0.6406                 0.7071
 IR Inten    --      4.6496                 4.1876                 2.0121

                     25                     26                     27
                      A                      A                      A
 Frequencies --    719.4772               746.2698               804.9617
 Red. masses --      1.5492                 2.1065                 1.3580
 Frc consts  --      0.4725                 0.6912                 0.5185
 IR Inten    --      0.6582                 0.5061                 2.2059

                     28                     29                     30
                      A                      A                      A
 Frequencies --    811.3486               847.7046               880.1169
 Red. masses --      1.8559                 2.5527                 1.8767
 Frc consts  --      0.7198                 1.0808                 0.8565
 IR Inten    --      3.2171                 2.3071                 2.3410

                     31                     32                     33
                      A                      A                      A
 Frequencies --    925.7848               930.3882               943.2975
 Red. masses --      1.8973                 1.3978                 1.7105
 Frc consts  --      0.9581                 0.7129                 0.8967
 IR Inten    --      9.9470                33.6397                 1.7320

                     34                     35                     36
                      A                      A                      A
 Frequencies --    949.9293               969.1232               973.2787
 Red. masses --      1.7566                 1.8771                 1.2331
 Frc consts  --      0.9339                 1.0387                 0.6882
 IR Inten    --      1.8841                 1.0342                 0.1679

                     37                     38                     39
                      A                      A                      A
 Frequencies --    995.4903              1031.5949              1037.1561
 Red. masses --      2.1235                 1.8952                 1.8040
 Frc consts  --      1.2399                 1.1883                 1.1433
 IR Inten    --     31.1260                 9.7728                 6.0215

                     40                     41                     42
                      A                      A                      A
 Frequencies --   1060.0780              1078.6627              1097.8698
 Red. masses --      1.4942                 1.8461                 1.7867
 Frc consts  --      0.9893                 1.2655                 1.2688
 IR Inten    --      0.1058                15.1658                 8.8057

                     43                     44                     45
                      A                      A                      A
 Frequencies --   1103.6898              1123.6846              1204.1947
 Red. masses --      1.8448                 1.7176                 1.3335
 Frc consts  --      1.3240                 1.2778                 1.1393
 IR Inten    --     16.2427                28.2672                 2.6146

                     46                     47                     48
                      A                      A                      A
 Frequencies --   1223.4115              1246.1535              1265.7015
 Red. masses --      1.7349                 1.6610                 1.6961
 Frc consts  --      1.5299                 1.5197                 1.6009
 IR Inten    --     24.0002                11.2357                19.2350

                     49                     50                     51
                      A                      A                      A
 Frequencies --   1283.7356              1295.5101              1331.3413
 Red. masses --      2.4212                 1.4042                 1.6016
 Frc consts  --      2.3509                 1.3886                 1.6726
 IR Inten    --     11.0754                 0.1900                 1.0389

                     52                     53                     54
                      A                      A                      A
 Frequencies --   1345.3497              1361.4918              1372.8796
 Red. masses --      1.4503                 1.4478                 1.5017
 Frc consts  --      1.5466                 1.5812                 1.6676
 IR Inten    --      3.5190                 1.3691                 2.3626

                     55                     56                     57
                      A                      A                      A
 Frequencies --   1391.3079              1406.0137              1429.1247
 Red. masses --      1.4388                 1.3340                 1.2332
 Frc consts  --      1.6409                 1.5538                 1.4839
 IR Inten    --     12.3689                 3.7687                 6.0707

                     58                     59                     60
                      A                      A                      A
 Frequencies --   1430.4393              1435.7885              1452.2056
 Red. masses --      1.2321                 1.2282                 1.1989
 Frc consts  --      1.4853                 1.4917                 1.4897
 IR Inten    --      8.6277                 4.8019                31.0681

                     61                     62                     63
                      A                      A                      A
 Frequencies --   1463.6887              1477.8733              1506.4095
 Red. masses --      1.2255                 1.1720                 1.0753
 Frc consts  --      1.5469                 1.5082                 1.4377
 IR Inten    --      6.0423                 1.4234                 2.7681

                     64                     65                     66
                      A                      A                      A
 Frequencies --   1511.7438              1514.5645              1518.8935
 Red. masses --      1.0544                 1.0483                 1.0797
 Frc consts  --      1.4198                 1.4168                 1.4676
 IR Inten    --      0.1203                 2.2965                 6.5717

                     67                     68                     69
                      A                      A                      A
 Frequencies --   1520.9210              1523.0709              1530.4676
 Red. masses --      1.0624                 1.0550                 1.0540
 Frc consts  --      1.4479                 1.4419                 1.4546
 IR Inten    --      4.1617                 2.3288                 7.8787

                     70                     71                     72
                      A                      A                      A
 Frequencies --   1535.4911              1540.6749              1543.7200
 Red. masses --      1.0612                 1.0747                 1.0625
 Frc consts  --      1.4741                 1.5030                 1.4918
 IR Inten    --      4.6635                 2.3902                 5.4983

                     73                     74                     75
                      A                      A                      A
 Frequencies --   1550.2217              1728.0993              3034.2237
 Red. masses --      1.0586                 4.9827                 1.0645
 Frc consts  --      1.4989                 8.7671                 5.7744
 IR Inten    --     10.7854                14.8732                18.4533

                     76                     77                     78
                      A                      A                      A
 Frequencies --   3036.1799              3041.4758              3044.1703
 Red. masses --      1.0356                 1.0381                 1.0601
 Frc consts  --      5.6249                 5.6580                 5.7883
 IR Inten    --     23.4857                41.0431                17.6395

                     79                     80                     81
                      A                      A                      A
 Frequencies --   3051.2811              3053.6326              3066.4947
 Red. masses --      1.0471                 1.0355                 1.0634
 Frc consts  --      5.7439                 5.6891                 5.8918
 IR Inten    --     23.4604                21.8457                 1.9398

                     82                     83                     84
                      A                      A                      A
 Frequencies --   3072.6074              3078.4344              3096.7122
 Red. masses --      1.0789                 1.0955                 1.0970
 Frc consts  --      6.0012                 6.1167                 6.1980
 IR Inten    --     54.0686                17.6176                 6.7572

                     85                     86                     87
                      A                      A                      A
 Frequencies --   3100.5706              3103.3400              3104.9636
 Red. masses --      1.1007                 1.1024                 1.1011
 Frc consts  --      6.2343                 6.2552                 6.2543
 IR Inten    --     49.3525                 8.9865                28.7999

                     88                     89                     90
                      A                      A                      A
 Frequencies --   3110.2025              3111.0374              3114.6524
 Red. masses --      1.1020                 1.1022                 1.1011
 Frc consts  --      6.2807                 6.2853                 6.2938
 IR Inten    --     21.7425                73.3564                97.9675

                     91                     92                     93
                      A                      A                      A
 Frequencies --   3121.5845              3125.8159              3155.6048
 Red. masses --      1.1028                 1.1010                 1.0601
 Frc consts  --      6.3314                 6.3384                 6.2197
 IR Inten    --     27.7803                29.7817                12.2073

                     94                     95                     96
                      A                      A                      A
 Frequencies --   3156.8691              3231.9993              3753.7166
 Red. masses --      1.0965                 1.1158                 1.0657
 Frc consts  --      6.4384                 6.8672                 8.8473
 IR Inten    --     18.4749                20.6403                 8.7620

 - Thermochemistry -
 -------------------
 Temperature   298.150 Kelvin.  Pressure   1.00000 Atm.
 Atom     1 has atomic number  6 and mass  12.00000

 Molecular mass:   170.16707 amu.
 Principal axes and moments of inertia in atomic units:
                           1         2         3
     Eigenvalues --  1383.677593195.492053984.51516
           X            1.00000   0.00043   0.00126
           Y           -0.00042   0.99997  -0.00777
           Z           -0.00126   0.00777   0.99997
 This molecule is an asymmetric top.
 Rotational symmetry number  1.
 Warning -- assumption of classical behavior for rotation
           may cause significant error
 Rotational temperatures (Kelvin)      0.06260     0.02711     0.02174
 Rotational constants (GHZ):           1.30431     0.56478     0.45294
 Zero-point vibrational energy     824799.5 (Joules/Mol)
                                  197.13180 (Kcal/Mol)
 Warning -- explicit consideration of  23 degrees of freedom as
           vibrations may cause significant error
 Vibrational temperatures:     42.37    83.21   111.13   169.62   195.65
          (Kelvin)            246.57   297.74   308.08   333.22   348.05
                              392.90   403.60   440.49   443.71   481.33
                              513.68   566.71   585.86   598.76   619.33
                              643.38   701.11   855.03   919.75  1035.17
                             1073.72  1158.16  1167.35  1219.66  1266.29
                             1332.00  1338.62  1357.19  1366.74  1394.35
                             1400.33  1432.29  1484.24  1492.24  1525.22
                             1551.95  1579.59  1587.96  1616.73  1732.57
                             1760.22  1792.94  1821.06  1847.01  1863.95
                             1915.50  1935.66  1958.88  1975.27  2001.78
                             2022.94  2056.19  2058.08  2065.78  2089.40
                             2105.92  2126.33  2167.39  2175.06  2179.12
                             2185.35  2188.27  2191.36  2202.00  2209.23
                             2216.69  2221.07  2230.42  2486.35  4365.57
                             4368.39  4376.01  4379.88  4390.11  4393.50
                             4412.00  4420.80  4429.18  4455.48  4461.03
                             4465.01  4467.35  4474.89  4476.09  4481.29
                             4491.26  4497.35  4540.21  4542.03  4650.13
                             5400.76

 Zero-point correction=                           0.314150 (Hartree/Particle)
 Thermal correction to Energy=                    0.329181
 Thermal correction to Enthalpy=                  0.330125
 Thermal correction to Gibbs Free Energy=         0.272929
 Sum of electronic and zero-point Energies=           -507.359865
 Sum of electronic and thermal Energies=              -507.344833
 Sum of electronic and thermal Enthalpies=            -507.343889
 Sum of electronic and thermal Free Energies=         -507.401086

                     E (Thermal)             CV                S
                      KCal/Mol        Cal/Mol-Kelvin    Cal/Mol-Kelvin
 Total                  206.564             57.280            120.381
 Electronic               0.000              0.000              0.000
 Translational            0.889              2.981             41.303
 Rotational               0.889              2.981             31.244
 Vibrational            204.787             51.318             47.834
 Vibration     1          0.593              1.984              5.866
 Vibration     2          0.596              1.974              4.530
 Vibration     3          0.599              1.964              3.960
 Vibration     4          0.608              1.934              3.135
 Vibration     5          0.614              1.917              2.860
 Vibration     6          0.626              1.878              2.420
 Vibration     7          0.641              1.830              2.070
 Vibration     8          0.644              1.819              2.008
 Vibration     9          0.653              1.793              1.867
 Vibration    10          0.658              1.776              1.789
 Vibration    11          0.676              1.723              1.577
 Vibration    12          0.680              1.710              1.531
 Vibration    13          0.697              1.662              1.383
 Vibration    14          0.698              1.658              1.371
 Vibration    15          0.716              1.607              1.238
 Vibration    16          0.732              1.561              1.135
 Vibration    17          0.761              1.483              0.985
 Vibration    18          0.772              1.455              0.937
 Vibration    19          0.779              1.435              0.905
 Vibration    20          0.792              1.404              0.857
 Vibration    21          0.806              1.367              0.804
 Vibration    22          0.843              1.278              0.691
 Vibration    23          0.952              1.044              0.460

                           ! Non-Optimized Parameters !
 Normal termination of Gaussian 16 at Wed Dec  9 18:20:23 2020.

 ----------------------------------------------------------------------
 # B3LYP/6-311++G(d,p) empiricaldispersion=gd3bj scf=xqc pop=npa geom=c
 heck
 ----------------------------------------------------------------------

 --------------------------------------
 CID_66045781_JID_2854_Energie_neutraal
 --------------------------------------
 Structure from the checkpoint file:  "JID_2854.chk"
 Charge =  0 Multiplicity = 1

 SCF Done:  E(RB3LYP) =  -507.827418631     A.U. after   13 cycles
 Normal termination of Gaussian 16 at Wed Dec  9 18:24:17 2020.

 ----------------------------------------------------------------------
 # B3LYP/6-311++G(d,p) empiricaldispersion=gd3bj scf=xqc pop=npa geom=c
 heck
 ----------------------------------------------------------------------

 ------------------------------------
 CID_66045781_JID_2854_Energie_kation
 ------------------------------------
 Structure from the checkpoint file:  "JID_2854.chk"
 Charge =  1 Multiplicity = 2

 SCF Done:  E(UB3LYP) =  -507.507442214     A.U. after   20 cycles
 Normal termination of Gaussian 16 at Wed Dec  9 18:32:04 2020.
 Gaussian 16:  ES64L-G16RevA.03 25-Dec-2016

 ----------------------------------------------------------------------
 # B3LYP/6-311++G(d,p) empiricaldispersion=gd3bj scf=xqc pop=npa geom=c
 heck
 ----------------------------------------------------------------------

 -----------------------------------
 CID_66045781_JID_2854_Energie_anion
 -----------------------------------
 Structure from the checkpoint file:  "JID_2854.chk"
 Charge = -1 Multiplicity = 2

                         Standard orientation:
 ---------------------------------------------------------------------
 Center     Atomic      Atomic             Coordinates (Angstroms)
 Number     Number       Type             X           Y           Z
 ---------------------------------------------------------------------
      1          6           0       -2.035897    2.214154    0.405341
      2          6           0       -2.464214    1.126864   -0.591658
      3          6           0       -2.476773   -0.271282   -0.009862
      4          6           0       -3.598635   -0.999082   -0.018779
      5          6           0       -1.205241   -0.841408    0.587026
      6          6           0       -0.099655   -1.202168   -0.442870
      7          6           0        0.822403   -0.035171   -0.871842
      8          6           0        2.063732    0.353399   -0.018311
      9          6           0        3.216487   -0.644651   -0.244772
     10          6           0        2.530161    1.738054   -0.509681
     11          6           0        1.765583    0.465060    1.487602
     12          8           0        0.627269   -2.356373   -0.006382
     13          1           0       -2.673432    2.197448    1.296180
     14          1           0       -2.112024    3.207625   -0.049660
     15          1           0       -0.999784    2.080905    0.734128
     16          1           0       -3.467369    1.358814   -0.967321
     17          1           0       -1.799232    1.163392   -1.465664
     18          1           0       -3.633624   -2.003278    0.396156
     19          1           0       -4.523544   -0.616992   -0.444096
     20          1           0       -0.806500   -0.160715    1.347076
     21          1           0       -1.458718   -1.777199    1.095264
     22          1           0       -0.615134   -1.552023   -1.343852
     23          1           0        1.196836   -0.261631   -1.878166
     24          1           0        0.193733    0.855138   -0.981523
     25          1           0        3.507952   -0.658449   -1.301632
     26          1           0        4.097145   -0.355152    0.341510
     27          1           0        2.935069   -1.664273    0.024999
     28          1           0        1.770558    2.505142   -0.315751
     29          1           0        3.454051    2.041709   -0.002988
     30          1           0        2.727708    1.725849   -1.588053
     31          1           0        0.961220    1.181191    1.689434
     32          1           0        1.477456   -0.492430    1.937142
     33          1           0        2.657863    0.811822    2.021979
     34          1           0        0.983919   -2.158521    0.872731
 ---------------------------------------------------------------------

 SCF Done:  E(UB3LYP) =  -507.812961717     A.U. after   33 cycles
 SCF Done:  E(UB3LYP) =  -507.812961717     a.u. after    1 cycles

 The electronic state is 2-A.
 Alpha  occ. eigenvalues --  -19.02214 -10.12517 -10.08785 -10.08552 -10.07454
 Alpha  occ. eigenvalues --  -10.07143 -10.06428 -10.06335 -10.06153 -10.05894
 Alpha  occ. eigenvalues --  -10.05328 -10.05162  -0.92501  -0.73040  -0.71971
 Alpha  occ. eigenvalues --   -0.65630  -0.63401  -0.59297  -0.58195  -0.57939
 Alpha  occ. eigenvalues --   -0.53063  -0.51297  -0.43901  -0.43574  -0.38967
 Alpha  occ. eigenvalues --   -0.38222  -0.36695  -0.35550  -0.35215  -0.34258
 Alpha  occ. eigenvalues --   -0.33023  -0.31901  -0.31334  -0.30269  -0.29118
 Alpha  occ. eigenvalues --   -0.27852  -0.27362  -0.27161  -0.26441  -0.25573
 Alpha  occ. eigenvalues --   -0.24563  -0.23873  -0.23555  -0.22537  -0.22011
 Alpha  occ. eigenvalues --   -0.20938  -0.17828  -0.15404   0.04485
 Alpha virt. eigenvalues --    0.06640   0.07316   0.07743   0.08601   0.08912
 Alpha virt. eigenvalues --    0.09209   0.09726   0.09777   0.10455   0.11141
 Alpha virt. eigenvalues --    0.11492   0.11961   0.12432   0.13125   0.13614

  Beta  occ. eigenvalues --  -19.02192 -10.12510 -10.08785 -10.08551 -10.07436
  Beta  occ. eigenvalues --  -10.07128 -10.06414 -10.06319 -10.06113 -10.05848
  Beta  occ. eigenvalues --  -10.05293 -10.05135  -0.92451  -0.73018  -0.71949
  Beta  occ. eigenvalues --   -0.65594  -0.63366  -0.59237  -0.58140  -0.57881
  Beta  occ. eigenvalues --   -0.52985  -0.51253  -0.43835  -0.43537  -0.38927
  Beta  occ. eigenvalues --   -0.38191  -0.36661  -0.35519  -0.35178  -0.34222
  Beta  occ. eigenvalues --   -0.32991  -0.31867  -0.31297  -0.30241  -0.29080
  Beta  occ. eigenvalues --   -0.27806  -0.27315  -0.27128  -0.26405  -0.25549
  Beta  occ. eigenvalues --   -0.24531  -0.23841  -0.23526  -0.22501  -0.21980
  Beta  occ. eigenvalues --   -0.20907  -0.17801  -0.15371
  Beta virt. eigenvalues --    0.06657   0.07443   0.07826   0.08269   0.09087
  Beta virt. eigenvalues --    0.09344   0.09539   0.10040   0.10228   0.10857
  Beta virt. eigenvalues --    0.11451   0.11772   0.12346   0.12758   0.13552

 Mulliken charges and spin densities:
               1          2
     1  C    0.897318  -1.512142
     2  C   -1.591627   1.211920
     3  C   -0.051901   0.731436
     4  C    0.966413  -1.572334
     5  C    0.032948  -0.162430
     6  C   -0.238011  -0.501005
     7  C    0.850394  -1.043325
     8  C   -2.165493   2.546840
     9  C    0.271607  -0.771691
    10  C    0.396446  -0.993469
    11  C    1.549176  -2.019057
    12  O   -0.173980   0.020810
    13  H   -0.147125   0.287270
    14  H   -0.539033   0.681843
    15  H    0.428473  -0.290713
    16  H   -0.335206   0.502611
    17  H   -0.159308   0.315048
    18  H    0.078226   0.028015
    19  H   -0.050194   0.167552
    20  H    0.210973  -0.088976
    21  H   -0.175153   0.376394
    22  H    0.146152   0.062284
    23  H    0.009491   0.185090
    24  H    0.648982  -0.501194
    25  H   -0.065268   0.201826
    26  H   -0.165062   0.306286
    27  H   -0.030534   0.140724
    28  H   -0.279289   0.418115
    29  H   -0.314393   0.460101
    30  H   -0.212878   0.354144
    31  H   -0.426480   0.581981
    32  H   -0.476842   0.598159
    33  H   -0.157623   0.327361
    34  H    0.268800  -0.049475
 Sum of Mulliken charges =  -1.00000   1.00000

 Dipole moment (field-independent basis, Debye):
    X=             -1.6315    Y=             -3.5932    Z=             -0.8936  Tot=              4.0462
 Quadrupole moment (field-independent basis, Debye-Ang):
   XX=           -145.4003   YY=           -132.2346   ZZ=           -115.0813
   XY=              3.8612   XZ=             -3.4496   YZ=              0.5032

 Summary of Natural Population Analysis:

                                       Natural Population
                Natural  -----------------------------------------------
    Atom  No    Charge         Core      Valence    Rydberg      Total
 -----------------------------------------------------------------------
      C    1   -0.28366      0.99966     2.27858    0.00542     3.28366
      C    2   -0.20645      0.99958     2.19742    0.00944     3.20645
      C    3    0.00785      0.99951     1.98065    0.01199     2.99215
      C    4   -0.19837      0.99948     2.19153    0.00735     3.19837
      C    5   -0.21991      0.99955     2.21095    0.00942     3.21991
      C    6    0.06951      0.99955     1.91759    0.01336     2.93049
      C    7   -0.19982      0.99956     2.19035    0.00992     3.19982
      C    8   -0.05129      0.99959     2.03923    0.01247     3.05129
      C    9   -0.28490      0.99962     2.27788    0.00740     3.28490
      C   10   -0.28134      0.99963     2.27401    0.00771     3.28134
      C   11   -0.28500      0.99962     2.27738    0.00800     3.28500
      O   12   -0.37058      0.99990     3.36457    0.00611     4.37058
      H   13    0.09717      0.00000     0.40163    0.00120     0.40283
      H   14    0.10273      0.00000     0.39580    0.00147     0.39727
      H   15    0.09706      0.00000     0.40135    0.00159     0.40294
      H   16    0.09975      0.00000     0.39889    0.00135     0.40025
      H   17    0.10054      0.00000     0.39790    0.00156     0.39946
      H   18    0.09123      0.00000     0.40779    0.00097     0.40877
      H   19    0.09194      0.00000     0.40702    0.00104     0.40806
      H   20    0.10550      0.00000     0.39258    0.00193     0.39450
      H   21    0.10556      0.00000     0.39301    0.00142     0.39444
      H   22    0.08605      0.00000     0.41224    0.00171     0.41395
      H   23    0.10098      0.00000     0.39784    0.00118     0.39902
      H   24    0.10226      0.00000     0.39551    0.00222     0.39774
      H   25    0.09844      0.00000     0.40061    0.00095     0.40156
      H   26    0.09759      0.00000     0.40143    0.00097     0.40241
      H   27    0.10435      0.00000     0.39460    0.00105     0.39565
      H   28    0.10053      0.00000     0.39803    0.00144     0.39947
      H   29    0.09984      0.00000     0.39898    0.00118     0.40016
      H   30    0.09946      0.00000     0.39938    0.00116     0.40054
      H   31    0.10047      0.00000     0.39779    0.00174     0.39953
      H   32    0.09127      0.00000     0.40690    0.00183     0.40873
      H   33    0.10404      0.00000     0.39468    0.00128     0.39596
      H   34    0.22717      0.00000     0.26963    0.00320     0.27283
 =======================================================================
   * Total *    0.00000     11.99524    35.86375    0.14101    48.00000

 Normal termination of Gaussian 16 at Wed Dec  9 18:43:38 2020.
