 Gaussian 16, Revision A.03,

 -----------------------------------------------------------
 # opt freq B3LYP/6-31G(d) empiricaldispersion=gd3bj scf=xqc
 -----------------------------------------------------------

 --------------------------------
 CID_105698147_JID_10799_neutraal
 --------------------------------
 Symbolic Z-matrix:
 Charge =  0 Multiplicity = 1

 SCF Done:  E(RB3LYP) =  -990.680769159     A.U. after   15 cycles
 SCF Done:  E(RB3LYP) =  -990.685509019     A.U. after   13 cycles
 SCF Done:  E(RB3LYP) =  -990.686017294     A.U. after   12 cycles
 SCF Done:  E(RB3LYP) =  -990.686070195     A.U. after   13 cycles
 SCF Done:  E(RB3LYP) =  -990.686573889     A.U. after   11 cycles
 SCF Done:  E(RB3LYP) =  -990.687123045     A.U. after   12 cycles
 SCF Done:  E(RB3LYP) =  -990.687692584     A.U. after   12 cycles
 SCF Done:  E(RB3LYP) =  -990.688584748     A.U. after   12 cycles
 SCF Done:  E(RB3LYP) =  -990.690907130     A.U. after   13 cycles
 SCF Done:  E(RB3LYP) =  -990.691930224     A.U. after   13 cycles
 SCF Done:  E(RB3LYP) =  -990.694818158     A.U. after   10 cycles
 SCF Done:  E(RB3LYP) =  -990.694835708     A.U. after   11 cycles
 SCF Done:  E(RB3LYP) =  -990.694837551     A.U. after    9 cycles
 SCF Done:  E(RB3LYP) =  -990.694837615     A.U. after   10 cycles
 SCF Done:  E(RB3LYP) =  -990.694838471     A.U. after    9 cycles
 Optimization completed.
    -- Stationary point found.
 Normal termination of Gaussian 16 at Sat Dec 12 16:42:23 2020.

 --------------------------------------------------------------------
 #N Geom=AllCheck Guess=TCheck SCRF=Check GenChk RB3LYP/6-31G(d) Freq
 --------------------------------------------------------------------

 Structure from the checkpoint file:  "JID_10799.chk"
 --------------------------------
 CID_105698147_JID_10799_neutraal
 --------------------------------
 Charge =  0 Multiplicity = 1

 SCF Done:  E(RB3LYP) =  -990.694838471     A.U. after    1 cycles

  Exact polarizability: 258.480  19.733 125.846 -15.352  23.532 124.242
 Approx polarizability: 346.127  37.539 211.211 -26.465  63.183 212.212

                      1                      2                      3
                      A                      A                      A
 Frequencies --     28.1290                34.6043                46.2394
 Red. masses --      5.6367                 5.5604                 5.8525
 Frc consts  --      0.0026                 0.0039                 0.0074
 IR Inten    --      0.1826                 0.4030                 0.5200

                      4                      5                      6
                      A                      A                      A
 Frequencies --     67.7374                99.5471               108.3867
 Red. masses --      8.5170                 3.4783                 2.9553
 Frc consts  --      0.0230                 0.0203                 0.0205
 IR Inten    --      0.8314                 0.7968                 1.8164

                      7                      8                      9
                      A                      A                      A
 Frequencies --    111.1096               129.9369               135.0266
 Red. masses --      6.7916                 3.4820                 2.2238
 Frc consts  --      0.0494                 0.0346                 0.0239
 IR Inten    --      0.4493                 1.3372                 8.2449

                     10                     11                     12
                      A                      A                      A
 Frequencies --    167.9357               175.7710               206.4956
 Red. masses --      4.9789                 4.0796                 2.7378
 Frc consts  --      0.0827                 0.0743                 0.0688
 IR Inten    --      2.5004                 4.6190                 2.8301

                     13                     14                     15
                      A                      A                      A
 Frequencies --    237.6497               251.7474               277.9402
 Red. masses --      1.5124                 1.3110                 6.2010
 Frc consts  --      0.0503                 0.0490                 0.2822
 IR Inten    --      7.8913                 0.6921                 2.4794

                     16                     17                     18
                      A                      A                      A
 Frequencies --    294.2465               305.5784               318.9513
 Red. masses --      2.9522                 3.2102                 3.7194
 Frc consts  --      0.1506                 0.1766                 0.2229
 IR Inten    --      1.5802                 5.0592                 2.3542

                     19                     20                     21
                      A                      A                      A
 Frequencies --    341.4772               360.3030               397.7543
 Red. masses --      6.6653                 4.4353                 4.0719
 Frc consts  --      0.4579                 0.3392                 0.3796
 IR Inten    --      4.2293                 2.1577                 2.0120

                     22                     23                     24
                      A                      A                      A
 Frequencies --    438.2882               446.4736               474.9247
 Red. masses --      3.4038                 3.3690                 4.2657
 Frc consts  --      0.3852                 0.3957                 0.5669
 IR Inten    --      1.7814                12.9285                 4.7656

                     25                     26                     27
                      A                      A                      A
 Frequencies --    508.0281               538.8493               555.0636
 Red. masses --      3.4315                 5.8084                 2.0886
 Frc consts  --      0.5218                 0.9937                 0.3791
 IR Inten    --     15.8946                13.9646                24.5337

                     28                     29                     30
                      A                      A                      A
 Frequencies --    573.4095               632.8745               637.5938
 Red. masses --      2.1785                 2.5581                 1.8322
 Frc consts  --      0.4220                 0.6037                 0.4389
 IR Inten    --     98.6255                73.2713                17.3196

                     31                     32                     33
                      A                      A                      A
 Frequencies --    657.5995               669.3612               725.0707
 Red. masses --      3.4965                 2.8824                 3.6817
 Frc consts  --      0.8908                 0.7609                 1.1404
 IR Inten    --     70.2646                 8.6644                 4.7058

                     34                     35                     36
                      A                      A                      A
 Frequencies --    740.4573               745.5663               766.8886
 Red. masses --      8.1397                 4.5071                 5.7652
 Frc consts  --      2.6294                 1.4761                 1.9977
 IR Inten    --     38.4325                16.0584                 8.5377

                     37                     38                     39
                      A                      A                      A
 Frequencies --    774.7282               824.2592               849.7180
 Red. masses --      5.1543                 3.2537                 1.5701
 Frc consts  --      1.8227                 1.3024                 0.6679
 IR Inten    --     56.6588                 9.4165                10.0014

                     40                     41                     42
                      A                      A                      A
 Frequencies --    871.1036               920.4049               921.0347
 Red. masses --      4.9513                 2.9050                 1.4297
 Frc consts  --      2.2136                 1.4500                 0.7145
 IR Inten    --     38.3781                28.5028                10.8269

                     43                     44                     45
                      A                      A                      A
 Frequencies --    945.6912               964.2503               966.5924
 Red. masses --      5.1222                 1.2899                 6.2750
 Frc consts  --      2.6990                 0.7066                 3.4542
 IR Inten    --      7.6919                 0.0299                17.1023

                     46                     47                     48
                      A                      A                      A
 Frequencies --    992.7399              1019.5881              1049.5762
 Red. masses --      3.9891                 2.2750                 2.2633
 Frc consts  --      2.3163                 1.3934                 1.4690
 IR Inten    --     28.5225                 1.1221                13.2928

                     49                     50                     51
                      A                      A                      A
 Frequencies --   1091.9397              1121.2145              1137.1103
 Red. masses --      2.2129                 2.5363                 3.0466
 Frc consts  --      1.5546                 1.8786                 2.3210
 IR Inten    --     15.6250                18.8174                45.0961

                     52                     53                     54
                      A                      A                      A
 Frequencies --   1159.0135              1170.5286              1174.9877
 Red. masses --      1.5945                 2.8279                 3.8827
 Frc consts  --      1.2619                 2.2829                 3.1582
 IR Inten    --    113.2754               140.0497               133.8180

                     55                     56                     57
                      A                      A                      A
 Frequencies --   1184.0672              1190.2803              1197.3270
 Red. masses --      2.5536                 1.3487                 1.4258
 Frc consts  --      2.1094                 1.1258                 1.2043
 IR Inten    --    186.0721                23.6734                11.2272

                     58                     59                     60
                      A                      A                      A
 Frequencies --   1225.8257              1237.4499              1243.4683
 Red. masses --      2.4474                 1.6551                 1.7000
 Frc consts  --      2.1668                 1.4933                 1.5487
 IR Inten    --    218.2392                 8.8971                24.4778

                     61                     62                     63
                      A                      A                      A
 Frequencies --   1258.5890              1277.0393              1291.3546
 Red. masses --      1.2088                 2.0098                 1.3966
 Frc consts  --      1.1282                 1.9311                 1.3721
 IR Inten    --     11.2288                86.8670                22.1059

                     64                     65                     66
                      A                      A                      A
 Frequencies --   1315.0692              1360.7373              1384.9505
 Red. masses --      2.4047                 1.3638                 1.3132
 Frc consts  --      2.4503                 1.4878                 1.4841
 IR Inten    --    133.6589                 6.0797                25.6209

                     67                     68                     69
                      A                      A                      A
 Frequencies --   1391.5483              1400.0865              1403.0722
 Red. masses --      2.5548                 1.5726                 3.4498
 Frc consts  --      2.9148                 1.8163                 4.0013
 IR Inten    --    227.3474                 5.1287                27.9306

                     70                     71                     72
                      A                      A                      A
 Frequencies --   1420.6903              1451.0778              1471.9581
 Red. masses --      3.2608                 1.4084                 1.5921
 Frc consts  --      3.8777                 1.7472                 2.0324
 IR Inten    --     26.8905                11.3097                99.2395

                     73                     74                     75
                      A                      A                      A
 Frequencies --   1493.0451              1502.6726              1504.6716
 Red. masses --      2.8155                 1.1638                 1.1533
 Frc consts  --      3.6979                 1.5484                 1.5384
 IR Inten    --     93.3660                 0.8362                 4.1255

                     76                     77                     78
                      A                      A                      A
 Frequencies --   1515.2556              1516.5996              1528.6955
 Red. masses --      1.0553                 1.1372                 2.6168
 Frc consts  --      1.4276                 1.5411                 3.6030
 IR Inten    --     12.3973                 3.8668                14.2970

                     79                     80                     81
                      A                      A                      A
 Frequencies --   1531.5309              1533.9405              1548.5337
 Red. masses --      1.1000                 1.1158                 1.0727
 Frc consts  --      1.5201                 1.5469                 1.5155
 IR Inten    --     19.0269                 2.1276                31.3459

                     82                     83                     84
                      A                      A                      A
 Frequencies --   1558.3688              1620.6159              1676.4048
 Red. masses --      1.0847                 6.5817                 7.8559
 Frc consts  --      1.5520                10.1847                13.0078
 IR Inten    --      6.1407               337.4070               259.0585

                     85                     86                     87
                      A                      A                      A
 Frequencies --   1704.0002              1812.9244              2995.0957
 Red. masses --      6.4816                 9.5937                 1.0440
 Frc consts  --     11.0885                18.5778                 5.5177
 IR Inten    --    398.5943               335.5924                21.5131

                     88                     89                     90
                      A                      A                      A
 Frequencies --   3000.5861              3010.8013              3033.8530
 Red. masses --      1.0456                 1.0440                 1.1047
 Frc consts  --      5.5469                 5.5761                 5.9910
 IR Inten    --     55.7357                43.2649                72.2746

                     91                     92                     93
                      A                      A                      A
 Frequencies --   3051.4646              3063.2294              3081.5319
 Red. masses --      1.1010                 1.1035                 1.0833
 Frc consts  --      6.0403                 6.1010                 6.0611
 IR Inten    --     43.5597                48.1789                23.2142

                     94                     95                     96
                      A                      A                      A
 Frequencies --   3091.2014              3140.5152              3151.6166
 Red. masses --      1.0736                 1.0960                 1.0985
 Frc consts  --      6.0441                 6.3686                 6.4289
 IR Inten    --     55.3170                39.2021                18.2546

                     97                     98                     99
                      A                      A                      A
 Frequencies --   3173.4258              3219.6040              3239.1578
 Red. masses --      1.0968                 1.0896                 1.0932
 Frc consts  --      6.5076                 6.6546                 6.7579
 IR Inten    --      1.7839                 4.4167                 3.6291

                    100                    101                    102
                      A                      A                      A
 Frequencies --   3247.7336              3620.9262              3703.4815
 Red. masses --      1.0925                 1.0749                 1.0642
 Frc consts  --      6.7893                 8.3031                 8.5996
 IR Inten    --      1.3079                57.8448                84.8849

 - Thermochemistry -
 -------------------
 Temperature   298.150 Kelvin.  Pressure   1.00000 Atm.
 Atom     1 has atomic number  6 and mass  12.00000

 Molecular mass:   280.10592 amu.
 Principal axes and moments of inertia in atomic units:
                           1         2         3
     Eigenvalues --  1975.46687********************
           X            1.00000   0.00132  -0.00150
           Y           -0.00135   0.99980  -0.02006
           Z            0.00147   0.02006   0.99980
 This molecule is an asymmetric top.
 Rotational symmetry number  1.
 Warning -- assumption of classical behavior for rotation
           may cause significant error
 Rotational temperatures (Kelvin)      0.04384     0.00748     0.00727
 Rotational constants (GHZ):           0.91358     0.15591     0.15158
 Zero-point vibrational energy     764040.4 (Joules/Mol)
                                  182.61003 (Kcal/Mol)
 Warning -- explicit consideration of  28 degrees of freedom as
           vibrations may cause significant error
 Vibrational temperatures:     40.47    49.79    66.53    97.46   143.23
          (Kelvin)            155.94   159.86   186.95   194.27   241.62
                              252.90   297.10   341.92   362.21   399.89
                              423.36   439.66   458.90   491.31   518.40
                              572.28   630.60   642.38   683.31   730.94
                              775.28   798.61   825.01   910.57   917.36
                              946.14   963.06  1043.22  1065.35  1072.70
                             1103.38  1114.66  1185.93  1222.55  1253.32
                             1324.26  1325.16  1360.64  1387.34  1390.71
                             1428.33  1466.96  1510.11  1571.06  1613.18
                             1636.05  1667.56  1684.13  1690.55  1703.61
                             1712.55  1722.69  1763.69  1780.41  1789.07
                             1810.83  1837.37  1857.97  1892.09  1957.80
                             1992.63  2002.13  2014.41  2018.71  2044.06
                             2087.78  2117.82  2148.16  2162.01  2164.89
                             2180.11  2182.05  2199.45  2203.53  2207.00
                             2227.99  2242.15  2331.70  2411.97  2451.68
                             2608.39  4309.27  4317.17  4331.87  4365.04
                             4390.38  4407.30  4433.64  4447.55  4518.50
                             4534.47  4565.85  4632.29  4660.43  4672.76
                             5209.71  5328.48

 Zero-point correction=                           0.291008 (Hartree/Particle)
 Thermal correction to Energy=                    0.309698
 Thermal correction to Enthalpy=                  0.310642
 Thermal correction to Gibbs Free Energy=         0.243000
 Sum of electronic and zero-point Energies=           -990.403831
 Sum of electronic and thermal Energies=              -990.385140
 Sum of electronic and thermal Enthalpies=            -990.384196
 Sum of electronic and thermal Free Energies=         -990.451839

                     E (Thermal)             CV                S
                      KCal/Mol        Cal/Mol-Kelvin    Cal/Mol-Kelvin
 Total                  194.338             70.030            142.366
 Electronic               0.000              0.000              0.000
 Translational            0.889              2.981             42.788
 Rotational               0.889              2.981             33.964
 Vibrational            192.561             64.069             65.613
 Vibration     1          0.593              1.984              5.957
 Vibration     2          0.594              1.983              5.546
 Vibration     3          0.595              1.979              4.972
 Vibration     4          0.598              1.970              4.218
 Vibration     5          0.604              1.949              3.463
 Vibration     6          0.606              1.943              3.298
 Vibration     7          0.607              1.940              3.249
 Vibration     8          0.612              1.923              2.947
 Vibration     9          0.613              1.918              2.873
 Vibration    10          0.625              1.882              2.458
 Vibration    11          0.628              1.872              2.373
 Vibration    12          0.641              1.831              2.074
 Vibration    13          0.656              1.783              1.820
 Vibration    14          0.664              1.760              1.718
 Vibration    15          0.679              1.714              1.546
 Vibration    16          0.689              1.684              1.449
 Vibration    17          0.696              1.663              1.386
 Vibration    18          0.705              1.637              1.315
 Vibration    19          0.721              1.593              1.205
 Vibration    20          0.735              1.554              1.121
 Vibration    21          0.764              1.475              0.971
 Vibration    22          0.798              1.387              0.832
 Vibration    23          0.806              1.369              0.807
 Vibration    24          0.832              1.306              0.724
 Vibration    25          0.863              1.232              0.638
 Vibration    26          0.894              1.164              0.568
 Vibration    27          0.911              1.129              0.534
 Vibration    28          0.930              1.089              0.498

                           ! Non-Optimized Parameters !
 Normal termination of Gaussian 16 at Sat Dec 12 16:59:12 2020.

 ----------------------------------------------------------------------
 # B3LYP/6-311++G(d,p) empiricaldispersion=gd3bj scf=xqc pop=npa geom=c
 heck
 ----------------------------------------------------------------------

 ----------------------------------------
 CID_105698147_JID_10799_Energie_neutraal
 ----------------------------------------
 Structure from the checkpoint file:  "JID_10799.chk"
 Charge =  0 Multiplicity = 1

 SCF Done:  E(RB3LYP) =  -990.983534288     A.U. after   15 cycles
 Normal termination of Gaussian 16 at Sat Dec 12 17:05:28 2020.

 ----------------------------------------------------------------------
 # B3LYP/6-311++G(d,p) empiricaldispersion=gd3bj scf=xqc pop=npa geom=c
 heck
 ----------------------------------------------------------------------

 --------------------------------------
 CID_105698147_JID_10799_Energie_kation
 --------------------------------------
 Structure from the checkpoint file:  "JID_10799.chk"
 Charge =  1 Multiplicity = 2

 SCF Done:  E(UB3LYP) =  -990.693589729     A.U. after   24 cycles
 Normal termination of Gaussian 16 at Sat Dec 12 17:19:08 2020.
 Gaussian 16:  ES64L-G16RevA.03 25-Dec-2016

 ----------------------------------------------------------------------
 # B3LYP/6-311++G(d,p) empiricaldispersion=gd3bj scf=xqc pop=npa geom=c
 heck
 ----------------------------------------------------------------------

 -------------------------------------
 CID_105698147_JID_10799_Energie_anion
 -------------------------------------
 Structure from the checkpoint file:  "JID_10799.chk"
 Charge = -1 Multiplicity = 2

                         Standard orientation:
 ---------------------------------------------------------------------
 Center     Atomic      Atomic             Coordinates (Angstroms)
 Number     Number       Type             X           Y           Z
 ---------------------------------------------------------------------
      1          6           0        0.742301   -1.645888    1.737206
      2          8           0        1.631547   -1.606826    0.635497
      3          6           0        2.892668   -1.064759    0.964627
      4          6           0        3.689270   -0.931875   -0.336109
      5          6           0        2.939694   -0.124080   -1.418768
      6          7           0        2.228400    1.062765   -0.939098
      7          6           0        0.935998    1.003362   -0.533834
      8          7           0        0.384026    1.708147    0.420568
      9          6           0       -0.950067    1.312508    0.394166
     10          6           0       -1.123748    0.338018   -0.607767
     11          8           0        0.103470    0.161675   -1.221611
     12          6           0       -2.311924   -0.297776   -0.873755
     13          6           0       -3.406073    0.086937   -0.074118
     14          6           0       -3.263710    1.062774    0.932451
     15          6           0       -2.041675    1.685510    1.181095
     16          6           0       -4.698115   -0.580096   -0.339646
     17          8           0       -4.884412   -1.431650   -1.188752
     18          8           0       -5.701801   -0.151744    0.472928
     19          8           0        5.014287   -0.476611   -0.076382
     20          6           0        5.176954    0.890025    0.249326
     21          1           0       -0.205568   -2.041605    1.366444
     22          1           0        0.575438   -0.639395    2.146680
     23          1           0        1.123322   -2.299145    2.536956
     24          1           0        2.768040   -0.085334    1.452240
     25          1           0        3.444169   -1.715677    1.660111
     26          1           0        3.836308   -1.937419   -0.744690
     27          1           0        3.653869    0.174610   -2.192684
     28          1           0        2.195997   -0.770293   -1.884116
     29          1           0        2.757425    1.727634   -0.390916
     30          1           0       -2.431219   -1.050317   -1.643600
     31          1           0       -4.132004    1.327280    1.524136
     32          1           0       -1.934413    2.432826    1.959768
     33          1           0       -6.487124   -0.660062    0.199816
     34          1           0        4.960277    1.550728   -0.604745
     35          1           0        4.565289    1.203182    1.108023
     36          1           0        6.229040    1.019897    0.513602
 ---------------------------------------------------------------------

 SCF Done:  E(UB3LYP) =  -990.988169989     A.U. after   33 cycles
 SCF Done:  E(UB3LYP) =  -990.988169989     a.u. after    1 cycles

 The electronic state is 2-A.
 Alpha  occ. eigenvalues --  -19.07447 -19.04784 -19.04205 -19.03969 -18.96663
 Alpha  occ. eigenvalues --  -14.24079 -14.18716 -10.17784 -10.15207 -10.14372
 Alpha  occ. eigenvalues --  -10.13287 -10.13249 -10.12134 -10.12053 -10.10634
 Alpha  occ. eigenvalues --  -10.07345 -10.05199 -10.05142 -10.04681 -10.04617
 Alpha  occ. eigenvalues --   -1.01543  -0.97527  -0.96301  -0.95192  -0.88013
 Alpha  occ. eigenvalues --   -0.85327  -0.80322  -0.72983  -0.69702  -0.64036
 Alpha  occ. eigenvalues --   -0.63177  -0.62410  -0.60697  -0.56432  -0.53964
 Alpha  occ. eigenvalues --   -0.52240  -0.50239  -0.48030  -0.46890  -0.43194
 Alpha  occ. eigenvalues --   -0.42348  -0.42088  -0.40662  -0.40011  -0.39095
 Alpha  occ. eigenvalues --   -0.37820  -0.37470  -0.36547  -0.35726  -0.35153
 Alpha  occ. eigenvalues --   -0.34830  -0.32581  -0.32355  -0.32245  -0.32115
 Alpha  occ. eigenvalues --   -0.31640  -0.30098  -0.29387  -0.28493  -0.27356
 Alpha  occ. eigenvalues --   -0.26141  -0.25043  -0.23931  -0.23828  -0.23358
 Alpha  occ. eigenvalues --   -0.22563  -0.20064  -0.18828  -0.18132  -0.17783
 Alpha  occ. eigenvalues --   -0.17195  -0.14924  -0.12955  -0.10190   0.03873
 Alpha virt. eigenvalues --    0.05308   0.07281   0.07838   0.08189   0.08422
 Alpha virt. eigenvalues --    0.09781   0.09828   0.10391   0.10801   0.11056
 Alpha virt. eigenvalues --    0.11398   0.12286   0.12632   0.12861   0.13490

  Beta  occ. eigenvalues --  -19.07414 -19.04779 -19.04203 -19.03909 -18.96445
  Beta  occ. eigenvalues --  -14.24049 -14.18801 -10.17589 -10.14969 -10.14363
  Beta  occ. eigenvalues --  -10.13246 -10.13243 -10.12119 -10.12051 -10.10718
  Beta  occ. eigenvalues --  -10.07099 -10.05189 -10.05119 -10.04549 -10.04396
  Beta  occ. eigenvalues --   -1.01444  -0.97275  -0.96287  -0.95184  -0.87676
  Beta  occ. eigenvalues --   -0.85206  -0.80231  -0.72743  -0.69657  -0.63816
  Beta  occ. eigenvalues --   -0.62914  -0.62326  -0.60545  -0.56409  -0.53646
  Beta  occ. eigenvalues --   -0.51979  -0.50145  -0.47924  -0.46745  -0.43114
  Beta  occ. eigenvalues --   -0.42284  -0.42012  -0.40523  -0.39918  -0.39030
  Beta  occ. eigenvalues --   -0.37700  -0.37392  -0.36411  -0.35512  -0.35072
  Beta  occ. eigenvalues --   -0.34690  -0.32465  -0.32257  -0.32119  -0.31603
  Beta  occ. eigenvalues --   -0.31070  -0.29988  -0.29356  -0.28451  -0.27231
  Beta  occ. eigenvalues --   -0.25933  -0.24853  -0.23846  -0.23381  -0.23265
  Beta  occ. eigenvalues --   -0.22348  -0.19259  -0.18600  -0.18144  -0.17748
  Beta  occ. eigenvalues --   -0.16733  -0.14703  -0.12204  -0.09416
  Beta virt. eigenvalues --    0.06031   0.07360   0.07856   0.08205   0.08467
  Beta virt. eigenvalues --    0.08888   0.09760   0.09959   0.10413   0.10933
  Beta virt. eigenvalues --    0.11241   0.11492   0.12239   0.12637   0.13037

 Mulliken charges and spin densities:
               1          2
     1  C   -0.241086  -0.064251
     2  O   -0.071629   0.002919
     3  C    0.032655  -0.117033
     4  C   -1.007654   0.390385
     5  C    0.234236  -0.503289
     6  N   -0.073239   0.072883
     7  C   -0.491910   0.023426
     8  N   -0.005558  -0.004708
     9  C    0.214128   0.088700
    10  C    0.377853   0.057728
    11  O   -0.071971   0.012175
    12  C   -0.469127   0.203176
    13  C    0.406008   0.019530
    14  C   -0.655179   0.059274
    15  C   -0.580091  -0.012958
    16  C    0.021473   0.147097
    17  O   -0.406329   0.080432
    18  O   -0.230683   0.013732
    19  O   -0.081748   0.030954
    20  C    0.622394  -0.913195
    21  H    0.145683   0.023675
    22  H    0.116885   0.030783
    23  H    0.110081   0.007775
    24  H    0.222160  -0.064893
    25  H    0.073634   0.090516
    26  H    0.200821   0.007370
    27  H    0.063059   0.144127
    28  H    0.223393  -0.015800
    29  H    0.322712  -0.001740
    30  H    0.194561  -0.011428
    31  H    0.181835  -0.003576
    32  H    0.127067   0.007828
    33  H    0.264911  -0.000896
    34  H   -0.366967   0.492254
    35  H   -0.111846   0.251378
    36  H   -0.290533   0.455651
 Sum of Mulliken charges =  -1.00000   1.00000

 Dipole moment (field-independent basis, Debye):
    X=              2.0111    Y=             -1.9434    Z=              1.8851  Tot=              3.3727
 Quadrupole moment (field-independent basis, Debye-Ang):
   XX=           -213.8575   YY=           -143.2107   ZZ=           -133.9153
   XY=            -15.2708   XZ=             -8.4784   YZ=             -3.7543

 Summary of Natural Population Analysis:

                                       Natural Population
                Natural  -----------------------------------------------
    Atom  No    Charge         Core      Valence    Rydberg      Total
 -----------------------------------------------------------------------
      C    1   -0.10074      0.99962     2.09310    0.00802     3.10074
      O    2   -0.29774      0.99988     3.28890    0.00896     4.29774
      C    3   -0.02447      0.99957     2.01212    0.01278     3.02447
      C    4    0.05643      0.99954     1.92859    0.01544     2.94357
      C    5   -0.10539      0.99959     2.09393    0.01187     3.10539
      N    6   -0.32010      0.99965     2.80916    0.01129     3.82010
      C    7    0.39102      0.99958     1.58748    0.02192     2.60898
      N    8   -0.30437      0.99967     2.79606    0.00864     3.80437
      C    9    0.09145      0.99945     1.89672    0.01238     2.90855
      C   10    0.11328      0.99933     1.87465    0.01274     2.88672
      O   11   -0.24922      0.99985     3.24234    0.00703     4.24922
      C   12   -0.05818      0.99949     2.05035    0.00834     3.05818
      C   13   -0.06891      0.99948     2.05968    0.00975     3.06891
      C   14   -0.07906      0.99956     2.07113    0.00837     3.07906
      C   15   -0.12464      0.99954     2.11650    0.00860     3.12464
      C   16    0.42142      0.99965     1.55371    0.02522     2.57858
      O   17   -0.31071      0.99987     3.30498    0.00585     4.31071
      O   18   -0.35404      0.99988     3.34819    0.00597     4.35404
      O   19   -0.30138      0.99988     3.29124    0.01025     4.30138
      C   20   -0.10552      0.99960     2.09578    0.01014     3.10552
      H   21    0.09805      0.00000     0.40088    0.00107     0.40195
      H   22    0.08827      0.00000     0.41028    0.00144     0.41173
      H   23    0.07303      0.00000     0.42576    0.00121     0.42697
      H   24    0.08460      0.00000     0.41368    0.00172     0.41540
      H   25    0.08295      0.00000     0.41562    0.00143     0.41705
      H   26    0.09366      0.00000     0.40505    0.00129     0.40634
      H   27    0.09993      0.00000     0.39917    0.00090     0.40007
      H   28    0.11659      0.00000     0.38215    0.00127     0.38341
      H   29    0.19574      0.00000     0.30122    0.00304     0.30426
      H   30    0.11184      0.00000     0.38714    0.00102     0.38816
      H   31    0.10291      0.00000     0.39603    0.00106     0.39709
      H   32    0.09803      0.00000     0.40051    0.00147     0.40197
      H   33    0.23165      0.00000     0.26486    0.00349     0.26835
      H   34    0.07957      0.00000     0.41860    0.00182     0.42043
      H   35    0.07967      0.00000     0.41881    0.00152     0.42033
      H   36    0.09443      0.00000     0.40445    0.00112     0.40557
 =======================================================================
   * Total *    0.00005     19.99269    53.75881    0.24845    73.99995

 Normal termination of Gaussian 16 at Sat Dec 12 17:38:12 2020.
