 Gaussian 16, Revision A.03,

 -----------------------------------------------------------
 # opt freq B3LYP/6-31G(d) empiricaldispersion=gd3bj scf=xqc
 -----------------------------------------------------------

 ------------------------------
 CID_23164645_JID_3778_neutraal
 ------------------------------
 Symbolic Z-matrix:
 Charge =  0 Multiplicity = 1

 SCF Done:  E(RB3LYP) =  -519.871496150     A.U. after   15 cycles
 SCF Done:  E(RB3LYP) =  -519.874818661     A.U. after   12 cycles
 SCF Done:  E(RB3LYP) =  -519.875478728     A.U. after   12 cycles
 SCF Done:  E(RB3LYP) =  -519.875877085     A.U. after   12 cycles
 SCF Done:  E(RB3LYP) =  -519.876145277     A.U. after   12 cycles
 SCF Done:  E(RB3LYP) =  -519.876358073     A.U. after   12 cycles
 SCF Done:  E(RB3LYP) =  -519.876396916     A.U. after   10 cycles
 SCF Done:  E(RB3LYP) =  -519.876402860     A.U. after    9 cycles
 SCF Done:  E(RB3LYP) =  -519.876404212     A.U. after    9 cycles
 SCF Done:  E(RB3LYP) =  -519.876404687     A.U. after    8 cycles
 SCF Done:  E(RB3LYP) =  -519.876404834     A.U. after    7 cycles
 SCF Done:  E(RB3LYP) =  -519.876404903     A.U. after    7 cycles
 Optimization completed.
    -- Stationary point found.
 Normal termination of Gaussian 16 at Mon Dec 14 13:10:47 2020.

 --------------------------------------------------------------------
 #N Geom=AllCheck Guess=TCheck SCRF=Check GenChk RB3LYP/6-31G(d) Freq
 --------------------------------------------------------------------

 Structure from the checkpoint file:  "JID_3778.chk"
 ------------------------------
 CID_23164645_JID_3778_neutraal
 ------------------------------
 Charge =  0 Multiplicity = 1

 SCF Done:  E(RB3LYP) =  -519.876404903     A.U. after    1 cycles

  Exact polarizability: 211.760  -0.859 132.910   5.530   6.290  65.203
 Approx polarizability: 303.427  -0.325 221.506  10.260  14.872 101.176

                      1                      2                      3
                      A                      A                      A
 Frequencies --     58.1224                70.1279               123.9353
 Red. masses --      3.6823                 3.6796                 3.6472
 Frc consts  --      0.0073                 0.0107                 0.0330
 IR Inten    --      0.1582                 1.3622                 0.0136

                      4                      5                      6
                      A                      A                      A
 Frequencies --    145.8646               170.0384               246.8078
 Red. masses --      2.2754                 1.1072                 3.5189
 Frc consts  --      0.0285                 0.0189                 0.1263
 IR Inten    --      2.0939                 0.3866                 1.9641

                      7                      8                      9
                      A                      A                      A
 Frequencies --    271.6089               303.1273               352.8978
 Red. masses --      2.7634                 4.2485                 3.8692
 Frc consts  --      0.1201                 0.2300                 0.2839
 IR Inten    --      5.5988                 0.1546                 2.8317

                     10                     11                     12
                      A                      A                      A
 Frequencies --    368.5464               426.0793               452.6471
 Red. masses --      3.6150                 3.2131                 3.7742
 Frc consts  --      0.2893                 0.3437                 0.4556
 IR Inten    --      1.1981                 1.6401                 1.1132

                     13                     14                     15
                      A                      A                      A
 Frequencies --    504.0364               539.9342               569.6048
 Red. masses --      3.7388                 3.1243                 2.4243
 Frc consts  --      0.5596                 0.5366                 0.4634
 IR Inten    --      3.1916                 7.1628                15.9842

                     16                     17                     18
                      A                      A                      A
 Frequencies --    623.6615               636.7736               694.9296
 Red. masses --      6.1758                 6.2719                 4.2186
 Frc consts  --      1.4153                 1.4984                 1.2003
 IR Inten    --      5.1529                 1.8297                 1.3672

                     19                     20                     21
                      A                      A                      A
 Frequencies --    709.6310               737.8847               767.5997
 Red. masses --      2.0209                 1.6859                 1.7638
 Frc consts  --      0.5996                 0.5408                 0.6123
 IR Inten    --     17.7216                20.7081                41.7350

                     22                     23                     24
                      A                      A                      A
 Frequencies --    831.4261               844.6110               876.2826
 Red. masses --      1.3609                 3.1526                 1.3673
 Frc consts  --      0.5543                 1.3251                 0.6186
 IR Inten    --      0.5279                 3.9943                29.9236

                     25                     26                     27
                      A                      A                      A
 Frequencies --    893.2662               950.6455               957.8310
 Red. masses --      1.4246                 2.5605                 1.4047
 Frc consts  --      0.6697                 1.3634                 0.7593
 IR Inten    --      8.3179                 6.6101                 0.9715

                     28                     29                     30
                      A                      A                      A
 Frequencies --    968.2122               978.0455               983.2973
 Red. masses --      1.9256                 1.5657                 1.3040
 Frc consts  --      1.0636                 0.8824                 0.7429
 IR Inten    --     13.7113                 0.1975                 0.3387

                     31                     32                     33
                      A                      A                      A
 Frequencies --   1012.5321              1016.6530              1047.3956
 Red. masses --      3.3147                 2.9657                 1.6631
 Frc consts  --      2.0022                 1.8060                 1.0750
 IR Inten    --      2.2783                10.2204                34.3995

                     34                     35                     36
                      A                      A                      A
 Frequencies --   1064.9192              1079.0699              1082.4695
 Red. masses --      2.1704                 1.4408                 1.9407
 Frc consts  --      1.4502                 0.9884                 1.3398
 IR Inten    --      7.2217                 7.0768                 1.1789

                     37                     38                     39
                      A                      A                      A
 Frequencies --   1123.7125              1194.7348              1208.6469
 Red. masses --      1.5818                 1.0834                 1.1047
 Frc consts  --      1.1768                 0.9111                 0.9508
 IR Inten    --      2.5857                 0.8167                 4.0169

                     40                     41                     42
                      A                      A                      A
 Frequencies --   1223.8664              1228.3040              1273.5588
 Red. masses --      1.1518                 3.0503                 1.1285
 Frc consts  --      1.0165                 2.7115                 1.0784
 IR Inten    --      6.7523                 3.2033                13.1333

                     43                     44                     45
                      A                      A                      A
 Frequencies --   1295.1036              1348.7491              1356.2504
 Red. masses --      2.8823                 2.1572                 2.8495
 Frc consts  --      2.8483                 2.3121                 3.0881
 IR Inten    --    139.2523                38.9120               130.0404

                     46                     47                     48
                      A                      A                      A
 Frequencies --   1380.0254              1385.5323              1443.7928
 Red. masses --      1.5332                 1.7312                 1.6124
 Frc consts  --      1.7204                 1.9580                 1.9803
 IR Inten    --      3.4911                39.1007                51.6007

                     49                     50                     51
                      A                      A                      A
 Frequencies --   1453.1510              1456.1544              1507.7067
 Red. masses --      1.5620                 2.0483                 1.0449
 Frc consts  --      1.9433                 2.5589                 1.3995
 IR Inten    --      7.6944                 2.8665                 4.7058

                     52                     53                     54
                      A                      A                      A
 Frequencies --   1509.9848              1530.0032              1539.9160
 Red. masses --      2.3904                 1.0767                 1.1561
 Frc consts  --      3.2112                 1.4850                 1.6153
 IR Inten    --      4.5653                 9.7620                47.9418

                     55                     56                     57
                      A                      A                      A
 Frequencies --   1554.0087              1637.1208              1655.9257
 Red. masses --      2.1744                 5.5886                 5.6269
 Frc consts  --      3.0939                 8.8250                 9.0908
 IR Inten    --    129.9542                31.0897               230.8820

                     58                     59                     60
                      A                      A                      A
 Frequencies --   1670.0041              1737.3694              2900.2347
 Red. masses --      5.6749                 5.8699                 1.0752
 Frc consts  --      9.3248                10.4391                 5.3287
 IR Inten    --     19.9020                44.4369               104.7258

                     61                     62                     63
                      A                      A                      A
 Frequencies --   3024.5123              3067.2315              3076.7149
 Red. masses --      1.0382                 1.1008                 1.0857
 Frc consts  --      5.5954                 6.1020                 6.0550
 IR Inten    --     73.7153                30.5285                18.5250

                     64                     65                     66
                      A                      A                      A
 Frequencies --   3113.5149              3173.3554              3183.4985
 Red. masses --      1.0990                 1.0865                 1.0851
 Frc consts  --      6.2769                 6.4463                 6.4795
 IR Inten    --     20.3570                18.5538                 6.5195

                     67                     68                     69
                      A                      A                      A
 Frequencies --   3190.3956              3201.7360              3206.2353
 Red. masses --      1.0892                 1.0957                 1.0918
 Frc consts  --      6.5322                 6.6180                 6.6127
 IR Inten    --     17.4471                31.5800                 7.5150

                     70                     71                     72
                      A                      A                      A
 Frequencies --   3210.9247              3219.9252              3223.7644
 Red. masses --      1.0941                 1.0919                 1.0932
 Frc consts  --      6.6460                 6.6702                 6.6936
 IR Inten    --     30.3254                15.9603                 4.8994

 - Thermochemistry -
 -------------------
 Temperature   298.150 Kelvin.  Pressure   1.00000 Atm.
 Atom     1 has atomic number  6 and mass  12.00000

 Molecular mass:   171.10480 amu.
 Principal axes and moments of inertia in atomic units:
                           1         2         3
     Eigenvalues --   933.534633831.750894587.85875
           X            0.99994   0.01112  -0.00061
           Y           -0.01112   0.99994   0.00188
           Z            0.00063  -0.00188   1.00000
 This molecule is an asymmetric top.
 Rotational symmetry number  1.
 Warning -- assumption of classical behavior for rotation
           may cause significant error
 Rotational temperatures (Kelvin)      0.09278     0.02260     0.01888
 Rotational constants (GHZ):           1.93323     0.47100     0.39337
 Zero-point vibrational energy     579388.4 (Joules/Mol)
                                  138.47716 (Kcal/Mol)
 Warning -- explicit consideration of  15 degrees of freedom as
           vibrations may cause significant error
 Vibrational temperatures:     83.63   100.90   178.32   209.87   244.65
          (Kelvin)            355.10   390.78   436.13   507.74   530.26
                              613.03   651.26   725.20   776.84   819.53
                              897.31   916.18   999.85  1021.00  1061.65
                             1104.40  1196.24  1215.21  1260.78  1285.21
                             1367.77  1378.11  1393.04  1407.19  1414.75
                             1456.81  1462.74  1506.97  1532.18  1552.54
                             1557.43  1616.77  1718.96  1738.97  1760.87
                             1767.26  1832.37  1863.37  1940.55  1951.34
                             1985.55  1993.47  2077.30  2090.76  2095.08
                             2169.25  2172.53  2201.33  2215.60  2235.87
                             2355.45  2382.51  2402.76  2499.69  4172.79
                             4351.60  4413.06  4426.71  4479.65  4565.75
                             4580.34  4590.27  4606.58  4613.06  4619.80
                             4632.75  4638.28

 Zero-point correction=                           0.220677 (Hartree/Particle)
 Thermal correction to Energy=                    0.231810
 Thermal correction to Enthalpy=                  0.232754
 Thermal correction to Gibbs Free Energy=         0.183462
 Sum of electronic and zero-point Energies=           -519.655728
 Sum of electronic and thermal Energies=              -519.644595
 Sum of electronic and thermal Enthalpies=            -519.643651
 Sum of electronic and thermal Free Energies=         -519.692943

                     E (Thermal)             CV                S
                      KCal/Mol        Cal/Mol-Kelvin    Cal/Mol-Kelvin
 Total                  145.463             44.056            103.745
 Electronic               0.000              0.000              0.000
 Translational            0.889              2.981             41.319
 Rotational               0.889              2.981             31.174
 Vibrational            143.685             38.095             31.252
 Vibration     1          0.596              1.974              4.520
 Vibration     2          0.598              1.968              4.150
 Vibration     3          0.610              1.929              3.038
 Vibration     4          0.617              1.907              2.725
 Vibration     5          0.625              1.879              2.435
 Vibration     6          0.661              1.768              1.753
 Vibration     7          0.675              1.726              1.586
 Vibration     8          0.695              1.668              1.400
 Vibration     9          0.729              1.569              1.153
 Vibration    10          0.741              1.537              1.086
 Vibration    11          0.788              1.413              0.872
 Vibration    12          0.811              1.355              0.788
 Vibration    13          0.859              1.241              0.648
 Vibration    14          0.895              1.162              0.565
 Vibration    15          0.926              1.097              0.505

 Optimization completed.
    -- Stationary point found.
 Normal termination of Gaussian 16 at Mon Dec 14 13:16:56 2020.

 ----------------------------------------------------------------------
 # B3LYP/6-311++G(d,p) empiricaldispersion=gd3bj scf=xqc pop=npa geom=c
 heck
 ----------------------------------------------------------------------

 --------------------------------------
 CID_23164645_JID_3778_Energie_neutraal
 --------------------------------------
 Structure from the checkpoint file:  "JID_3778.chk"
 Charge =  0 Multiplicity = 1

 SCF Done:  E(RB3LYP) =  -520.011529708     A.U. after   15 cycles
 Normal termination of Gaussian 16 at Mon Dec 14 13:19:40 2020.

 ----------------------------------------------------------------------
 # B3LYP/6-311++G(d,p) empiricaldispersion=gd3bj scf=xqc pop=npa geom=c
 heck
 ----------------------------------------------------------------------

 ------------------------------------
 CID_23164645_JID_3778_Energie_kation
 ------------------------------------
 Structure from the checkpoint file:  "JID_3778.chk"
 Charge =  1 Multiplicity = 2

 SCF Done:  E(UB3LYP) =  -519.767811222     A.U. after   21 cycles
 Normal termination of Gaussian 16 at Mon Dec 14 13:25:07 2020.
 Gaussian 16:  ES64L-G16RevA.03 25-Dec-2016

 ----------------------------------------------------------------------
 # B3LYP/6-311++G(d,p) empiricaldispersion=gd3bj scf=xqc pop=npa geom=c
 heck
 ----------------------------------------------------------------------

 -----------------------------------
 CID_23164645_JID_3778_Energie_anion
 -----------------------------------
 Structure from the checkpoint file:  "JID_3778.chk"
 Charge = -1 Multiplicity = 2

                         Standard orientation:
 ---------------------------------------------------------------------
 Center     Atomic      Atomic             Coordinates (Angstroms)
 Number     Number       Type             X           Y           Z
 ---------------------------------------------------------------------
      1          6           0       -3.522484   -1.730061    0.394069
      2          6           0       -2.559438   -0.613252    0.103243
      3          6           0       -1.227879   -0.737552    0.308649
      4          7           0       -0.330792    0.300216    0.084069
      5          6           0       -0.840270    1.676398    0.089450
      6          6           0       -2.228520    1.723423   -0.498988
      7          6           0       -3.031692    0.649243   -0.449941
      8          6           0        1.048455    0.063559    0.028675
      9          6           0        1.544112   -1.177671   -0.414715
     10          6           0        2.913550   -1.417985   -0.451948
     11          6           0        3.824008   -0.429049   -0.072631
     12          6           0        3.338958    0.807904    0.350043
     13          6           0        1.968947    1.057078    0.408313
     14          1           0       -2.997595   -2.633251    0.722905
     15          1           0       -4.112675   -1.991260   -0.495023
     16          1           0       -4.239643   -1.458865    1.181067
     17          1           0       -0.785783   -1.661400    0.666129
     18          1           0       -0.826717    2.097014    1.115440
     19          1           0       -0.155737    2.288311   -0.507060
     20          1           0       -2.555351    2.662112   -0.937003
     21          1           0       -4.043144    0.697192   -0.847925
     22          1           0        0.853335   -1.936653   -0.765573
     23          1           0        3.271968   -2.381938   -0.803013
     24          1           0        4.892265   -0.618347   -0.113039
     25          1           0        4.030720    1.589605    0.652205
     26          1           0        1.617418    2.013758    0.777095
 ---------------------------------------------------------------------

 SCF Done:  E(UB3LYP) =  -519.996753617     A.U. after   33 cycles
 SCF Done:  E(UB3LYP) =  -519.996753617     a.u. after    1 cycles

 The electronic state is 2-A.
 Alpha  occ. eigenvalues --  -14.23255 -10.10231 -10.10048 -10.07975 -10.06610
 Alpha  occ. eigenvalues --  -10.06474 -10.06182 -10.05869 -10.05824 -10.05565
 Alpha  occ. eigenvalues --  -10.05085 -10.05027 -10.04942  -0.85352  -0.74315
 Alpha  occ. eigenvalues --   -0.70002  -0.66292  -0.63830  -0.62808  -0.59138
 Alpha  occ. eigenvalues --   -0.54424  -0.50973  -0.47983  -0.47755  -0.43188
 Alpha  occ. eigenvalues --   -0.39556  -0.38177  -0.37078  -0.35113  -0.33793
 Alpha  occ. eigenvalues --   -0.32743  -0.32153  -0.31724  -0.30549  -0.29909
 Alpha  occ. eigenvalues --   -0.27978  -0.26615  -0.25543  -0.25033  -0.24003
 Alpha  occ. eigenvalues --   -0.22801  -0.21119  -0.18321  -0.14792  -0.13039
 Alpha  occ. eigenvalues --   -0.06801   0.04899
 Alpha virt. eigenvalues --    0.06747   0.07224   0.07442   0.08343   0.08714
 Alpha virt. eigenvalues --    0.09267   0.09737   0.10178   0.10874   0.11144
 Alpha virt. eigenvalues --    0.11346   0.11898   0.12442   0.13664   0.14435

  Beta  occ. eigenvalues --  -14.23272 -10.10173 -10.10047 -10.07856 -10.06619
  Beta  occ. eigenvalues --  -10.06443 -10.06180 -10.05846 -10.05767 -10.05498
  Beta  occ. eigenvalues --  -10.05034 -10.04999 -10.04815  -0.85284  -0.74218
  Beta  occ. eigenvalues --   -0.69857  -0.66134  -0.63755  -0.62653  -0.59059
  Beta  occ. eigenvalues --   -0.54295  -0.50841  -0.47897  -0.47563  -0.43121
  Beta  occ. eigenvalues --   -0.39430  -0.38092  -0.36987  -0.35001  -0.33701
  Beta  occ. eigenvalues --   -0.32664  -0.32078  -0.31676  -0.30472  -0.29832
  Beta  occ. eigenvalues --   -0.27929  -0.26419  -0.25473  -0.24965  -0.23922
  Beta  occ. eigenvalues --   -0.22714  -0.20889  -0.17858  -0.14623  -0.12567
  Beta  occ. eigenvalues --   -0.06481
  Beta virt. eigenvalues --    0.06995   0.07538   0.07905   0.08162   0.08781
  Beta virt. eigenvalues --    0.09155   0.09398   0.10028   0.10585   0.11186
  Beta virt. eigenvalues --    0.11394   0.11767   0.12168   0.12548   0.13787

 Mulliken charges and spin densities:
               1          2
     1  C    0.701145  -1.342423
     2  C    0.003496   0.886122
     3  C   -0.281897  -0.533914
     4  N    0.401962   0.063859
     5  C    0.260806  -0.790484
     6  C   -0.253715   0.173976
     7  C   -0.139274  -0.072214
     8  C   -0.054663  -0.440822
     9  C   -0.765775   0.942606
    10  C   -0.382066   0.185762
    11  C    0.824992  -1.212049
    12  C   -0.162337   0.068410
    13  C    0.484938  -0.423927
    14  H   -0.240924   0.372739
    15  H   -0.087372   0.213061
    16  H   -0.022654   0.164872
    17  H    0.250317  -0.128496
    18  H    0.001390   0.130180
    19  H    0.044650   0.083489
    20  H   -0.186903   0.341321
    21  H   -0.273943   0.422713
    22  H   -0.100326   0.267724
    23  H   -0.331147   0.493677
    24  H   -0.213189   0.339951
    25  H   -0.478218   0.643583
    26  H    0.000705   0.150283
 Sum of Mulliken charges =  -1.00000   1.00000

 Dipole moment (field-independent basis, Debye):
    X=             -0.6729    Y=              0.6547    Z=              1.3150  Tot=              1.6157
 Quadrupole moment (field-independent basis, Debye-Ang):
   XX=           -158.3611   YY=           -111.1344   ZZ=           -101.9506
   XY=             -2.1144   XZ=             -2.3275   YZ=             -1.0360

 Summary of Natural Population Analysis:

                                       Natural Population
                Natural  -----------------------------------------------
    Atom  No    Charge         Core      Valence    Rydberg      Total
 -----------------------------------------------------------------------
      C    1   -0.28396      0.99964     2.27950    0.00482     3.28396
      C    2   -0.06770      0.99951     2.05746    0.01073     3.06770
      C    3    0.03645      0.99946     1.95299    0.01110     2.96355
      N    4   -0.23222      0.99963     2.72266    0.00993     3.73222
      C    5   -0.09102      0.99961     2.08221    0.00920     3.09102
      C    6   -0.07845      0.99955     2.06926    0.00964     3.07845
      C    7   -0.09860      0.99950     2.08775    0.01136     3.09860
      C    8    0.09900      0.99949     1.89037    0.01114     2.90100
      C    9   -0.11308      0.99953     2.10482    0.00873     3.11308
      C   10   -0.09970      0.99957     2.08971    0.01042     3.09970
      C   11   -0.11316      0.99956     2.10306    0.01054     3.11316
      C   12   -0.09281      0.99957     2.08288    0.01036     3.09281
      C   13   -0.12960      0.99953     2.11954    0.01052     3.12960
      H   14    0.09908      0.00000     0.39994    0.00098     0.40092
      H   15    0.09809      0.00000     0.40016    0.00175     0.40191
      H   16    0.09611      0.00000     0.40243    0.00146     0.40389
      H   17    0.09439      0.00000     0.40412    0.00150     0.40561
      H   18    0.08314      0.00000     0.41492    0.00193     0.41686
      H   19    0.10002      0.00000     0.39796    0.00202     0.39998
      H   20    0.09363      0.00000     0.40542    0.00095     0.40637
      H   21    0.09695      0.00000     0.40188    0.00117     0.40305
      H   22    0.10527      0.00000     0.39358    0.00115     0.39473
      H   23    0.09857      0.00000     0.40038    0.00105     0.40143
      H   24    0.09848      0.00000     0.40034    0.00118     0.40152
      H   25    0.09842      0.00000     0.40039    0.00119     0.40158
      H   26    0.10271      0.00000     0.39602    0.00127     0.39729
 =======================================================================
   * Total *    0.00000     12.99415    32.85975    0.14610    46.00000

 Normal termination of Gaussian 16 at Mon Dec 14 13:33:57 2020.
