 Gaussian 16, Revision A.03,

 -----------------------------------------------------------
 # opt freq B3LYP/6-31G(d) empiricaldispersion=gd3bj scf=xqc
 -----------------------------------------------------------

 -------------------------------
 CID_153721579_JID_3222_neutraal
 -------------------------------
 Symbolic Z-matrix:
 Charge =  0 Multiplicity = 1

 SCF Done:  E(RB3LYP) =  -1259.89124096     A.U. after   15 cycles
 SCF Done:  E(RB3LYP) =  -1259.89845357     A.U. after   13 cycles
 SCF Done:  E(RB3LYP) =  -1259.89903211     A.U. after   13 cycles
 SCF Done:  E(RB3LYP) =  -1259.89897744     A.U. after   12 cycles
 SCF Done:  E(RB3LYP) =  -1259.89942929     A.U. after   12 cycles
 SCF Done:  E(RB3LYP) =  -1259.89945000     A.U. after   11 cycles
 SCF Done:  E(RB3LYP) =  -1259.89945902     A.U. after   10 cycles
 SCF Done:  E(RB3LYP) =  -1259.89946812     A.U. after   10 cycles
 SCF Done:  E(RB3LYP) =  -1259.89948038     A.U. after   10 cycles
 SCF Done:  E(RB3LYP) =  -1259.89949828     A.U. after   11 cycles
 SCF Done:  E(RB3LYP) =  -1259.89954203     A.U. after   10 cycles
 SCF Done:  E(RB3LYP) =  -1259.89954545     A.U. after   10 cycles
 SCF Done:  E(RB3LYP) =  -1259.89954596     A.U. after    9 cycles
 SCF Done:  E(RB3LYP) =  -1259.89954610     A.U. after    8 cycles
 SCF Done:  E(RB3LYP) =  -1259.89954612     A.U. after    8 cycles
 Optimization completed.
    -- Stationary point found.
 Normal termination of Gaussian 16 at Wed Dec  9 22:32:42 2020.

 --------------------------------------------------------------------
 #N Geom=AllCheck Guess=TCheck SCRF=Check GenChk RB3LYP/6-31G(d) Freq
 --------------------------------------------------------------------

 Structure from the checkpoint file:  "JID_3222.chk"
 -------------------------------
 CID_153721579_JID_3222_neutraal
 -------------------------------
 Charge =  0 Multiplicity = 1

 SCF Done:  E(RB3LYP) =  -1259.89954612     A.U. after    1 cycles

  Exact polarizability: 161.089  24.952 125.216  -8.298   2.758 113.020
 Approx polarizability: 238.853  57.706 187.732 -18.214   5.471 201.784

                      1                      2                      3
                      A                      A                      A
 Frequencies --     24.7646                40.2588                50.8949
 Red. masses --      6.2371                 4.8348                 3.8356
 Frc consts  --      0.0023                 0.0046                 0.0059
 IR Inten    --      0.1126                 1.9243                 0.5546

                      4                      5                      6
                      A                      A                      A
 Frequencies --     70.8445                99.2877               136.9447
 Red. masses --      1.2329                 3.5904                 2.9931
 Frc consts  --      0.0036                 0.0209                 0.0331
 IR Inten    --      0.1240                 0.1563                 1.1182

                      7                      8                      9
                      A                      A                      A
 Frequencies --    154.2509               191.5316               220.3168
 Red. masses --      5.1127                 3.8736                 5.8332
 Frc consts  --      0.0717                 0.0837                 0.1668
 IR Inten    --      5.0112                 0.7929                 0.2460

                     10                     11                     12
                      A                      A                      A
 Frequencies --    324.3275               361.9656               389.7633
 Red. masses --      3.3449                 3.7411                 4.0753
 Frc consts  --      0.2073                 0.2888                 0.3648
 IR Inten    --      0.3149                 1.0299                 2.2105

                     13                     14                     15
                      A                      A                      A
 Frequencies --    451.8781               509.1242               539.0659
 Red. masses --      4.4893                 4.2339                 3.6971
 Frc consts  --      0.5401                 0.6466                 0.6330
 IR Inten    --      0.6656                 1.8646                 3.2665

                     16                     17                     18
                      A                      A                      A
 Frequencies --    542.2753               584.5220               618.1057
 Red. masses --      3.6875                 3.1351                 5.1161
 Frc consts  --      0.6389                 0.6311                 1.1516
 IR Inten    --      4.8529                 0.3524                 1.7659

                     19                     20                     21
                      A                      A                      A
 Frequencies --    649.2681               702.8687               730.4071
 Red. masses --      6.8574                 1.1959                 1.9881
 Frc consts  --      1.7032                 0.3481                 0.6249
 IR Inten    --      1.9383                55.0842                 1.3837

                     22                     23                     24
                      A                      A                      A
 Frequencies --    748.6157               759.2856               786.3946
 Red. masses --      6.8208                 3.9137                 1.7592
 Frc consts  --      2.2522                 1.3294                 0.6410
 IR Inten    --      0.5636                 1.8063                 8.2477

                     25                     26                     27
                      A                      A                      A
 Frequencies --    835.8716               862.2794               904.5737
 Red. masses --      1.3271                 4.0505                 1.5372
 Frc consts  --      0.5463                 1.7744                 0.7411
 IR Inten    --      7.6882                10.2062                 1.9594

                     28                     29                     30
                      A                      A                      A
 Frequencies --    910.5022               939.9063               954.9035
 Red. masses --      1.9056                 2.6281                 2.1065
 Frc consts  --      0.9308                 1.3679                 1.1317
 IR Inten    --      2.3402                 0.8561                 4.4870

                     31                     32                     33
                      A                      A                      A
 Frequencies --    984.8117              1028.1646              1045.0776
 Red. masses --      2.2797                 1.7957                 1.7220
 Frc consts  --      1.3027                 1.1184                 1.1081
 IR Inten    --      4.3793                16.4202                 6.2943

                     34                     35                     36
                      A                      A                      A
 Frequencies --   1047.8998              1080.1591              1109.2408
 Red. masses --      1.7927                 1.6381                 2.1559
 Frc consts  --      1.1598                 1.1261                 1.5629
 IR Inten    --      5.9076                 4.7317                17.5173

                     37                     38                     39
                      A                      A                      A
 Frequencies --   1118.8490              1129.8227              1192.7152
 Red. masses --      1.1504                 2.7672                 1.8288
 Frc consts  --      0.8485                 2.0812                 1.5328
 IR Inten    --      1.6411                72.5028                 0.9227

                     40                     41                     42
                      A                      A                      A
 Frequencies --   1239.0325              1243.5204              1250.6824
 Red. masses --      1.9329                 1.6042                 1.6092
 Frc consts  --      1.7484                 1.4616                 1.4830
 IR Inten    --     33.3685                14.9533                18.8159

                     43                     44                     45
                      A                      A                      A
 Frequencies --   1262.1197              1268.3553              1277.7068
 Red. masses --      2.0968                 1.3869                 1.4655
 Frc consts  --      1.9680                 1.3146                 1.4096
 IR Inten    --     68.4254                 2.4474                18.7963

                     46                     47                     48
                      A                      A                      A
 Frequencies --   1296.8071              1317.5229              1351.8564
 Red. masses --      1.6174                 3.4205                 1.5862
 Frc consts  --      1.6026                 3.4983                 1.7079
 IR Inten    --      5.3278               579.9678                11.4356

                     49                     50                     51
                      A                      A                      A
 Frequencies --   1400.2906              1417.0945              1424.2292
 Red. masses --      1.3673                 2.0478                 1.2955
 Frc consts  --      1.5796                 2.4228                 1.5483
 IR Inten    --      6.8083                 0.6865                15.3004

                     52                     53                     54
                      A                      A                      A
 Frequencies --   1501.8876              1505.4833              1506.1426
 Red. masses --      1.0494                 1.4288                 1.9810
 Frc consts  --      1.3946                 1.9080                 2.6478
 IR Inten    --     10.8570                 1.8819                 9.7043

                     55                     56                     57
                      A                      A                      A
 Frequencies --   1511.6164              1527.5279              1604.7383
 Red. masses --      1.2417                 1.1248                 5.4600
 Frc consts  --      1.6717                 1.5464                 8.2842
 IR Inten    --      1.7284                 7.6134                 1.0888

                     58                     59                     60
                      A                      A                      A
 Frequencies --   3057.0664              3086.1011              3092.4274
 Red. masses --      1.0393                 1.0783                 1.0645
 Frc consts  --      5.7230                 6.0509                 5.9978
 IR Inten    --      4.7497                13.7012                29.2265

                     61                     62                     63
                      A                      A                      A
 Frequencies --   3095.4858              3110.5893              3113.0902
 Red. masses --      1.0678                 1.0848                 1.0999
 Frc consts  --      6.0284                 6.1844                 6.2802
 IR Inten    --      4.0188                20.5911                 5.0550

                     64                     65                     66
                      A                      A                      A
 Frequencies --   3143.9087              3161.2342              3193.6256
 Red. masses --      1.1079                 1.1059                 1.1003
 Frc consts  --      6.4518                 6.5116                 6.6121
 IR Inten    --      9.3792                26.7942                 4.4709

                     67                     68                     69
                      A                      A                      A
 Frequencies --   3211.4435              3228.2669              3271.5861
 Red. masses --      1.0895                 1.0943                 1.0972
 Frc consts  --      6.6204                 6.7194                 6.9190
 IR Inten    --      8.2433                 9.2364                 1.3534

 - Thermochemistry -
 -------------------
 Temperature   298.150 Kelvin.  Pressure   1.00000 Atm.
 Atom     1 has atomic number  6 and mass  12.00000

 Molecular mass:   212.03296 amu.
 Principal axes and moments of inertia in atomic units:
                           1         2         3
     Eigenvalues --  1632.993284481.284575261.95589
           X            0.99997  -0.00227  -0.00737
           Y            0.00228   1.00000   0.00038
           Z            0.00737  -0.00040   0.99997
 This molecule is an asymmetric top.
 Rotational symmetry number  1.
 Warning -- assumption of classical behavior for rotation
           may cause significant error
 Rotational temperatures (Kelvin)      0.05304     0.01933     0.01646
 Rotational constants (GHZ):           1.10517     0.40273     0.34298
 Zero-point vibrational energy     523385.2 (Joules/Mol)
                                  125.09207 (Kcal/Mol)
 Warning -- explicit consideration of  18 degrees of freedom as
           vibrations may cause significant error
 Vibrational temperatures:     35.63    57.92    73.23   101.93   142.85
          (Kelvin)            197.03   221.93   275.57   316.99   466.63
                              520.79   560.78   650.15   732.52   775.60
                              780.21   841.00   889.32   934.15  1011.27
                             1050.89  1077.09  1092.44  1131.45  1202.63
                             1240.63  1301.48  1310.01  1352.32  1373.89
                             1416.92  1479.30  1503.63  1507.69  1554.11
                             1595.95  1609.77  1625.56  1716.05  1782.69
                             1789.15  1799.45  1815.91  1824.88  1838.34
                             1865.82  1895.62  1945.02  2014.71  2038.88
                             2049.15  2160.88  2166.05  2167.00  2174.88
                             2197.77  2308.86  4398.44  4440.21  4449.31
                             4453.71  4475.44  4479.04  4523.38  4548.31
                             4594.91  4620.55  4644.76  4707.08

 Zero-point correction=                           0.199347 (Hartree/Particle)
 Thermal correction to Energy=                    0.212286
 Thermal correction to Enthalpy=                  0.213231
 Thermal correction to Gibbs Free Energy=         0.157252
 Sum of electronic and zero-point Energies=          -1259.700199
 Sum of electronic and thermal Energies=             -1259.687260
 Sum of electronic and thermal Enthalpies=           -1259.686316
 Sum of electronic and thermal Free Energies=        -1259.742295

                     E (Thermal)             CV                S
                      KCal/Mol        Cal/Mol-Kelvin    Cal/Mol-Kelvin
 Total                  133.212             47.448            117.818
 Electronic               0.000              0.000              0.000
 Translational            0.889              2.981             41.958
 Rotational               0.889              2.981             32.021
 Vibrational            131.434             41.487             43.838
 Vibration     1          0.593              1.985              6.210
 Vibration     2          0.594              1.981              5.246
 Vibration     3          0.595              1.977              4.782
 Vibration     4          0.598              1.968              4.130
 Vibration     5          0.604              1.950              3.468
 Vibration     6          0.614              1.916              2.846
 Vibration     7          0.620              1.898              2.619
 Vibration     8          0.634              1.852              2.213
 Vibration     9          0.647              1.810              1.956
 Vibration    10          0.709              1.627              1.288
 Vibration    11          0.736              1.551              1.114
 Vibration    12          0.758              1.492              1.001
 Vibration    13          0.811              1.357              0.790
 Vibration    14          0.864              1.230              0.636
 Vibration    15          0.894              1.164              0.567
 Vibration    16          0.897              1.157              0.560
 Vibration    17          0.941              1.065              0.477
 Vibration    18          0.978              0.994              0.420

 Optimization completed.
    -- Stationary point found.
 Normal termination of Gaussian 16 at Wed Dec  9 22:39:36 2020.

 ----------------------------------------------------------------------
 # B3LYP/6-311++G(d,p) empiricaldispersion=gd3bj scf=xqc pop=npa geom=c
 heck
 ----------------------------------------------------------------------

 ---------------------------------------
 CID_153721579_JID_3222_Energie_neutraal
 ---------------------------------------
 Structure from the checkpoint file:  "JID_3222.chk"
 Charge =  0 Multiplicity = 1

 SCF Done:  E(RB3LYP) =  -1260.07688426     A.U. after   16 cycles
 Normal termination of Gaussian 16 at Wed Dec  9 22:43:05 2020.

 ----------------------------------------------------------------------
 # B3LYP/6-311++G(d,p) empiricaldispersion=gd3bj scf=xqc pop=npa geom=c
 heck
 ----------------------------------------------------------------------

 -------------------------------------
 CID_153721579_JID_3222_Energie_kation
 -------------------------------------
 Structure from the checkpoint file:  "JID_3222.chk"
 Charge =  1 Multiplicity = 2

 SCF Done:  E(UB3LYP) =  -1259.78718434     A.U. after   25 cycles
 Normal termination of Gaussian 16 at Wed Dec  9 22:51:07 2020.
 Gaussian 16:  ES64L-G16RevA.03 25-Dec-2016

 ----------------------------------------------------------------------
 # B3LYP/6-311++G(d,p) empiricaldispersion=gd3bj scf=xqc pop=npa geom=c
 heck
 ----------------------------------------------------------------------

 ------------------------------------
 CID_153721579_JID_3222_Energie_anion
 ------------------------------------
 Structure from the checkpoint file:  "JID_3222.chk"
 Charge = -1 Multiplicity = 2

                         Standard orientation:
 ---------------------------------------------------------------------
 Center     Atomic      Atomic             Coordinates (Angstroms)
 Number     Number       Type             X           Y           Z
 ---------------------------------------------------------------------
      1          6           0        2.143740   -2.453711   -0.029112
      2          6           0        2.250865   -0.959946    0.113292
      3         16           0        3.644321   -0.090210   -0.030885
      4          8           0        1.044744   -0.451586    0.371353
      5          6           0        0.880981    0.961688    0.517188
      6          6           0        0.877921    1.831222   -0.752517
      7          6           0       -0.373185    2.557540   -0.186909
      8          6           0       -0.587273    1.382050    0.824522
      9          6           0       -1.649572    0.391687    0.473925
     10          6           0       -2.531047   -0.208899    1.334068
     11          6           0       -3.424656   -1.123701    0.697261
     12          6           0       -3.214421   -1.212702   -0.649344
     13         16           0       -1.916787   -0.178370   -1.160986
     14          1           0        3.121227   -2.896648   -0.213161
     15          1           0        1.465141   -2.691413   -0.857090
     16          1           0        1.703734   -2.880558    0.879733
     17          1           0        1.588132    1.322090    1.268259
     18          1           0        1.778997    2.415238   -0.945320
     19          1           0        0.644527    1.233798   -1.638609
     20          1           0       -1.196841    2.741503   -0.880339
     21          1           0       -0.122372    3.491660    0.322703
     22          1           0       -0.749233    1.682071    1.864033
     23          1           0       -2.539779    0.002138    2.398396
     24          1           0       -4.190775   -1.684335    1.221293
     25          1           0       -3.741378   -1.816939   -1.375018
 ---------------------------------------------------------------------

 SCF Done:  E(UB3LYP) =  -1260.07208544     A.U. after   33 cycles
 SCF Done:  E(UB3LYP) =  -1260.07208544     a.u. after    1 cycles

 The electronic state is 2-A.
 Alpha  occ. eigenvalues --  -88.77123 -88.65551 -19.03458 -10.12084 -10.10965
 Alpha  occ. eigenvalues --  -10.10436 -10.09561 -10.09065 -10.07622 -10.07577
 Alpha  occ. eigenvalues --  -10.07337 -10.06274 -10.04566  -7.85749  -7.74346
 Alpha  occ. eigenvalues --   -5.82033  -5.81667  -5.81348  -5.70651  -5.70310
 Alpha  occ. eigenvalues --   -5.69888  -0.95723  -0.78430  -0.74919  -0.65292
 Alpha  occ. eigenvalues --   -0.63995  -0.63248  -0.57012  -0.56348  -0.55678
 Alpha  occ. eigenvalues --   -0.48289  -0.46088  -0.45508  -0.42551  -0.39688
 Alpha  occ. eigenvalues --   -0.38287  -0.34725  -0.33748  -0.32990  -0.30795
 Alpha  occ. eigenvalues --   -0.30375  -0.29976  -0.28486  -0.28256  -0.28220
 Alpha  occ. eigenvalues --   -0.26430  -0.24529  -0.24171  -0.23786  -0.21807
 Alpha  occ. eigenvalues --   -0.20016  -0.19321  -0.15231  -0.13024  -0.12108
 Alpha  occ. eigenvalues --   -0.08034   0.04659
 Alpha virt. eigenvalues --    0.06144   0.06950   0.07683   0.07944   0.08890
 Alpha virt. eigenvalues --    0.09432   0.09689   0.10796   0.12003   0.12103
 Alpha virt. eigenvalues --    0.12775   0.12865   0.13546   0.13704   0.14154

  Beta  occ. eigenvalues --  -88.77118 -88.65512 -19.03328 -10.12090 -10.10432
  Beta  occ. eigenvalues --  -10.10287 -10.09536 -10.09063 -10.07612 -10.07563
  Beta  occ. eigenvalues --  -10.07332 -10.06250 -10.04615  -7.85744  -7.74311
  Beta  occ. eigenvalues --   -5.82026  -5.81663  -5.81343  -5.70653  -5.70162
  Beta  occ. eigenvalues --   -5.69868  -0.95345  -0.78400  -0.74860  -0.64652
  Beta  occ. eigenvalues --   -0.63955  -0.63216  -0.56811  -0.56306  -0.55581
  Beta  occ. eigenvalues --   -0.48186  -0.46042  -0.45347  -0.42504  -0.39611
  Beta  occ. eigenvalues --   -0.38204  -0.34617  -0.33144  -0.32268  -0.30453
  Beta  occ. eigenvalues --   -0.30307  -0.29916  -0.28426  -0.28161  -0.28085
  Beta  occ. eigenvalues --   -0.26215  -0.24445  -0.24107  -0.23618  -0.21732
  Beta  occ. eigenvalues --   -0.19436  -0.19008  -0.15185  -0.12970  -0.10821
  Beta  occ. eigenvalues --   -0.07934
  Beta virt. eigenvalues --    0.06723   0.07374   0.07722   0.08283   0.09111
  Beta virt. eigenvalues --    0.09485   0.09815   0.10379   0.11155   0.12044
  Beta virt. eigenvalues --    0.12293   0.12726   0.13026   0.13596   0.13818

 Mulliken charges and spin densities:
               1          2
     1  C   -0.350065  -0.131776
     2  C    0.291457   0.353016
     3  S   -0.764329   0.160381
     4  O    0.237293   0.027856
     5  C   -1.447115   0.297326
     6  C    0.431147  -0.353604
     7  C   -0.692967  -0.144621
     8  C    1.545671  -0.658505
     9  C   -0.370871  -0.450553
    10  C   -0.445773   1.402110
    11  C    0.848845  -1.660981
    12  C    0.001832   0.134377
    13  S    0.109902  -0.376462
    14  H    0.146615  -0.001578
    15  H   -0.013983   0.161899
    16  H    0.146175   0.006958
    17  H    0.168730   0.002950
    18  H    0.032428   0.134239
    19  H    0.104954   0.060549
    20  H    0.041228   0.097503
    21  H    0.007478   0.124078
    22  H    0.120558   0.120008
    23  H   -0.040147   0.193976
    24  H   -0.374186   0.514470
    25  H   -0.734876   0.986385
 Sum of Mulliken charges =  -1.00000   1.00000

 Dipole moment (field-independent basis, Debye):
    X=             -2.0203    Y=              2.8309    Z=              1.5256  Tot=              3.7978
 Quadrupole moment (field-independent basis, Debye-Ang):
   XX=           -172.5375   YY=           -119.0499   ZZ=           -111.0457
   XY=             -9.4844   XZ=             -0.7927   YZ=             -1.1654

 Summary of Natural Population Analysis:

                                       Natural Population
                Natural  -----------------------------------------------
    Atom  No    Charge         Core      Valence    Rydberg      Total
 -----------------------------------------------------------------------
      C    1   -0.32222      0.99961     2.31668    0.00594     3.32222
      C    2    0.23450      0.99968     1.74659    0.01924     2.76550
      S    3   -0.12073      4.99950     3.10738    0.01386     8.12073
      O    4   -0.27050      0.99983     3.25659    0.01408     4.27050
      C    5    0.06999      0.99949     1.91490    0.01563     2.93001
      C    6   -0.19983      0.99962     2.19305    0.00716     3.19983
      C    7   -0.18687      0.99964     2.18024    0.00699     3.18687
      C    8   -0.12822      0.99953     2.11611    0.01259     3.12822
      C    9   -0.08658      0.99946     2.07221    0.01490     3.08658
      C   10   -0.12873      0.99946     2.11883    0.01044     3.12873
      C   11   -0.12830      0.99953     2.11741    0.01136     3.12830
      C   12   -0.19468      0.99955     2.18306    0.01208     3.19468
      S   13    0.20530      4.99940     2.77363    0.02167     7.79470
      H   14    0.10461      0.00000     0.39465    0.00074     0.39539
      H   15    0.11089      0.00000     0.38766    0.00144     0.38911
      H   16    0.10638      0.00000     0.39262    0.00100     0.39362
      H   17    0.10082      0.00000     0.39810    0.00108     0.39918
      H   18    0.10709      0.00000     0.39183    0.00109     0.39291
      H   19    0.10385      0.00000     0.39482    0.00134     0.39615
      H   20    0.10016      0.00000     0.39870    0.00114     0.39984
      H   21    0.09760      0.00000     0.40127    0.00113     0.40240
      H   22    0.10416      0.00000     0.39420    0.00165     0.39584
      H   23    0.10440      0.00000     0.39449    0.00111     0.39560
      H   24    0.10619      0.00000     0.39253    0.00128     0.39381
      H   25    0.11073      0.00000     0.38737    0.00190     0.38927
 =======================================================================
   * Total *   -0.00000     20.99429    34.82489    0.18082    56.00000

 Normal termination of Gaussian 16 at Wed Dec  9 23:01:31 2020.
