 Gaussian 16, Revision A.03,

 -----------------------------------------------------------
 # opt freq B3LYP/6-31G(d) empiricaldispersion=gd3bj scf=xqc
 -----------------------------------------------------------

 -------------------------------
 CID_107078702_JID_5213_neutraal
 -------------------------------
 Symbolic Z-matrix:
 Charge =  0 Multiplicity = 1

 SCF Done:  E(RB3LYP) =  -646.636203877     A.U. after   14 cycles
 SCF Done:  E(RB3LYP) =  -646.639625762     A.U. after   12 cycles
 SCF Done:  E(RB3LYP) =  -646.640628598     A.U. after   12 cycles
 SCF Done:  E(RB3LYP) =  -646.641205719     A.U. after   13 cycles
 SCF Done:  E(RB3LYP) =  -646.641534635     A.U. after   12 cycles
 SCF Done:  E(RB3LYP) =  -646.641576773     A.U. after   13 cycles
 SCF Done:  E(RB3LYP) =  -646.641537905     A.U. after   14 cycles
 SCF Done:  E(RB3LYP) =  -646.641685590     A.U. after   11 cycles
 SCF Done:  E(RB3LYP) =  -646.641743166     A.U. after   11 cycles
 SCF Done:  E(RB3LYP) =  -646.641774002     A.U. after   11 cycles
 SCF Done:  E(RB3LYP) =  -646.641799109     A.U. after    9 cycles
 SCF Done:  E(RB3LYP) =  -646.641804975     A.U. after   11 cycles
 SCF Done:  E(RB3LYP) =  -646.641803177     A.U. after   10 cycles
 SCF Done:  E(RB3LYP) =  -646.641807341     A.U. after   10 cycles
 SCF Done:  E(RB3LYP) =  -646.641807426     A.U. after    7 cycles
 Optimization completed.
    -- Stationary point found.
 Normal termination of Gaussian 16 at Thu Dec 10 14:56:10 2020.

 --------------------------------------------------------------------
 #N Geom=AllCheck Guess=TCheck SCRF=Check GenChk RB3LYP/6-31G(d) Freq
 --------------------------------------------------------------------

 Structure from the checkpoint file:  "JID_5213.chk"
 -------------------------------
 CID_107078702_JID_5213_neutraal
 -------------------------------
 Charge =  0 Multiplicity = 1

 SCF Done:  E(RB3LYP) =  -646.641807426     A.U. after    1 cycles

  Exact polarizability: 142.405 -13.266 127.270   7.702  -0.213 108.211
 Approx polarizability: 191.717 -29.676 204.389  16.541  -3.661 182.228

                      1                      2                      3
                      A                      A                      A
 Frequencies --     36.2069                54.3737                63.0656
 Red. masses --      3.9894                 4.0146                 3.6913
 Frc consts  --      0.0031                 0.0070                 0.0086
 IR Inten    --      5.4899                 0.5069                 0.5267

                      4                      5                      6
                      A                      A                      A
 Frequencies --    102.9965               131.1947               186.5251
 Red. masses --      2.7211                 3.4667                 5.0116
 Frc consts  --      0.0170                 0.0352                 0.1027
 IR Inten    --      1.1694                 3.5057                 1.9730

                      7                      8                      9
                      A                      A                      A
 Frequencies --    242.5288               291.7560               303.0848
 Red. masses --      3.3075                 2.9213                 2.5260
 Frc consts  --      0.1146                 0.1465                 0.1367
 IR Inten    --      1.3784                 1.2470                 0.9479

                     10                     11                     12
                      A                      A                      A
 Frequencies --    330.7342               363.9840               430.5050
 Red. masses --      2.3388                 3.4606                 3.4159
 Frc consts  --      0.1507                 0.2701                 0.3730
 IR Inten    --      1.9490                 0.4519                 2.5712

                     13                     14                     15
                      A                      A                      A
 Frequencies --    450.7370               520.6114               620.2783
 Red. masses --      4.4289                 2.6727                 4.3757
 Frc consts  --      0.5301                 0.4268                 0.9919
 IR Inten    --      3.2877                 1.0852                 3.4120

                     16                     17                     18
                      A                      A                      A
 Frequencies --    625.1619               648.8643               670.0365
 Red. masses --      3.5951                 3.3387                 4.6340
 Frc consts  --      0.8278                 0.8282                 1.2258
 IR Inten    --      0.2315                 8.0015                 5.0100

                     19                     20                     21
                      A                      A                      A
 Frequencies --    679.3133               694.2836               704.6917
 Red. masses --      1.2991                 5.2304                 4.4478
 Frc consts  --      0.3532                 1.4855                 1.3014
 IR Inten    --      2.8709                 2.0105                 0.8089

                     22                     23                     24
                      A                      A                      A
 Frequencies --    738.1805               758.0616               803.2436
 Red. masses --      1.1616                 4.0929                 2.4943
 Frc consts  --      0.3729                 1.3858                 0.9482
 IR Inten    --     87.3999                12.8061                12.6057

                     25                     26                     27
                      A                      A                      A
 Frequencies --    816.9865               843.5670               867.0681
 Red. masses --      1.6032                 1.4338                 1.2386
 Frc consts  --      0.6305                 0.6011                 0.5486
 IR Inten    --      1.7409                 0.9863                 0.1535

                     28                     29                     30
                      A                      A                      A
 Frequencies --    877.2081               896.6927               944.3025
 Red. masses --      2.5031                 5.7478                 1.4976
 Frc consts  --      1.1348                 2.7229                 0.7868
 IR Inten    --      4.6773                 0.0408                 0.7973

                     31                     32                     33
                      A                      A                      A
 Frequencies --    966.0492               988.6273               990.8659
 Red. masses --      2.4939                 2.2285                 2.0543
 Frc consts  --      1.3713                 1.2833                 1.1884
 IR Inten    --      2.4507                 1.0656                 3.0655

                     34                     35                     36
                      A                      A                      A
 Frequencies --    996.3127              1068.5670              1087.3088
 Red. masses --      2.0295                 4.3586                 3.4760
 Frc consts  --      1.1870                 2.9323                 2.4212
 IR Inten    --      8.3754                 2.6091                 5.6895

                     37                     38                     39
                      A                      A                      A
 Frequencies --   1092.3122              1094.6509              1102.5474
 Red. masses --      2.2175                 2.5797                 1.2852
 Frc consts  --      1.5589                 1.8213                 0.9205
 IR Inten    --      3.1141                 0.5251                11.5868

                     40                     41                     42
                      A                      A                      A
 Frequencies --   1119.4896              1127.2764              1197.1012
 Red. masses --      1.3450                 1.7357                 1.4655
 Frc consts  --      0.9932                 1.2995                 1.2374
 IR Inten    --     28.6339                 1.1923                 5.3958

                     43                     44                     45
                      A                      A                      A
 Frequencies --   1211.6710              1224.0044              1268.5088
 Red. masses --      1.3594                 1.3135                 3.6057
 Frc consts  --      1.1759                 1.1594                 3.4184
 IR Inten    --      1.2284                 2.7817                 8.4487

                     46                     47                     48
                      A                      A                      A
 Frequencies --   1292.7499              1307.9772              1313.8623
 Red. masses --      1.3265                 1.2778                 1.2354
 Frc consts  --      1.3061                 1.2880                 1.2565
 IR Inten    --      1.3699                 8.6340                 5.5137

                     49                     50                     51
                      A                      A                      A
 Frequencies --   1323.7800              1361.1925              1366.0847
 Red. masses --      4.1233                 1.8058                 1.6182
 Frc consts  --      4.2573                 1.9713                 1.7793
 IR Inten    --     53.9803                27.8062                 4.6286

                     52                     53                     54
                      A                      A                      A
 Frequencies --   1373.1671              1390.2632              1405.8322
 Red. masses --      1.7818                 1.6227                 1.4432
 Frc consts  --      1.9795                 1.8479                 1.6805
 IR Inten    --     18.8475                 5.5693                 0.9055

                     55                     56                     57
                      A                      A                      A
 Frequencies --   1430.4269              1437.7903              1447.5859
 Red. masses --      2.2935                 3.5607                 2.8854
 Frc consts  --      2.7649                 4.3369                 3.5624
 IR Inten    --     23.4984                 1.5784                 6.6092

                     58                     59                     60
                      A                      A                      A
 Frequencies --   1487.1745              1506.6172              1511.4093
 Red. masses --      2.5036                 1.2266                 1.1917
 Frc consts  --      3.2624                 1.6404                 1.6039
 IR Inten    --     37.0760                21.2195                 2.3133

                     61                     62                     63
                      A                      A                      A
 Frequencies --   1518.9838              1525.6420              1540.4498
 Red. masses --      1.0886                 1.1747                 1.3725
 Frc consts  --      1.4799                 1.6109                 1.9190
 IR Inten    --      6.9635                 3.4033                 6.7839

                     64                     65                     66
                      A                      A                      A
 Frequencies --   1546.9776              1559.9839              1575.1563
 Red. masses --      2.1851                 5.3288                 5.4890
 Frc consts  --      3.0810                 7.6405                 8.0239
 IR Inten    --     26.7296                28.1308                12.9420

                     67                     68                     69
                      A                      A                      A
 Frequencies --   1579.0544              3038.3063              3044.8871
 Red. masses --      4.7741                 1.0722                 1.0714
 Frc consts  --      7.0135                 5.8317                 5.8524
 IR Inten    --      5.8974                13.5594                26.5197

                     70                     71                     72
                      A                      A                      A
 Frequencies --   3047.2380              3056.6645              3066.0923
 Red. masses --      1.0669                 1.0620                 1.0606
 Frc consts  --      5.8372                 5.8459                 5.8747
 IR Inten    --      4.5942                32.9230                21.9040

                     73                     74                     75
                      A                      A                      A
 Frequencies --   3102.9809              3105.8558              3111.6253
 Red. masses --      1.0963                 1.1004                 1.0952
 Frc consts  --      6.2193                 6.2542                 6.2476
 IR Inten    --     40.5939                31.4097                14.7673

                     76                     77                     78
                      A                      A                      A
 Frequencies --   3112.1965              3148.7164              3251.2699
 Red. masses --      1.1040                 1.0948                 1.0878
 Frc consts  --      6.3000                 6.3952                 6.7749
 IR Inten    --      7.9047                 3.2538                 3.3233

                     79                     80                     81
                      A                      A                      A
 Frequencies --   3261.8034              3275.1265              3283.6807
 Red. masses --      1.0925                 1.1008                 1.1051
 Frc consts  --      6.8485                 6.9567                 7.0205
 IR Inten    --      5.7071                 3.7337                 1.3258

 - Thermochemistry -
 -------------------
 Temperature   298.150 Kelvin.  Pressure   1.00000 Atm.
 Atom     1 has atomic number  6 and mass  12.00000

 Molecular mass:   202.12185 amu.
 Principal axes and moments of inertia in atomic units:
                           1         2         3
     Eigenvalues --  1641.459543945.171894903.35239
           X            0.99968   0.02531   0.00213
           Y           -0.02532   0.99967   0.00513
           Z           -0.00200  -0.00518   0.99998
 This molecule is an asymmetric top.
 Rotational symmetry number  1.
 Warning -- assumption of classical behavior for rotation
           may cause significant error
 Rotational temperatures (Kelvin)      0.05277     0.02195     0.01766
 Rotational constants (GHZ):           1.09947     0.45746     0.36806
 Zero-point vibrational energy     645625.4 (Joules/Mol)
                                  154.30818 (Kcal/Mol)
 Warning -- explicit consideration of  15 degrees of freedom as
           vibrations may cause significant error
 Vibrational temperatures:     52.09    78.23    90.74   148.19   188.76
          (Kelvin)            268.37   348.94   419.77   436.07   475.85
                              523.69   619.40   648.51   749.04   892.44
                              899.47   933.57   964.03   977.38   998.92
                             1013.89  1062.08  1090.68  1155.69  1175.46
                             1213.70  1247.52  1262.11  1290.14  1358.64
                             1389.93  1422.41  1425.64  1433.47  1537.43
                             1564.39  1571.59  1574.96  1586.32  1610.70
                             1621.90  1722.36  1743.32  1761.07  1825.10
                             1859.98  1881.89  1890.35  1904.62  1958.45
                             1965.49  1975.68  2000.28  2022.68  2058.07
                             2068.66  2082.75  2139.71  2167.69  2174.58
                             2185.48  2195.06  2216.36  2225.76  2244.47
                             2266.30  2271.91  4371.45  4380.91  4384.30
                             4397.86  4411.42  4464.50  4468.63  4476.93
                             4477.76  4530.30  4677.85  4693.01  4712.18
                             4724.48

 Zero-point correction=                           0.245906 (Hartree/Particle)
 Thermal correction to Energy=                    0.258119
 Thermal correction to Enthalpy=                  0.259063
 Thermal correction to Gibbs Free Energy=         0.206113
 Sum of electronic and zero-point Energies=           -646.395902
 Sum of electronic and thermal Energies=              -646.383688
 Sum of electronic and thermal Enthalpies=            -646.382744
 Sum of electronic and thermal Free Energies=         -646.435695

                     E (Thermal)             CV                S
                      KCal/Mol        Cal/Mol-Kelvin    Cal/Mol-Kelvin
 Total                  161.972             47.939            111.444
 Electronic               0.000              0.000              0.000
 Translational            0.889              2.981             41.816
 Rotational               0.889              2.981             31.829
 Vibrational            160.195             41.978             37.799
 Vibration     1          0.594              1.982              5.457
 Vibration     2          0.596              1.976              4.652
 Vibration     3          0.597              1.972              4.359
 Vibration     4          0.605              1.947              3.397
 Vibration     5          0.612              1.922              2.928
 Vibration     6          0.632              1.858              2.262
 Vibration     7          0.659              1.775              1.784
 Vibration     8          0.687              1.689              1.464
 Vibration     9          0.695              1.668              1.400
 Vibration    10          0.713              1.614              1.256
 Vibration    11          0.738              1.546              1.105
 Vibration    12          0.792              1.404              0.857
 Vibration    13          0.810              1.359              0.794
 Vibration    14          0.876              1.204              0.609
 Vibration    15          0.980              0.989              0.416

                           ! Non-Optimized Parameters !
 Normal termination of Gaussian 16 at Thu Dec 10 15:06:32 2020.

 ----------------------------------------------------------------------
 # B3LYP/6-311++G(d,p) empiricaldispersion=gd3bj scf=xqc pop=npa geom=c
 heck
 ----------------------------------------------------------------------

 ---------------------------------------
 CID_107078702_JID_5213_Energie_neutraal
 ---------------------------------------
 Structure from the checkpoint file:  "JID_5213.chk"
 Charge =  0 Multiplicity = 1

 SCF Done:  E(RB3LYP) =  -646.810746299     A.U. after   14 cycles
 Normal termination of Gaussian 16 at Thu Dec 10 15:10:55 2020.

 ----------------------------------------------------------------------
 # B3LYP/6-311++G(d,p) empiricaldispersion=gd3bj scf=xqc pop=npa geom=c
 heck
 ----------------------------------------------------------------------

 -------------------------------------
 CID_107078702_JID_5213_Energie_kation
 -------------------------------------
 Structure from the checkpoint file:  "JID_5213.chk"
 Charge =  1 Multiplicity = 2

 SCF Done:  E(UB3LYP) =  -646.512210671     A.U. after   27 cycles
 Normal termination of Gaussian 16 at Thu Dec 10 15:23:00 2020.
 Gaussian 16:  ES64L-G16RevA.03 25-Dec-2016

 ----------------------------------------------------------------------
 # B3LYP/6-311++G(d,p) empiricaldispersion=gd3bj scf=xqc pop=npa geom=c
 heck
 ----------------------------------------------------------------------

 ------------------------------------
 CID_107078702_JID_5213_Energie_anion
 ------------------------------------
 Structure from the checkpoint file:  "JID_5213.chk"
 Charge = -1 Multiplicity = 2

                         Standard orientation:
 ---------------------------------------------------------------------
 Center     Atomic      Atomic             Coordinates (Angstroms)
 Number     Number       Type             X           Y           Z
 ---------------------------------------------------------------------
      1          6           0       -2.971742   -1.691689    0.246336
      2          6           0       -1.522616   -2.156399    0.055136
      3          6           0       -0.528886   -1.151905    0.644176
      4          7           0       -0.901965    0.209799    0.249047
      5          6           0       -2.121241    0.599469   -0.252606
      6          7           0       -2.135809    1.897375   -0.462253
      7          7           0       -0.896006    2.388305   -0.095734
      8          6           0       -0.177718    1.375205    0.334264
      9          6           0        1.220436    1.489357    0.849852
     10          7           0        2.123112    0.525957    0.233192
     11          6           0        2.227936    0.292180   -1.120548
     12          6           0        3.090211   -0.768142   -1.304843
     13          6           0        3.523734   -1.194681   -0.015614
     14          6           0        2.908618   -0.380572    0.911587
     15          6           0       -3.213447   -0.385258   -0.526763
     16          1           0       -3.669038   -2.462233   -0.097951
     17          1           0       -3.168636   -1.534382    1.315353
     18          1           0       -1.352959   -3.128159    0.530614
     19          1           0       -1.317275   -2.281133   -1.015917
     20          1           0       -0.533608   -1.209972    1.740236
     21          1           0        0.486266   -1.356178    0.299460
     22          1           0        1.548287    2.516690    0.662641
     23          1           0        1.260789    1.319471    1.931616
     24          1           0        1.672184    0.895318   -1.823654
     25          1           0        3.384296   -1.184841   -2.258493
     26          1           0        4.212147   -1.998832    0.205369
     27          1           0        2.959519   -0.361111    1.990923
     28          1           0       -3.243098   -0.598311   -1.604284
     29          1           0       -4.175915    0.068219   -0.271534
 ---------------------------------------------------------------------

 SCF Done:  E(UB3LYP) =  -646.801688688     A.U. after   33 cycles
 SCF Done:  E(UB3LYP) =  -646.801688688     a.u. after    1 cycles

 The electronic state is 2-A.
 Alpha  occ. eigenvalues --  -14.28195 -14.27872 -14.22605 -14.21939 -10.14301
 Alpha  occ. eigenvalues --  -10.14135 -10.13760 -10.12056 -10.10459 -10.10403
 Alpha  occ. eigenvalues --  -10.09109 -10.08146 -10.07972 -10.07422 -10.07147
 Alpha  occ. eigenvalues --   -0.96574  -0.90437  -0.83157  -0.75399  -0.71819
 Alpha  occ. eigenvalues --   -0.69680  -0.65952  -0.63978  -0.61337  -0.57214
 Alpha  occ. eigenvalues --   -0.53093  -0.51544  -0.49192  -0.47439  -0.45974
 Alpha  occ. eigenvalues --   -0.44464  -0.41349  -0.39811  -0.38263  -0.36550
 Alpha  occ. eigenvalues --   -0.35585  -0.34991  -0.34371  -0.33780  -0.33068
 Alpha  occ. eigenvalues --   -0.32591  -0.30270  -0.29714  -0.29500  -0.28273
 Alpha  occ. eigenvalues --   -0.25458  -0.25202  -0.24710  -0.21523  -0.19082
 Alpha  occ. eigenvalues --   -0.16675  -0.16263  -0.15300  -0.13409   0.04109
 Alpha virt. eigenvalues --    0.06224   0.06971   0.07836   0.08413   0.08827
 Alpha virt. eigenvalues --    0.08849   0.09603   0.10284   0.10502   0.10832
 Alpha virt. eigenvalues --    0.11359   0.11777   0.11970   0.12542   0.13495

  Beta  occ. eigenvalues --  -14.28192 -14.27873 -14.22606 -14.21928 -10.14281
  Beta  occ. eigenvalues --  -10.14132 -10.13759 -10.12023 -10.10452 -10.10381
  Beta  occ. eigenvalues --  -10.09095 -10.08114 -10.07934 -10.07418 -10.07141
  Beta  occ. eigenvalues --   -0.96562  -0.90429  -0.83139  -0.75379  -0.71793
  Beta  occ. eigenvalues --   -0.69648  -0.65911  -0.63952  -0.61307  -0.57157
  Beta  occ. eigenvalues --   -0.53043  -0.51510  -0.49172  -0.47395  -0.45929
  Beta  occ. eigenvalues --   -0.44413  -0.41306  -0.39779  -0.38243  -0.36520
  Beta  occ. eigenvalues --   -0.35536  -0.34960  -0.34312  -0.33757  -0.33038
  Beta  occ. eigenvalues --   -0.32551  -0.30248  -0.29692  -0.29480  -0.28225
  Beta  occ. eigenvalues --   -0.25404  -0.25140  -0.24665  -0.21508  -0.19055
  Beta  occ. eigenvalues --   -0.16663  -0.16241  -0.15283  -0.13394
  Beta virt. eigenvalues --    0.06545   0.07248   0.07609   0.08204   0.08983
  Beta virt. eigenvalues --    0.09206   0.09443   0.09859   0.10536   0.10897
  Beta virt. eigenvalues --    0.11046   0.11601   0.12163   0.12347   0.13033

 Mulliken charges and spin densities:
               1          2
     1  C   -0.336170   0.059423
     2  C    0.120740  -0.459674
     3  C    0.736040  -1.172407
     4  N    0.038295   0.137575
     5  C    0.256063  -0.210778
     6  N   -0.139351   0.006397
     7  N   -0.021322   0.019412
     8  C   -0.412176   0.203381
     9  C    0.345777  -0.680513
    10  N    0.095582   0.080198
    11  C    0.320088  -0.507707
    12  C   -0.629696   0.418443
    13  C    0.773872  -1.087569
    14  C   -0.163966   0.016234
    15  C    0.193007  -0.548485
    16  H   -0.832990   1.035292
    17  H   -0.036895   0.187181
    18  H   -0.616434   0.806029
    19  H   -0.063971   0.219190
    20  H   -0.665035   0.883383
    21  H    0.784680  -0.573673
    22  H    0.169392   0.065807
    23  H   -0.243391   0.430380
    24  H    0.211511  -0.043166
    25  H   -0.039829   0.186384
    26  H   -0.154380   0.308432
    27  H   -0.741632   0.908858
    28  H   -0.041852   0.216015
    29  H    0.094044   0.095959
 Sum of Mulliken charges =  -1.00000   1.00000

 Dipole moment (field-independent basis, Debye):
    X=              2.9516    Y=              3.1423    Z=             -3.8279  Tot=              5.7653
 Quadrupole moment (field-independent basis, Debye-Ang):
   XX=           -151.5770   YY=           -147.4992   ZZ=           -128.7564
   XY=             -3.7082   XZ=             -6.6886   YZ=              8.1031

 Summary of Natural Population Analysis:

                                       Natural Population
                Natural  -----------------------------------------------
    Atom  No    Charge         Core      Valence    Rydberg      Total
 -----------------------------------------------------------------------
      C    1   -0.18852      0.99963     2.18015    0.00874     3.18852
      C    2   -0.19379      0.99963     2.18500    0.00915     3.19379
      C    3   -0.08339      0.99960     2.07261    0.01118     3.08339
      N    4   -0.21136      0.99957     2.70205    0.00973     3.71136
      C    5    0.19519      0.99960     1.78802    0.01719     2.80481
      N    6   -0.16893      0.99968     2.65660    0.01266     3.66893
      N    7   -0.16313      0.99968     2.65165    0.01180     3.66313
      C    8    0.17386      0.99959     1.80902    0.01753     2.82614
      C    9   -0.09893      0.99957     2.08782    0.01153     3.09893
      N   10   -0.20705      0.99965     2.69666    0.01074     3.70705
      C   11   -0.02374      0.99956     2.01365    0.01054     3.02374
      C   12   -0.14478      0.99957     2.13626    0.00895     3.14478
      C   13   -0.14861      0.99957     2.13906    0.00998     3.14861
      C   14   -0.01650      0.99955     2.00355    0.01340     3.01650
      C   15   -0.20996      0.99959     2.20102    0.00935     3.20996
      H   16    0.10612      0.00000     0.39125    0.00263     0.39388
      H   17    0.09871      0.00000     0.39947    0.00182     0.40129
      H   18    0.11184      0.00000     0.38571    0.00244     0.38816
      H   19    0.09630      0.00000     0.40212    0.00158     0.40370
      H   20    0.10187      0.00000     0.39439    0.00374     0.39813
      H   21    0.11002      0.00000     0.38683    0.00316     0.38998
      H   22    0.11158      0.00000     0.38708    0.00134     0.38842
      H   23    0.11233      0.00000     0.38601    0.00166     0.38767
      H   24    0.10527      0.00000     0.39379    0.00094     0.39473
      H   25    0.10395      0.00000     0.39540    0.00065     0.39605
      H   26    0.10602      0.00000     0.39325    0.00073     0.39398
      H   27    0.10605      0.00000     0.39154    0.00242     0.39395
      H   28    0.10697      0.00000     0.39156    0.00147     0.39303
      H   29    0.11260      0.00000     0.38613    0.00127     0.38740
 =======================================================================
   * Total *    0.00000     14.99405    38.80764    0.19831    54.00000

 Normal termination of Gaussian 16 at Thu Dec 10 15:37:37 2020.
