 Gaussian 16, Revision A.03,

 -----------------------------------------------------------
 # opt freq B3LYP/6-31G(d) empiricaldispersion=gd3bj scf=xqc
 -----------------------------------------------------------

 -------------------------------
 CID_137176332_JID_2203_neutraal
 -------------------------------
 Symbolic Z-matrix:
 Charge =  0 Multiplicity = 1

 SCF Done:  E(RB3LYP) =  -566.947389446     A.U. after   15 cycles
 SCF Done:  E(RB3LYP) =  -566.951268803     A.U. after   13 cycles
 SCF Done:  E(RB3LYP) =  -566.952324309     A.U. after   12 cycles
 SCF Done:  E(RB3LYP) =  -566.952829346     A.U. after   12 cycles
 SCF Done:  E(RB3LYP) =  -566.953177228     A.U. after   12 cycles
 SCF Done:  E(RB3LYP) =  -566.953309848     A.U. after   12 cycles
 SCF Done:  E(RB3LYP) =  -566.953351956     A.U. after   11 cycles
 SCF Done:  E(RB3LYP) =  -566.953369808     A.U. after   11 cycles
 SCF Done:  E(RB3LYP) =  -566.953372930     A.U. after    9 cycles
 SCF Done:  E(RB3LYP) =  -566.953373584     A.U. after    9 cycles
 SCF Done:  E(RB3LYP) =  -566.953373795     A.U. after    7 cycles
 SCF Done:  E(RB3LYP) =  -566.953373905     A.U. after    8 cycles
 Optimization completed.
    -- Stationary point found.
 Normal termination of Gaussian 16 at Wed Dec  9 16:54:16 2020.

 --------------------------------------------------------------------
 #N Geom=AllCheck Guess=TCheck SCRF=Check GenChk RB3LYP/6-31G(d) Freq
 --------------------------------------------------------------------

 Structure from the checkpoint file:  "JID_2203.chk"
 -------------------------------
 CID_137176332_JID_2203_neutraal
 -------------------------------
 Charge =  0 Multiplicity = 1

 SCF Done:  E(RB3LYP) =  -566.953373905     A.U. after    1 cycles

  Exact polarizability: 128.663   2.986 100.175   1.601  -4.118  64.902
 Approx polarizability: 195.638   5.568 154.085   6.975 -14.096 102.647

                      1                      2                      3
                      A                      A                      A
 Frequencies --     64.5581               120.4698               137.5881
 Red. masses --      3.3485                 4.5196                 3.7933
 Frc consts  --      0.0082                 0.0386                 0.0423
 IR Inten    --      1.8850                 0.6824                 2.5325

                      4                      5                      6
                      A                      A                      A
 Frequencies --    188.9104               253.0827               259.2482
 Red. masses --      5.3451                 2.4013                 2.8198
 Frc consts  --      0.1124                 0.0906                 0.1117
 IR Inten    --      2.5667                 0.8082                 0.2961

                      7                      8                      9
                      A                      A                      A
 Frequencies --    307.6656               374.2450               403.0778
 Red. masses --      3.0639                 5.4925                 3.5477
 Frc consts  --      0.1709                 0.4532                 0.3396
 IR Inten    --      0.3179                12.3355                 0.8934

                     10                     11                     12
                      A                      A                      A
 Frequencies --    418.6354               448.7830               488.7586
 Red. masses --      6.3645                 1.5286                 2.5078
 Frc consts  --      0.6572                 0.1814                 0.3530
 IR Inten    --      1.1992                64.5923                29.0280

                     13                     14                     15
                      A                      A                      A
 Frequencies --    541.5847               579.0365               670.5360
 Red. masses --      2.3810                 2.8321                 5.0610
 Frc consts  --      0.4115                 0.5595                 1.3407
 IR Inten    --     13.8094                13.3912                 5.0871

                     16                     17                     18
                      A                      A                      A
 Frequencies --    691.2378               716.1323               736.2736
 Red. masses --      3.1034                 3.7539                 4.9417
 Frc consts  --      0.8737                 1.1343                 1.5784
 IR Inten    --      8.7421                 5.6966                 6.7770

                     19                     20                     21
                      A                      A                      A
 Frequencies --    806.6347               816.1755               853.3703
 Red. masses --      1.3790                 1.9035                 2.4736
 Frc consts  --      0.5287                 0.7471                 1.0614
 IR Inten    --      9.7398                 9.4185                 7.9647

                     22                     23                     24
                      A                      A                      A
 Frequencies --    915.5030               950.1226               979.4716
 Red. masses --      2.0390                 3.5535                 4.1341
 Frc consts  --      1.0069                 1.8900                 2.3368
 IR Inten    --     20.8172                65.9354                25.3967

                     25                     26                     27
                      A                      A                      A
 Frequencies --   1000.4371              1007.2041              1052.4543
 Red. masses --      2.9251                 2.8203                 6.8218
 Frc consts  --      1.7250                 1.6857                 4.4520
 IR Inten    --     46.8940                60.9673                 6.7712

                     28                     29                     30
                      A                      A                      A
 Frequencies --   1094.6886              1116.1738              1145.4197
 Red. masses --      2.0524                 1.9895                 3.8744
 Frc consts  --      1.4491                 1.4604                 2.9949
 IR Inten    --      1.9718                 1.4705                 6.1878

                     31                     32                     33
                      A                      A                      A
 Frequencies --   1182.3296              1212.0425              1224.2160
 Red. masses --      1.4601                 1.5041                 1.7114
 Frc consts  --      1.2026                 1.3019                 1.5112
 IR Inten    --     18.4020                 1.0430                13.6251

                     34                     35                     36
                      A                      A                      A
 Frequencies --   1273.9134              1289.3910              1309.7657
 Red. masses --      1.3905                 2.1715                 1.2902
 Frc consts  --      1.3296                 2.1270                 1.3040
 IR Inten    --      0.9549                30.4246                 3.0428

                     37                     38                     39
                      A                      A                      A
 Frequencies --   1368.8440              1388.5300              1393.9920
 Red. masses --      1.4017                 1.7242                 1.8293
 Frc consts  --      1.5474                 1.9586                 2.0944
 IR Inten    --     14.7830                49.1891                 9.4146

                     40                     41                     42
                      A                      A                      A
 Frequencies --   1403.4180              1412.8797              1426.6015
 Red. masses --      1.7116                 1.6559                 1.5694
 Frc consts  --      1.9863                 1.9476                 1.8819
 IR Inten    --      7.6973                25.8925                13.5832

                     43                     44                     45
                      A                      A                      A
 Frequencies --   1440.5871              1493.1986              1508.0574
 Red. masses --      2.5105                 1.1222                 1.4390
 Frc consts  --      3.0696                 1.4742                 1.9281
 IR Inten    --     12.5611                 5.1957                21.9586

                     46                     47                     48
                      A                      A                      A
 Frequencies --   1518.9119              1530.7744              1541.0220
 Red. masses --      1.3114                 1.0931                 1.6258
 Frc consts  --      1.7826                 1.5092                 2.2747
 IR Inten    --      8.2306                 5.6991                35.2556

                     49                     50                     51
                      A                      A                      A
 Frequencies --   1561.8789              1701.8442              3037.9437
 Red. masses --      6.4506                 7.3207                 1.0697
 Frc consts  --      9.2715                12.4923                 5.8165
 IR Inten    --     10.4042                 0.6523                 6.9587

                     52                     53                     54
                      A                      A                      A
 Frequencies --   3051.7122              3061.9939              3075.0910
 Red. masses --      1.0611                 1.0645                 1.0684
 Frc consts  --      5.8225                 5.8803                 5.9525
 IR Inten    --     24.2633                17.6152                12.5093

                     55                     56                     57
                      A                      A                      A
 Frequencies --   3088.3159              3091.9328              3104.9539
 Red. masses --      1.0945                 1.0937                 1.1032
 Frc consts  --      6.1506                 6.1602                 6.2662
 IR Inten    --      3.6232                31.6415                41.8512

                     58                     59                     60
                      A                      A                      A
 Frequencies --   3131.0501              3275.3443              3755.8812
 Red. masses --      1.1040                 1.0979                 1.0676
 Frc consts  --      6.3770                 6.9396                 8.8737
 IR Inten    --     18.2169                 0.8541               103.4945

 - Thermochemistry -
 -------------------
 Temperature   298.150 Kelvin.  Pressure   1.00000 Atm.
 Atom     1 has atomic number  6 and mass  12.00000

 Molecular mass:   166.08546 amu.
 Principal axes and moments of inertia in atomic units:
                           1         2         3
     Eigenvalues --  1361.904751979.911152983.88733
           X            0.99924   0.03775  -0.01019
           Y           -0.03765   0.99925   0.00923
           Z            0.01053  -0.00884   0.99991
 This molecule is an asymmetric top.
 Rotational symmetry number  1.
 Warning -- assumption of classical behavior for rotation
           may cause significant error
 Rotational temperatures (Kelvin)      0.06360     0.04375     0.02903
 Rotational constants (GHZ):           1.32516     0.91153     0.60483
 Zero-point vibrational energy     472488.4 (Joules/Mol)
                                  112.92744 (Kcal/Mol)
 Warning -- explicit consideration of  14 degrees of freedom as
           vibrations may cause significant error
 Vibrational temperatures:     92.88   173.33   197.96   271.80   364.13
          (Kelvin)            373.00   442.66   538.46   579.94   602.32
                              645.70   703.21   779.22   833.10   964.75
                              994.54  1030.35  1059.33  1160.57  1174.29
                             1227.81  1317.20  1367.01  1409.24  1439.41
                             1449.14  1514.25  1575.01  1605.93  1648.00
                             1701.11  1743.86  1761.37  1832.88  1855.15
                             1884.46  1969.46  1997.79  2005.64  2019.21
                             2032.82  2052.56  2072.68  2148.38  2169.76
                             2185.38  2202.44  2217.19  2247.20  2448.57
                             4370.92  4390.73  4405.53  4424.37  4443.40
                             4448.60  4467.34  4504.88  4712.49  5403.88

 Zero-point correction=                           0.179961 (Hartree/Particle)
 Thermal correction to Energy=                    0.189835
 Thermal correction to Enthalpy=                  0.190780
 Thermal correction to Gibbs Free Energy=         0.144535
 Sum of electronic and zero-point Energies=           -566.773413
 Sum of electronic and thermal Energies=              -566.763538
 Sum of electronic and thermal Enthalpies=            -566.762594
 Sum of electronic and thermal Free Energies=         -566.808839

                     E (Thermal)             CV                S
                      KCal/Mol        Cal/Mol-Kelvin    Cal/Mol-Kelvin
 Total                  119.124             38.635             97.331
 Electronic               0.000              0.000              0.000
 Translational            0.889              2.981             41.230
 Rotational               0.889              2.981             30.465
 Vibrational            117.346             32.673             25.635
 Vibration     1          0.597              1.971              4.313
 Vibration     2          0.609              1.932              3.093
 Vibration     3          0.614              1.916              2.837
 Vibration     4          0.633              1.855              2.238
 Vibration     5          0.664              1.758              1.709
 Vibration     6          0.668              1.747              1.667
 Vibration     7          0.698              1.659              1.375
 Vibration     8          0.745              1.525              1.062
 Vibration     9          0.768              1.463              0.951
 Vibration    10          0.781              1.430              0.897
 Vibration    11          0.808              1.364              0.799
 Vibration    12          0.845              1.275              0.687
 Vibration    13          0.897              1.158              0.562
 Vibration    14          0.936              1.077              0.487

 Optimization completed.
    -- Stationary point found.
 Normal termination of Gaussian 16 at Wed Dec  9 16:59:25 2020.

 ----------------------------------------------------------------------
 # B3LYP/6-311++G(d,p) empiricaldispersion=gd3bj scf=xqc pop=npa geom=c
 heck
 ----------------------------------------------------------------------

 ---------------------------------------
 CID_137176332_JID_2203_Energie_neutraal
 ---------------------------------------
 Structure from the checkpoint file:  "JID_2203.chk"
 Charge =  0 Multiplicity = 1

 SCF Done:  E(RB3LYP) =  -567.113281432     A.U. after   15 cycles
 Normal termination of Gaussian 16 at Wed Dec  9 17:01:39 2020.

 ----------------------------------------------------------------------
 # B3LYP/6-311++G(d,p) empiricaldispersion=gd3bj scf=xqc pop=npa geom=c
 heck
 ----------------------------------------------------------------------

 -------------------------------------
 CID_137176332_JID_2203_Energie_kation
 -------------------------------------
 Structure from the checkpoint file:  "JID_2203.chk"
 Charge =  1 Multiplicity = 2

 SCF Done:  E(UB3LYP) =  -566.791494178     A.U. after   25 cycles
 Normal termination of Gaussian 16 at Wed Dec  9 17:06:37 2020.
 Gaussian 16:  ES64L-G16RevA.03 25-Dec-2016

 ----------------------------------------------------------------------
 # B3LYP/6-311++G(d,p) empiricaldispersion=gd3bj scf=xqc pop=npa geom=c
 heck
 ----------------------------------------------------------------------

 ------------------------------------
 CID_137176332_JID_2203_Energie_anion
 ------------------------------------
 Structure from the checkpoint file:  "JID_2203.chk"
 Charge = -1 Multiplicity = 2

                         Standard orientation:
 ---------------------------------------------------------------------
 Center     Atomic      Atomic             Coordinates (Angstroms)
 Number     Number       Type             X           Y           Z
 ---------------------------------------------------------------------
      1          6           0       -0.326611    1.897590    0.969250
      2          6           0        0.770698    2.365784   -0.003469
      3          6           0        1.205460    1.285930   -1.004979
      4          7           0        1.331809   -0.025266   -0.381345
      5          6           0        2.447074   -0.773300   -0.134215
      6          7           0        2.125723   -1.919217    0.421856
      7          7           0        0.752823   -1.942735    0.553819
      8          6           0        0.289472   -0.806950    0.064946
      9          6           0       -1.105542   -0.350185   -0.008969
     10          7           0       -1.970217   -1.247612   -0.328019
     11          8           0       -3.267414   -0.716135   -0.322145
     12          6           0       -1.462461    1.086797    0.327915
     13          1           0       -0.754169    2.780645    1.456326
     14          1           0        0.126605    1.299474    1.768244
     15          1           0        0.419328    3.228326   -0.583565
     16          1           0        1.638632    2.703175    0.574556
     17          1           0        2.165184    1.535454   -1.464451
     18          1           0        0.472933    1.196772   -1.813852
     19          1           0        3.446645   -0.441885   -0.378992
     20          1           0       -3.803150   -1.493560   -0.544860
     21          1           0       -2.318331    1.044490    1.010911
     22          1           0       -1.843865    1.585997   -0.574209
 ---------------------------------------------------------------------

 SCF Done:  E(UB3LYP) =  -567.107746066     A.U. after   33 cycles
 SCF Done:  E(UB3LYP) =  -567.107746066     a.u. after    1 cycles

 The electronic state is 2-A.
 Alpha  occ. eigenvalues --  -19.06332 -14.26430 -14.24379 -14.20804 -14.20250
 Alpha  occ. eigenvalues --  -10.11788 -10.11524 -10.11002 -10.10402 -10.07592
 Alpha  occ. eigenvalues --  -10.07159 -10.06936  -0.98357  -0.94738  -0.81614
 Alpha  occ. eigenvalues --   -0.77152  -0.69913  -0.68875  -0.64242  -0.57379
 Alpha  occ. eigenvalues --   -0.53975  -0.50874  -0.48931  -0.44152  -0.41619
 Alpha  occ. eigenvalues --   -0.39093  -0.37854  -0.37182  -0.35614  -0.33720
 Alpha  occ. eigenvalues --   -0.33195  -0.32724  -0.30702  -0.28920  -0.27839
 Alpha  occ. eigenvalues --   -0.25617  -0.24036  -0.23334  -0.19935  -0.18144
 Alpha  occ. eigenvalues --   -0.17818  -0.16988  -0.14375  -0.13204   0.04467
 Alpha virt. eigenvalues --    0.06686   0.07328   0.07884   0.08713   0.09889
 Alpha virt. eigenvalues --    0.11110   0.11313   0.11678   0.12749   0.13379
 Alpha virt. eigenvalues --    0.14153   0.15446   0.15742   0.16606   0.17147

  Beta  occ. eigenvalues --  -19.06293 -14.26388 -14.24125 -14.20832 -14.20179
  Beta  occ. eigenvalues --  -10.11739 -10.11472 -10.10949 -10.10352 -10.07589
  Beta  occ. eigenvalues --  -10.07148 -10.06897  -0.98177  -0.94666  -0.81523
  Beta  occ. eigenvalues --   -0.76930  -0.69832  -0.68760  -0.64118  -0.57271
  Beta  occ. eigenvalues --   -0.53793  -0.50774  -0.48848  -0.44042  -0.41490
  Beta  occ. eigenvalues --   -0.38962  -0.37703  -0.37072  -0.35493  -0.33595
  Beta  occ. eigenvalues --   -0.33082  -0.32430  -0.30600  -0.28552  -0.27763
  Beta  occ. eigenvalues --   -0.25520  -0.23948  -0.23276  -0.19885  -0.17835
  Beta  occ. eigenvalues --   -0.17483  -0.16726  -0.14313  -0.12643
  Beta virt. eigenvalues --    0.07090   0.07815   0.08221   0.08892   0.09419
  Beta virt. eigenvalues --    0.10487   0.11432   0.11908   0.12043   0.13257
  Beta virt. eigenvalues --    0.13700   0.14521   0.15572   0.15913   0.16968

 Mulliken charges and spin densities:
               1          2
     1  C   -0.978174   0.841283
     2  C    1.868310  -2.358790
     3  C    0.115520  -0.486471
     4  N   -0.055354   0.176326
     5  C    0.083243   0.085037
     6  N   -0.123314  -0.040518
     7  N   -0.089899   0.081199
     8  C   -0.663572   0.033200
     9  C    1.085178  -0.952921
    10  N   -0.362002   0.161992
    11  O   -0.024835  -0.003991
    12  C    0.092830  -0.381537
    13  H   -0.328114   0.511932
    14  H    0.184680  -0.011397
    15  H   -0.585681   0.752875
    16  H   -0.101251   0.259054
    17  H   -1.129843   1.328713
    18  H   -0.021802   0.215375
    19  H   -0.299334   0.479755
    20  H    0.234315   0.020235
    21  H    0.100999   0.093622
    22  H   -0.001900   0.195026
 Sum of Mulliken charges =  -1.00000   1.00000

 Dipole moment (field-independent basis, Debye):
    X=             -4.9876    Y=             -2.1697    Z=              1.6497  Tot=              5.6838
 Quadrupole moment (field-independent basis, Debye-Ang):
   XX=           -106.5607   YY=           -128.4862   ZZ=            -95.3779
   XY=             -0.2251   XZ=              6.6133   YZ=             11.0431

 Summary of Natural Population Analysis:

                                       Natural Population
                Natural  -----------------------------------------------
    Atom  No    Charge         Core      Valence    Rydberg      Total
 -----------------------------------------------------------------------
      C    1   -0.19292      0.99963     2.18460    0.00870     3.19292
      C    2   -0.19141      0.99962     2.18265    0.00914     3.19141
      C    3   -0.08621      0.99961     2.07469    0.01190     3.08621
      N    4   -0.20590      0.99961     2.69486    0.01143     3.70590
      C    5    0.10267      0.99963     1.88007    0.01763     2.89733
      N    6   -0.17211      0.99973     2.65934    0.01304     3.67211
      N    7   -0.14370      0.99969     2.63154    0.01246     3.64370
      C    8    0.17127      0.99955     1.81022    0.01896     2.82873
      C    9    0.08942      0.99956     1.89396    0.01706     2.91058
      N   10   -0.03591      0.99961     2.52281    0.01350     3.53591
      O   11   -0.28768      0.99990     3.28150    0.00629     4.28768
      C   12   -0.22096      0.99959     2.21202    0.00935     3.22096
      H   13    0.10287      0.00000     0.39612    0.00101     0.39713
      H   14    0.09769      0.00000     0.40083    0.00148     0.40231
      H   15    0.10470      0.00000     0.39032    0.00498     0.39530
      H   16    0.10038      0.00000     0.39804    0.00157     0.39962
      H   17    0.11221      0.00000     0.38078    0.00701     0.38779
      H   18    0.10202      0.00000     0.39594    0.00204     0.39798
      H   19    0.09751      0.00000     0.40087    0.00162     0.40249
      H   20    0.23089      0.00000     0.26628    0.00283     0.26911
      H   21    0.11578      0.00000     0.38285    0.00136     0.38422
      H   22    0.10940      0.00000     0.38905    0.00155     0.39060
 =======================================================================
   * Total *    0.00000     11.99573    31.82935    0.17492    44.00000

 Normal termination of Gaussian 16 at Wed Dec  9 17:14:09 2020.
