 Gaussian 16, Revision A.03,

 -----------------------------------------------------------
 # opt freq B3LYP/6-31G(d) empiricaldispersion=gd3bj scf=xqc
 -----------------------------------------------------------

 ------------------------------
 CID_61582445_JID_6183_neutraal
 ------------------------------
 Symbolic Z-matrix:
 Charge =  0 Multiplicity = 1

 SCF Done:  E(RB3LYP) =  -762.545515564     A.U. after   14 cycles
 SCF Done:  E(RB3LYP) =  -762.551797639     A.U. after   12 cycles
 SCF Done:  E(RB3LYP) =  -762.538495781     A.U. after   13 cycles
 SCF Done:  E(RB3LYP) =  -762.550908749     A.U. after   13 cycles
 SCF Done:  E(RB3LYP) =  -762.555483627     A.U. after   10 cycles
 SCF Done:  E(RB3LYP) =  -762.556732461     A.U. after   12 cycles
 SCF Done:  E(RB3LYP) =  -762.556930606     A.U. after   13 cycles
 SCF Done:  E(RB3LYP) =  -762.558217542     A.U. after   11 cycles
 SCF Done:  E(RB3LYP) =  -762.558643802     A.U. after   11 cycles
 SCF Done:  E(RB3LYP) =  -762.559012456     A.U. after   11 cycles
 SCF Done:  E(RB3LYP) =  -762.560391585     A.U. after   10 cycles
 SCF Done:  E(RB3LYP) =  -762.560402767     A.U. after   11 cycles
 SCF Done:  E(RB3LYP) =  -762.560408598     A.U. after    9 cycles
 SCF Done:  E(RB3LYP) =  -762.560412088     A.U. after    9 cycles
 SCF Done:  E(RB3LYP) =  -762.560413308     A.U. after    8 cycles
 SCF Done:  E(RB3LYP) =  -762.560413510     A.U. after    7 cycles
 Optimization completed.
    -- Stationary point found.
 Normal termination of Gaussian 16 at Thu Dec 10 21:34:27 2020.

 --------------------------------------------------------------------
 #N Geom=AllCheck Guess=TCheck SCRF=Check GenChk RB3LYP/6-31G(d) Freq
 --------------------------------------------------------------------

 Structure from the checkpoint file:  "JID_6183.chk"
 ------------------------------
 CID_61582445_JID_6183_neutraal
 ------------------------------
 Charge =  0 Multiplicity = 1

 SCF Done:  E(RB3LYP) =  -762.560413510     A.U. after    1 cycles

  Exact polarizability: 142.626  -6.198 143.872   9.126   7.189 122.708
 Approx polarizability: 192.854 -12.194 205.933  22.558  18.208 187.849

                      1                      2                      3
                      A                      A                      A
 Frequencies --     32.2900                34.7361                63.6579
 Red. masses --      4.3790                 3.6322                 2.9442
 Frc consts  --      0.0027                 0.0026                 0.0070
 IR Inten    --      0.3048                 0.6304                 0.4161

                      4                      5                      6
                      A                      A                      A
 Frequencies --     83.7086               105.2926               110.0179
 Red. masses --      3.1226                 1.1999                 1.4133
 Frc consts  --      0.0129                 0.0078                 0.0101
 IR Inten    --      0.5572                 0.3876                 0.9542

                      7                      8                      9
                      A                      A                      A
 Frequencies --    117.8504               135.7219               164.6333
 Red. masses --      1.9318                 2.9042                 2.3374
 Frc consts  --      0.0158                 0.0315                 0.0373
 IR Inten    --      5.5231                 3.1861                 1.2439

                     10                     11                     12
                      A                      A                      A
 Frequencies --    167.4673               178.6104               219.2506
 Red. masses --      2.0370                 2.7904                 1.3996
 Frc consts  --      0.0337                 0.0524                 0.0396
 IR Inten    --      3.3113                 6.6924                 0.4865

                     13                     14                     15
                      A                      A                      A
 Frequencies --    220.3338               241.9472               251.7960
 Red. masses --      1.7040                 2.5112                 2.1198
 Frc consts  --      0.0487                 0.0866                 0.0792
 IR Inten    --      2.4275                 4.8095                 4.1441

                     16                     17                     18
                      A                      A                      A
 Frequencies --    260.3657               280.1761               297.1943
 Red. masses --      2.1366                 1.7790                 1.7260
 Frc consts  --      0.0853                 0.0823                 0.0898
 IR Inten    --      8.7224                 8.7404                35.1556

                     19                     20                     21
                      A                      A                      A
 Frequencies --    319.8999               325.4263               336.8989
 Red. masses --      1.3218                 3.4261                 3.2610
 Frc consts  --      0.0797                 0.2138                 0.2181
 IR Inten    --    105.8911                 7.4911                 9.5027

                     22                     23                     24
                      A                      A                      A
 Frequencies --    350.1720               398.0098               416.9628
 Red. masses --      4.0959                 3.7514                 3.1697
 Frc consts  --      0.2959                 0.3501                 0.3247
 IR Inten    --      5.9814                 0.8556                 9.6283

                     25                     26                     27
                      A                      A                      A
 Frequencies --    464.6096               518.6717               580.2629
 Red. masses --      2.3310                 3.2999                 4.1320
 Frc consts  --      0.2965                 0.5230                 0.8197
 IR Inten    --      3.4929                 1.7521                 2.8260

                     28                     29                     30
                      A                      A                      A
 Frequencies --    598.4376               629.9854               665.7428
 Red. masses --      3.7469                 4.3746                 3.5252
 Frc consts  --      0.7906                 1.0229                 0.9205
 IR Inten    --     13.9533                 8.9654                11.7568

                     31                     32                     33
                      A                      A                      A
 Frequencies --    676.6558               720.9427               744.5334
 Red. masses --      5.1203                 5.2010                 5.2527
 Frc consts  --      1.3813                 1.5927                 1.7155
 IR Inten    --      8.7373                 4.8784                 8.4858

                     34                     35                     36
                      A                      A                      A
 Frequencies --    824.6446               868.5099               942.2374
 Red. masses --      3.3852                 2.1581                 2.7344
 Frc consts  --      1.3563                 0.9591                 1.4303
 IR Inten    --      3.3062                83.1348                23.9708

                     37                     38                     39
                      A                      A                      A
 Frequencies --    955.0194               969.3633              1015.0486
 Red. masses --      2.1265                 2.3340                 1.7714
 Frc consts  --      1.1427                 1.2922                 1.0753
 IR Inten    --     60.1974                35.3848                18.5890

                     40                     41                     42
                      A                      A                      A
 Frequencies --   1017.2826              1029.3757              1070.1634
 Red. masses --      2.7810                 2.0866                 2.2632
 Frc consts  --      1.6956                 1.3026                 1.5271
 IR Inten    --      3.9312                87.1880                 8.3642

                     43                     44                     45
                      A                      A                      A
 Frequencies --   1075.6608              1081.2717              1108.6542
 Red. masses --      1.4894                 2.4397                 2.0377
 Frc consts  --      1.0154                 1.6806                 1.4757
 IR Inten    --      2.9256                 5.5138                21.9765

                     46                     47                     48
                      A                      A                      A
 Frequencies --   1134.3046              1150.4080              1159.0700
 Red. masses --      2.6094                 2.3549                 2.4246
 Frc consts  --      1.9781                 1.8362                 1.9191
 IR Inten    --     28.7523                35.9664                50.3684

                     49                     50                     51
                      A                      A                      A
 Frequencies --   1164.8291              1174.7741              1195.2109
 Red. masses --      1.3014                 1.7262                 1.2860
 Frc consts  --      1.0404                 1.4036                 1.0824
 IR Inten    --      0.4682                25.3380                 5.2834

                     52                     53                     54
                      A                      A                      A
 Frequencies --   1225.4772              1235.7417              1250.4721
 Red. masses --      1.7223                 1.8601                 1.3781
 Frc consts  --      1.5239                 1.6736                 1.2696
 IR Inten    --      6.1392                55.5953                50.6169

                     55                     56                     57
                      A                      A                      A
 Frequencies --   1277.2595              1285.6797              1323.1115
 Red. masses --      1.6714                 1.4777                 2.3923
 Frc consts  --      1.6065                 1.4391                 2.4675
 IR Inten    --     23.0242                11.1308                12.8281

                     58                     59                     60
                      A                      A                      A
 Frequencies --   1335.5359              1353.4607              1384.8358
 Red. masses --      1.2271                 4.2804                 1.3436
 Frc consts  --      1.2896                 4.6198                 1.5181
 IR Inten    --     22.8551                32.0923                 4.9902

                     61                     62                     63
                      A                      A                      A
 Frequencies --   1402.2121              1424.7638              1426.1545
 Red. masses --      1.5935                 1.4562                 2.7029
 Frc consts  --      1.8460                 1.7416                 3.2391
 IR Inten    --      3.4548                 6.2941                61.9319

                     64                     65                     66
                      A                      A                      A
 Frequencies --   1434.3062              1461.0644              1461.8610
 Red. masses --      1.2757                 1.2485                 1.4416
 Frc consts  --      1.5463                 1.5703                 1.8152
 IR Inten    --      2.0301                 2.3065                 5.9409

                     67                     68                     69
                      A                      A                      A
 Frequencies --   1473.5699              1500.2033              1503.2256
 Red. masses --      1.4591                 1.1532                 1.6776
 Frc consts  --      1.8668                 1.5291                 2.2335
 IR Inten    --     11.0250                 6.0398                17.2255

                     70                     71                     72
                      A                      A                      A
 Frequencies --   1511.6915              1512.9708              1514.2999
 Red. masses --      1.0767                 1.0893                 1.0691
 Frc consts  --      1.4496                 1.4691                 1.4444
 IR Inten    --      4.4532                 9.3854                15.3377

                     73                     74                     75
                      A                      A                      A
 Frequencies --   1517.0728              1518.5180              1527.5715
 Red. masses --      1.0901                 1.0548                 1.1884
 Frc consts  --      1.4782                 1.4331                 1.6338
 IR Inten    --      0.9325                10.4364                 0.8185

                     76                     77                     78
                      A                      A                      A
 Frequencies --   1533.0849              1538.2579              1543.5617
 Red. masses --      2.1566                 1.3389                 1.0586
 Frc consts  --      2.9864                 1.8666                 1.4861
 IR Inten    --     22.5739                 7.2737                 5.1595

                     79                     80                     81
                      A                      A                      A
 Frequencies --   1546.4055              1556.7162              1637.8296
 Red. masses --      1.1227                 1.5320                 7.3303
 Frc consts  --      1.5818                 2.1874                11.5853
 IR Inten    --      0.5092                12.1143                20.9689

                     82                     83                     84
                      A                      A                      A
 Frequencies --   1702.0597              2957.8411              2991.4563
 Red. masses --      1.1115                 1.0737                 1.0834
 Frc consts  --      1.8973                 5.5343                 5.7124
 IR Inten    --     30.7333                69.3022                43.4687

                     85                     86                     87
                      A                      A                      A
 Frequencies --   3009.3413              3020.3405              3028.4900
 Red. masses --      1.0475                 1.0434                 1.0651
 Frc consts  --      5.5890                 5.6080                 5.7556
 IR Inten    --     81.1176                38.5018                61.0456

                     88                     89                     90
                      A                      A                      A
 Frequencies --   3035.0218              3064.0101              3080.3444
 Red. masses --      1.0397                 1.0339                 1.1007
 Frc consts  --      5.6427                 5.7191                 6.1535
 IR Inten    --     42.2711                59.2869                24.5003

                     91                     92                     93
                      A                      A                      A
 Frequencies --   3092.7863              3097.4253              3100.4019
 Red. masses --      1.0958                 1.0946                 1.0853
 Frc consts  --      6.1755                 6.1872                 6.1468
 IR Inten    --     22.5752                36.6797                30.7843

                     94                     95                     96
                      A                      A                      A
 Frequencies --   3123.9623              3136.2399              3140.3813
 Red. masses --      1.1057                 1.1022                 1.0980
 Frc consts  --      6.3578                 6.3877                 6.3798
 IR Inten    --     20.2801                27.1713                10.3082

                     97                     98                     99
                      A                      A                      A
 Frequencies --   3144.0813              3146.5510              3175.3210
 Red. masses --      1.1046                 1.0910                 1.1019
 Frc consts  --      6.4333                 6.3643                 6.5456
 IR Inten    --     24.0951                12.7621                 2.1656

                    100                    101                    102
                      A                      A                      A
 Frequencies --   3455.2585              3561.6869              3737.1464
 Red. masses --      1.0534                 1.0887                 1.0660
 Frc consts  --      7.4097                 8.1374                 8.7719
 IR Inten    --     56.0068                16.2044                 7.6098

 - Thermochemistry -
 -------------------
 Temperature   298.150 Kelvin.  Pressure   1.00000 Atm.
 Atom     1 has atomic number  6 and mass  12.00000

 Molecular mass:   228.15863 amu.
 Principal axes and moments of inertia in atomic units:
                           1         2         3
     Eigenvalues --  2654.310504239.280085134.82257
           X            0.99997   0.00792  -0.00093
           Y           -0.00792   0.99997  -0.00234
           Z            0.00091   0.00234   1.00000
 This molecule is an asymmetric top.
 Rotational symmetry number  1.
 Warning -- assumption of classical behavior for rotation
           may cause significant error
 Rotational temperatures (Kelvin)      0.03263     0.02043     0.01687
 Rotational constants (GHZ):           0.67993     0.42572     0.35147
 Zero-point vibrational energy     823420.5 (Joules/Mol)
                                  196.80222 (Kcal/Mol)
 Warning -- explicit consideration of  28 degrees of freedom as
           vibrations may cause significant error
 Vibrational temperatures:     46.46    49.98    91.59   120.44   151.49
          (Kelvin)            158.29   169.56   195.27   236.87   240.95
                              256.98   315.45   317.01   348.11   362.28
                              374.61   403.11   427.60   460.26   468.22
                              484.72   503.82   572.65   599.92   668.47
                              746.25   834.87   861.02   906.41   957.86
                              973.56  1037.28  1071.22  1186.48  1249.59
                             1355.67  1374.06  1394.70  1460.43  1463.64
                             1481.04  1539.73  1547.64  1555.71  1595.11
                             1632.01  1655.18  1667.64  1675.93  1690.24
                             1719.64  1763.19  1777.96  1799.15  1837.69
                             1849.81  1903.66  1921.54  1947.33  1992.47
                             2017.47  2049.92  2051.92  2063.65  2102.15
                             2103.29  2120.14  2158.46  2162.81  2174.99
                             2176.83  2178.74  2182.73  2184.81  2197.83
                             2205.77  2213.21  2220.84  2224.93  2239.77
                             2356.47  2448.88  4255.67  4304.04  4329.77
                             4345.60  4357.32  4366.72  4408.43  4431.93
                             4449.83  4456.50  4460.79  4494.68  4512.35
                             4518.31  4523.63  4527.19  4568.58  4971.35
                             5124.47  5376.92

 Zero-point correction=                           0.313624 (Hartree/Particle)
 Thermal correction to Energy=                    0.332105
 Thermal correction to Enthalpy=                  0.333049
 Thermal correction to Gibbs Free Energy=         0.267132
 Sum of electronic and zero-point Energies=           -762.246789
 Sum of electronic and thermal Energies=              -762.228308
 Sum of electronic and thermal Enthalpies=            -762.227364
 Sum of electronic and thermal Free Energies=         -762.293282

                     E (Thermal)             CV                S
                      KCal/Mol        Cal/Mol-Kelvin    Cal/Mol-Kelvin
 Total                  208.399             66.851            138.736
 Electronic               0.000              0.000              0.000
 Translational            0.889              2.981             42.177
 Rotational               0.889              2.981             32.424
 Vibrational            206.622             60.889             64.135
 Vibration     1          0.594              1.983              5.684
 Vibration     2          0.594              1.983              5.539
 Vibration     3          0.597              1.972              4.340
 Vibration     4          0.601              1.960              3.802
 Vibration     5          0.605              1.945              3.354
 Vibration     6          0.606              1.941              3.269
 Vibration     7          0.608              1.934              3.135
 Vibration     8          0.614              1.918              2.863
 Vibration     9          0.623              1.886              2.496
 Vibration    10          0.624              1.882              2.464
 Vibration    11          0.629              1.869              2.343
 Vibration    12          0.647              1.812              1.965
 Vibration    13          0.647              1.810              1.956
 Vibration    14          0.658              1.776              1.789
 Vibration    15          0.664              1.760              1.718
 Vibration    16          0.668              1.745              1.659
 Vibration    17          0.680              1.710              1.533
 Vibration    18          0.691              1.679              1.433
 Vibration    19          0.706              1.635              1.311
 Vibration    20          0.710              1.625              1.283
 Vibration    21          0.718              1.602              1.227
 Vibration    22          0.727              1.575              1.165
 Vibration    23          0.764              1.474              0.970
 Vibration    24          0.780              1.433              0.902
 Vibration    25          0.822              1.329              0.753
 Vibration    26          0.874              1.209              0.613
 Vibration    27          0.937              1.074              0.485
 Vibration    28          0.956              1.035              0.452

                           ! Non-Optimized Parameters !
 Normal termination of Gaussian 16 at Thu Dec 10 21:48:27 2020.

 ----------------------------------------------------------------------
 # B3LYP/6-311++G(d,p) empiricaldispersion=gd3bj scf=xqc pop=npa geom=c
 heck
 ----------------------------------------------------------------------

 --------------------------------------
 CID_61582445_JID_6183_Energie_neutraal
 --------------------------------------
 Structure from the checkpoint file:  "JID_6183.chk"
 Charge =  0 Multiplicity = 1

 SCF Done:  E(RB3LYP) =  -762.790042570     A.U. after   16 cycles
 Normal termination of Gaussian 16 at Thu Dec 10 21:55:50 2020.

 ----------------------------------------------------------------------
 # B3LYP/6-311++G(d,p) empiricaldispersion=gd3bj scf=xqc pop=npa geom=c
 heck
 ----------------------------------------------------------------------

 ------------------------------------
 CID_61582445_JID_6183_Energie_kation
 ------------------------------------
 Structure from the checkpoint file:  "JID_6183.chk"
 Charge =  1 Multiplicity = 2

 SCF Done:  E(UB3LYP) =  -762.519844995     A.U. after   25 cycles
 Normal termination of Gaussian 16 at Thu Dec 10 22:13:20 2020.
 Gaussian 16:  ES64L-G16RevA.03 25-Dec-2016

 ----------------------------------------------------------------------
 # B3LYP/6-311++G(d,p) empiricaldispersion=gd3bj scf=xqc pop=npa geom=c
 heck
 ----------------------------------------------------------------------

 -----------------------------------
 CID_61582445_JID_6183_Energie_anion
 -----------------------------------
 Structure from the checkpoint file:  "JID_6183.chk"
 Charge = -1 Multiplicity = 2

                         Standard orientation:
 ---------------------------------------------------------------------
 Center     Atomic      Atomic             Coordinates (Angstroms)
 Number     Number       Type             X           Y           Z
 ---------------------------------------------------------------------
      1          6           0       -3.032513    2.366837   -0.214775
      2          6           0       -2.304778    1.060082   -0.184838
      3          7           0       -2.612772    0.078266   -1.043720
      4          7           0       -1.766183   -0.931007   -0.750249
      5          6           0       -0.936562   -0.628563    0.300797
      6          6           0       -1.258503    0.667768    0.686927
      7          7           0       -0.615401    1.400708    1.717915
      8          7           0        0.013151   -1.560924    0.768477
      9          6           0       -0.326297   -2.074887    2.102745
     10          6           0        1.413605   -1.124363    0.706909
     11          6           0        1.887850   -0.758060   -0.702576
     12          6           0        1.543272    0.671147   -1.149775
     13          8           0        1.774676    1.680031   -0.179612
     14          6           0        3.141807    1.991428    0.050680
     15          8           0        3.305064   -0.971510   -0.679344
     16          6           0       -1.834552   -2.176319   -1.481424
     17          1           0       -3.638859    2.521189    0.687662
     18          1           0       -3.701940    2.396582   -1.078488
     19          1           0       -2.335577    3.211758   -0.287570
     20          1           0        0.299215    1.713190    1.389016
     21          1           0       -1.157539    2.227038    1.955434
     22          1           0        0.349499   -2.900857    2.350811
     23          1           0       -0.251046   -1.302415    2.882253
     24          1           0       -1.350577   -2.456386    2.086356
     25          1           0        1.620427   -0.290794    1.394070
     26          1           0        2.027770   -1.971779    1.027423
     27          1           0        1.413150   -1.449232   -1.418737
     28          1           0        2.115231    0.900785   -2.067915
     29          1           0        0.481501    0.736606   -1.393442
     30          1           0        3.677166    1.168204    0.533848
     31          1           0        3.649697    2.234094   -0.895816
     32          1           0        3.155975    2.874269    0.695061
     33          1           0        3.659226   -0.691063   -1.537769
     34          1           0       -2.801670   -2.662745   -1.319314
     35          1           0       -1.709088   -1.989078   -2.552034
     36          1           0       -1.032007   -2.817258   -1.114169
 ---------------------------------------------------------------------

 SCF Done:  E(UB3LYP) =  -762.778677133     A.U. after   32 cycles

 The electronic state is 2-A.
 Alpha  occ. eigenvalues --  -19.03261 -19.02115 -14.28369 -14.22695 -14.22287
 Alpha  occ. eigenvalues --  -14.20494 -10.12452 -10.12389 -10.11526 -10.10931
 Alpha  occ. eigenvalues --  -10.10893 -10.09974 -10.09841 -10.09274 -10.09126
 Alpha  occ. eigenvalues --  -10.07582  -0.94952  -0.94445  -0.92044  -0.84200
 Alpha  occ. eigenvalues --   -0.79790  -0.74020  -0.67371  -0.66265  -0.64300
 Alpha  occ. eigenvalues --   -0.62017  -0.57625  -0.56760  -0.55290  -0.49960
 Alpha  occ. eigenvalues --   -0.47921  -0.45407  -0.42836  -0.41551  -0.39762
 Alpha  occ. eigenvalues --   -0.39423  -0.38599  -0.37873  -0.37354  -0.35965
 Alpha  occ. eigenvalues --   -0.35135  -0.34135  -0.33262  -0.32756  -0.32263
 Alpha  occ. eigenvalues --   -0.32072  -0.30665  -0.29936  -0.29103  -0.28862
 Alpha  occ. eigenvalues --   -0.28230  -0.27765  -0.26337  -0.24219  -0.22991
 Alpha  occ. eigenvalues --   -0.21247  -0.19526  -0.18782  -0.15609  -0.14415
 Alpha  occ. eigenvalues --   -0.13842  -0.11032   0.04274
 Alpha virt. eigenvalues --    0.06222   0.06512   0.07397   0.08240   0.08824
 Alpha virt. eigenvalues --    0.09310   0.09617   0.10363   0.10757   0.10872
 Alpha virt. eigenvalues --    0.11081   0.11567   0.12250   0.12475   0.12840

  Beta  occ. eigenvalues --  -19.03250 -19.02069 -14.28367 -14.22691 -14.22280
  Beta  occ. eigenvalues --  -14.20480 -10.12439 -10.12387 -10.11494 -10.10908
  Beta  occ. eigenvalues --  -10.10857 -10.09962 -10.09832 -10.09274 -10.09125
  Beta  occ. eigenvalues --  -10.07562  -0.94944  -0.94416  -0.91959  -0.84189
  Beta  occ. eigenvalues --   -0.79770  -0.74008  -0.67328  -0.66239  -0.64274
  Beta  occ. eigenvalues --   -0.61974  -0.57585  -0.56720  -0.55238  -0.49899
  Beta  occ. eigenvalues --   -0.47894  -0.45388  -0.42784  -0.41512  -0.39723
  Beta  occ. eigenvalues --   -0.39381  -0.38569  -0.37849  -0.37312  -0.35941
  Beta  occ. eigenvalues --   -0.35107  -0.34098  -0.33238  -0.32735  -0.32237
  Beta  occ. eigenvalues --   -0.32036  -0.30637  -0.29910  -0.29082  -0.28839
  Beta  occ. eigenvalues --   -0.28211  -0.27742  -0.26300  -0.24178  -0.22943
  Beta  occ. eigenvalues --   -0.21228  -0.19465  -0.18764  -0.15569  -0.14405
  Beta  occ. eigenvalues --   -0.13828  -0.11020
  Beta virt. eigenvalues --    0.06207   0.06945   0.07544   0.07693   0.08777
  Beta virt. eigenvalues --    0.09258   0.09584   0.09943   0.10482   0.10884
  Beta virt. eigenvalues --    0.11279   0.11571   0.11748   0.12393   0.12615

 Mulliken charges and spin densities:
               1          2
     1  C    0.308013  -1.087653
     2  C   -1.027139   0.899905
     3  N   -0.254909   0.156891
     4  N    0.185986   0.063865
     5  C   -0.582141  -0.327184
     6  C    0.867039  -0.523523
     7  N   -0.530553   0.142862
     8  N    0.179212   0.071202
     9  C    0.070855  -0.351156
    10  C   -0.106946  -0.305528
    11  C    0.740492  -0.839955
    12  C   -0.449355  -0.059739
    13  O   -0.096692   0.017273
    14  C    0.536330  -0.851522
    15  O   -0.186797  -0.009865
    16  C    0.388461  -0.633673
    17  H    0.028240   0.120506
    18  H    0.004235   0.149691
    19  H   -0.074162   0.227643
    20  H    0.340624  -0.044517
    21  H    0.012504   0.249650
    22  H    0.048243   0.088796
    23  H    0.064765   0.088494
    24  H   -0.011729   0.150739
    25  H    0.148066   0.016839
    26  H    0.056087   0.118811
    27  H   -0.107646   0.288982
    28  H   -0.953563   1.140939
    29  H    0.274560  -0.118436
    30  H    0.023992   0.166263
    31  H   -0.227141   0.383292
    32  H   -0.226317   0.365278
    33  H   -0.254822   0.525628
    34  H   -0.005197   0.165619
    35  H   -0.161001   0.340144
    36  H   -0.021593   0.213442
 Sum of Mulliken charges =  -1.00000   1.00000

 Dipole moment (field-independent basis, Debye):
    X=             -4.4366    Y=             -1.2212    Z=              4.3505  Tot=              6.3326
 Quadrupole moment (field-independent basis, Debye-Ang):
   XX=           -168.0696   YY=           -139.2477   ZZ=           -142.2569
   XY=             -0.9700   XZ=             11.6684   YZ=             -1.9717

 Summary of Natural Population Analysis:

                                       Natural Population
                Natural  -----------------------------------------------
    Atom  No    Charge         Core      Valence    Rydberg      Total
 -----------------------------------------------------------------------
      C    1   -0.29990      0.99963     2.29520    0.00507     3.29990
      C    2    0.05955      0.99954     1.92721    0.01370     2.94045
      N    3   -0.16293      0.99970     2.65197    0.01125     3.66293
      N    4   -0.10988      0.99962     2.59804    0.01222     3.60988
      C    5    0.16472      0.99941     1.82038    0.01549     2.83528
      C    6    0.01878      0.99933     1.96947    0.01241     2.98122
      N    7   -0.42053      0.99973     2.91032    0.01048     3.92053
      N    8   -0.28342      0.99968     2.77180    0.01194     3.78342
      C    9   -0.17105      0.99964     2.16521    0.00621     3.17105
      C   10   -0.08725      0.99957     2.07549    0.01219     3.08725
      C   11    0.04397      0.99956     1.94221    0.01426     2.95603
      C   12   -0.02147      0.99954     2.00677    0.01516     3.02147
      O   13   -0.30767      0.99989     3.29707    0.01071     4.30767
      C   14   -0.09973      0.99960     2.09077    0.00936     3.09973
      O   15   -0.37537      0.99989     3.36904    0.00644     4.37537
      C   16   -0.17645      0.99963     2.16844    0.00838     3.17645
      H   17    0.10003      0.00000     0.39853    0.00144     0.39997
      H   18    0.10925      0.00000     0.38957    0.00118     0.39075
      H   19    0.10376      0.00000     0.39462    0.00162     0.39624
      H   20    0.19503      0.00000     0.30255    0.00243     0.30497
      H   21    0.17827      0.00000     0.32012    0.00161     0.32173
      H   22    0.09164      0.00000     0.40738    0.00098     0.40836
      H   23    0.09195      0.00000     0.40669    0.00136     0.40805
      H   24    0.09616      0.00000     0.40294    0.00091     0.40384
      H   25    0.09106      0.00000     0.40724    0.00170     0.40894
      H   26    0.10238      0.00000     0.39617    0.00145     0.39762
      H   27    0.08354      0.00000     0.41368    0.00278     0.41646
      H   28    0.08487      0.00000     0.41220    0.00293     0.41513
      H   29    0.09970      0.00000     0.39744    0.00286     0.40030
      H   30    0.08858      0.00000     0.40989    0.00152     0.41142
      H   31    0.08273      0.00000     0.41540    0.00187     0.41727
      H   32    0.08621      0.00000     0.41261    0.00119     0.41379
      H   33    0.23643      0.00000     0.25323    0.01034     0.26357
      H   34    0.09598      0.00000     0.40296    0.00106     0.40402
      H   35    0.10095      0.00000     0.39777    0.00128     0.39905
      H   36    0.11014      0.00000     0.38829    0.00156     0.38986
 =======================================================================
   * Total *    0.00000     15.99398    45.78867    0.21735    62.00000

 Normal termination of Gaussian 16 at Thu Dec 10 22:37:28 2020.
