 Gaussian 16, Revision A.03,

 -----------------------------------------------------------
 # opt freq B3LYP/6-31G(d) empiricaldispersion=gd3bj scf=xqc
 -----------------------------------------------------------

 -------------------------------
 CID_106928014_JID_7601_neutraal
 -------------------------------
 Symbolic Z-matrix:
 Charge =  0 Multiplicity = 1

 SCF Done:  E(RB3LYP) =  -1091.60700475     A.U. after   15 cycles
 SCF Done:  E(RB3LYP) =  -1091.61552253     A.U. after   12 cycles
 SCF Done:  E(RB3LYP) =  -1091.60847866     A.U. after   15 cycles
 SCF Done:  E(RB3LYP) =  -1091.61954216     A.U. after   12 cycles
 SCF Done:  E(RB3LYP) =  -1091.61969619     A.U. after   12 cycles
 SCF Done:  E(RB3LYP) =  -1091.62102435     A.U. after   12 cycles
 SCF Done:  E(RB3LYP) =  -1091.62212103     A.U. after   12 cycles
 SCF Done:  E(RB3LYP) =  -1091.62303122     A.U. after   13 cycles
 SCF Done:  E(RB3LYP) =  -1091.62419499     A.U. after   13 cycles
 SCF Done:  E(RB3LYP) =  -1091.62519025     A.U. after   13 cycles
 SCF Done:  E(RB3LYP) =  -1091.62578756     A.U. after    7 cycles
 SCF Done:  E(RB3LYP) =  -1091.62578798     A.U. after    7 cycles
 SCF Done:  E(RB3LYP) =  -1091.62578803     A.U. after    6 cycles
 SCF Done:  E(RB3LYP) =  -1091.62578793     A.U. after    6 cycles
 SCF Done:  E(RB3LYP) =  -1091.62578782     A.U. after    6 cycles
 Optimization completed.
    -- Stationary point found.
 Normal termination of Gaussian 16 at Mon Dec 14 13:37:49 2020.

 --------------------------------------------------------------------
 #N Geom=AllCheck Guess=TCheck SCRF=Check GenChk RB3LYP/6-31G(d) Freq
 --------------------------------------------------------------------

 Structure from the checkpoint file:  "JID_7601.chk"
 -------------------------------
 CID_106928014_JID_7601_neutraal
 -------------------------------
 Charge =  0 Multiplicity = 1

 SCF Done:  E(RB3LYP) =  -1091.62578782     A.U. after    1 cycles

  Exact polarizability: 193.022  12.456 156.790   8.669  -6.711 149.301
 Approx polarizability: 262.923  26.006 231.827  15.891 -15.965 237.109

                      1                      2                      3
                      A                      A                      A
 Frequencies --     26.2738                39.9312                72.1642
 Red. masses --      3.8677                 3.8614                 3.8114
 Frc consts  --      0.0016                 0.0036                 0.0117
 IR Inten    --      0.1170                 0.9288                 0.3353

                      4                      5                      6
                      A                      A                      A
 Frequencies --    107.9295               110.5399               119.1538
 Red. masses --      1.0273                 3.1871                 3.2437
 Frc consts  --      0.0071                 0.0229                 0.0271
 IR Inten    --      0.0731                 0.2075                 0.5180

                      7                      8                      9
                      A                      A                      A
 Frequencies --    139.4918               173.0257               184.6481
 Red. masses --      1.0326                 4.5289                 4.5849
 Frc consts  --      0.0118                 0.0799                 0.0921
 IR Inten    --      0.0159                 3.3794                 0.3884

                     10                     11                     12
                      A                      A                      A
 Frequencies --    225.7311               233.5090               237.5364
 Red. masses --      4.0756                 3.8486                 1.1947
 Frc consts  --      0.1224                 0.1236                 0.0397
 IR Inten    --      0.4569                 0.8983                 0.9963

                     13                     14                     15
                      A                      A                      A
 Frequencies --    255.9348               259.7572               274.3336
 Red. masses --      2.4984                 1.4653                 2.8797
 Frc consts  --      0.0964                 0.0583                 0.1277
 IR Inten    --      0.2251                 0.5567                 0.5220

                     16                     17                     18
                      A                      A                      A
 Frequencies --    280.4872               307.0406               332.2231
 Red. masses --      2.0018                 2.3404                 2.5654
 Frc consts  --      0.0928                 0.1300                 0.1668
 IR Inten    --      0.7177                 1.1882                 0.0380

                     19                     20                     21
                      A                      A                      A
 Frequencies --    343.6745               358.3054               366.3239
 Red. masses --      2.5739                 1.4331                 2.2013
 Frc consts  --      0.1791                 0.1084                 0.1740
 IR Inten    --      9.6259                37.6418                22.9121

                     22                     23                     24
                      A                      A                      A
 Frequencies --    415.9749               426.7762               440.0540
 Red. masses --      1.9468                 2.1216                 3.9037
 Frc consts  --      0.1985                 0.2277                 0.4454
 IR Inten    --      1.7415                 0.8092                 1.5265

                     25                     26                     27
                      A                      A                      A
 Frequencies --    447.6935               485.8152               501.3189
 Red. masses --      3.2442                 4.6744                 2.8410
 Frc consts  --      0.3831                 0.6500                 0.4207
 IR Inten    --      0.3750                 0.4814                 5.1849

                     28                     29                     30
                      A                      A                      A
 Frequencies --    555.2597               620.6774               643.6465
 Red. masses --      4.9018                 3.7926                 4.6542
 Frc consts  --      0.8904                 0.8608                 1.1360
 IR Inten    --      3.6143                 7.7992                 8.1248

                     31                     32                     33
                      A                      A                      A
 Frequencies --    653.7526               667.0977               711.4495
 Red. masses --      4.8024                 3.3024                 8.4990
 Frc consts  --      1.2093                 0.8659                 2.5346
 IR Inten    --      0.1529                 3.8695                 1.1405

                     34                     35                     36
                      A                      A                      A
 Frequencies --    730.8304               760.8506               810.1689
 Red. masses --      2.6922                 4.3922                 2.5578
 Frc consts  --      0.8472                 1.4981                 0.9892
 IR Inten    --      4.0838                 6.0244                 0.8893

                     37                     38                     39
                      A                      A                      A
 Frequencies --    877.2596               893.7667               930.8257
 Red. masses --      2.0694                 1.7987                 2.1820
 Frc consts  --      0.9383                 0.8466                 1.1139
 IR Inten    --      8.6249                19.0417                 4.1800

                     40                     41                     42
                      A                      A                      A
 Frequencies --    953.2796               958.7525               974.0203
 Red. masses --      1.5004                 1.5268                 3.0851
 Frc consts  --      0.8034                 0.8269                 1.7245
 IR Inten    --    119.9995                 6.4680                 3.1005

                     43                     44                     45
                      A                      A                      A
 Frequencies --    987.3286              1006.2186              1012.7950
 Red. masses --      1.6460                 2.8018                 1.9928
 Frc consts  --      0.9454                 1.6714                 1.2043
 IR Inten    --      3.9310                 3.0254                 0.4917

                     46                     47                     48
                      A                      A                      A
 Frequencies --   1021.2697              1025.5030              1053.3429
 Red. masses --      1.8522                 1.7399                 1.4577
 Frc consts  --      1.1382                 1.0781                 0.9529
 IR Inten    --      7.9477                16.4037                 4.7567

                     49                     50                     51
                      A                      A                      A
 Frequencies --   1059.5672              1077.7354              1083.9870
 Red. masses --      1.7815                 1.4141                 1.5087
 Frc consts  --      1.1784                 0.9677                 1.0445
 IR Inten    --      2.5387                 3.2657                 0.0957

                     52                     53                     54
                      A                      A                      A
 Frequencies --   1106.4039              1127.7004              1142.2370
 Red. masses --      2.5301                 5.7605                 1.7292
 Frc consts  --      1.8248                 4.3162                 1.3292
 IR Inten    --      8.8442                49.9211                 8.3242

                     55                     56                     57
                      A                      A                      A
 Frequencies --   1149.3687              1204.2137              1220.5430
 Red. masses --      1.4956                 1.8037                 4.0598
 Frc consts  --      1.1641                 1.5410                 3.5634
 IR Inten    --      3.0699                 4.6364                50.8401

                     58                     59                     60
                      A                      A                      A
 Frequencies --   1226.9182              1239.4169              1253.6939
 Red. masses --      1.6065                 1.7337                 1.6414
 Frc consts  --      1.4248                 1.5692                 1.5200
 IR Inten    --      0.8107                17.0208                 6.4942

                     61                     62                     63
                      A                      A                      A
 Frequencies --   1266.0278              1303.1002              1312.0291
 Red. masses --      5.1865                 1.4943                 1.6914
 Frc consts  --      4.8979                 1.4950                 1.7155
 IR Inten    --     19.7443                 0.6912                 3.0978

                     64                     65                     66
                      A                      A                      A
 Frequencies --   1337.1363              1350.8946              1366.4145
 Red. masses --      1.2990                 1.4130                 3.5919
 Frc consts  --      1.3684                 1.5193                 3.9512
 IR Inten    --      8.4097                15.2196                 7.4045

                     67                     68                     69
                      A                      A                      A
 Frequencies --   1373.7856              1381.8880              1404.7275
 Red. masses --      1.3204                 1.4221                 1.4867
 Frc consts  --      1.4682                 1.6000                 1.7285
 IR Inten    --      1.8301                 5.3001                 0.3973

                     70                     71                     72
                      A                      A                      A
 Frequencies --   1410.1797              1429.5843              1439.6117
 Red. masses --      1.3885                 1.2439                 1.3446
 Frc consts  --      1.6269                 1.4978                 1.6419
 IR Inten    --     12.7701                 4.2140                 4.4241

                     73                     74                     75
                      A                      A                      A
 Frequencies --   1449.0854              1450.8364              1454.5239
 Red. masses --      1.5506                 1.2408                 1.2624
 Frc consts  --      1.9183                 1.5389                 1.5736
 IR Inten    --      4.0241                 2.7292                 1.3110

                     76                     77                     78
                      A                      A                      A
 Frequencies --   1500.2374              1501.9200              1506.3873
 Red. masses --      1.0837                 1.0428                 1.0431
 Frc consts  --      1.4371                 1.3860                 1.3946
 IR Inten    --      3.0371                 2.9214                 7.8655

                     79                     80                     81
                      A                      A                      A
 Frequencies --   1508.6346              1517.5551              1518.4823
 Red. masses --      1.0714                 1.2894                 1.0507
 Frc consts  --      1.4368                 1.7496                 1.4274
 IR Inten    --      1.1874                18.5966                 1.9599

                     82                     83                     84
                      A                      A                      A
 Frequencies --   1520.2015              1528.1353              1530.1543
 Red. masses --      1.1169                 1.1382                 1.0837
 Frc consts  --      1.5207                 1.5660                 1.4950
 IR Inten    --      3.5729                13.2851                 4.2511

                     85                     86                     87
                      A                      A                      A
 Frequencies --   1532.0010              1540.1644              1545.7155
 Red. masses --      2.2154                 1.1535                 1.0814
 Frc consts  --      3.0635                 1.6122                 1.5223
 IR Inten    --     19.7134                 0.5311                 7.3091

                     88                     89                     90
                      A                      A                      A
 Frequencies --   1693.9423              1720.4654              2988.4071
 Red. masses --      7.2399                 1.0882                 1.0831
 Frc consts  --     12.2399                 1.8978                 5.6990
 IR Inten    --     28.3048                23.5006                25.9270

                     91                     92                     93
                      A                      A                      A
 Frequencies --   3009.7922              3015.6927              3037.1410
 Red. masses --      1.0682                 1.0647                 1.0361
 Frc consts  --      5.7016                 5.7048                 5.6310
 IR Inten    --     13.3460                55.8857                42.7716

                     94                     95                     96
                      A                      A                      A
 Frequencies --   3043.3680              3049.1376              3052.6949
 Red. masses --      1.0726                 1.0377                 1.0480
 Frc consts  --      5.8533                 5.6842                 5.7541
 IR Inten    --     51.3239                29.0516                16.3528

                     97                     98                     99
                      A                      A                      A
 Frequencies --   3053.2491              3059.3445              3068.0729
 Red. masses --      1.0378                 1.0937                 1.0854
 Frc consts  --      5.7001                 6.0314                 6.0196
 IR Inten    --     23.5450                46.6098                13.9613

                    100                    101                    102
                      A                      A                      A
 Frequencies --   3086.3505              3101.0438              3103.8767
 Red. masses --      1.0929                 1.1019                 1.1021
 Frc consts  --      6.1339                 6.2433                 6.2555
 IR Inten    --     11.2263                12.3621                16.9524

                    103                    104                    105
                      A                      A                      A
 Frequencies --   3105.7759              3107.9942              3112.4735
 Red. masses --      1.1018                 1.1015                 1.1000
 Frc consts  --      6.2618                 6.2687                 6.2782
 IR Inten    --     32.2741                14.6073                46.5981

                    106                    107                    108
                      A                      A                      A
 Frequencies --   3132.9162              3135.1706              3144.6145
 Red. masses --      1.0904                 1.1014                 1.0991
 Frc consts  --      6.3055                 6.3782                 6.4035
 IR Inten    --     16.9328                17.0845                13.0516

                    109                    110                    111
                      A                      A                      A
 Frequencies --   3177.6955              3445.3337              3530.0381
 Red. masses --      1.0921                 1.0504                 1.0915
 Frc consts  --      6.4976                 7.3466                 8.0137
 IR Inten    --     21.6285                33.1467                10.6691

 - Thermochemistry -
 -------------------
 Temperature   298.150 Kelvin.  Pressure   1.00000 Atm.
 Atom     1 has atomic number  6 and mass  12.00000

 Molecular mass:   254.14529 amu.
 Principal axes and moments of inertia in atomic units:
                           1         2         3
     Eigenvalues --  2986.177675689.006216271.95714
           X            0.99995  -0.00459   0.00919
           Y            0.00503   0.99882  -0.04826
           Z           -0.00896   0.04830   0.99879
 This molecule is an asymmetric top.
 Rotational symmetry number  1.
 Warning -- assumption of classical behavior for rotation
           may cause significant error
 Rotational temperatures (Kelvin)      0.02900     0.01522     0.01381
 Rotational constants (GHZ):           0.60436     0.31723     0.28775
 Zero-point vibrational energy     896359.1 (Joules/Mol)
                                  214.23496 (Kcal/Mol)
 Warning -- explicit consideration of  29 degrees of freedom as
           vibrations may cause significant error
 Vibrational temperatures:     37.80    57.45   103.83   155.29   159.04
          (Kelvin)            171.44   200.70   248.95   265.67   324.78
                              335.97   341.76   368.23   373.73   394.70
                              403.56   441.76   477.99   494.47   515.52
                              527.06   598.50   614.04   633.14   644.13
                              698.98   721.29   798.89   893.02   926.06
                              940.60   959.80  1023.62  1051.50  1094.69
                             1165.65  1262.18  1285.93  1339.25  1371.56
                             1379.43  1401.40  1420.55  1447.72  1457.19
                             1469.38  1475.47  1515.53  1524.48  1550.62
                             1559.62  1591.87  1622.51  1643.42  1653.69
                             1732.59  1756.09  1765.26  1783.24  1803.79
                             1821.53  1874.87  1887.72  1923.84  1943.64
                             1965.97  1976.57  1988.23  2021.09  2028.93
                             2056.85  2071.28  2084.91  2087.43  2092.74
                             2158.51  2160.93  2167.36  2170.59  2183.42
                             2184.76  2187.23  2198.65  2201.55  2204.21
                             2215.95  2223.94  2437.21  2475.37  4299.65
                             4330.42  4338.91  4369.77  4378.73  4387.03
                             4392.15  4392.94  4401.71  4414.27  4440.57
                             4461.71  4465.79  4468.52  4471.71  4478.16
                             4507.57  4510.81  4524.40  4572.00  4957.07
                             5078.94

 Zero-point correction=                           0.341405 (Hartree/Particle)
 Thermal correction to Energy=                    0.359601
 Thermal correction to Enthalpy=                  0.360546
 Thermal correction to Gibbs Free Energy=         0.295756
 Sum of electronic and zero-point Energies=          -1091.284383
 Sum of electronic and thermal Energies=             -1091.266186
 Sum of electronic and thermal Enthalpies=           -1091.265242
 Sum of electronic and thermal Free Energies=        -1091.330031

                     E (Thermal)             CV                S
                      KCal/Mol        Cal/Mol-Kelvin    Cal/Mol-Kelvin
 Total                  225.653             69.957            136.360
 Electronic               0.000              0.000              0.000
 Translational            0.889              2.981             42.498
 Rotational               0.889              2.981             33.032
 Vibrational            223.876             63.995             60.830
 Vibration     1          0.593              1.985              6.093
 Vibration     2          0.594              1.981              5.262
 Vibration     3          0.598              1.967              4.093
 Vibration     4          0.606              1.943              3.306
 Vibration     5          0.606              1.941              3.259
 Vibration     6          0.609              1.933              3.114
 Vibration     7          0.615              1.914              2.811
 Vibration     8          0.627              1.876              2.402
 Vibration     9          0.631              1.861              2.281
 Vibration    10          0.650              1.802              1.913
 Vibration    11          0.654              1.790              1.852
 Vibration    12          0.656              1.783              1.821
 Vibration    13          0.666              1.753              1.689
 Vibration    14          0.668              1.746              1.663
 Vibration    15          0.677              1.721              1.569
 Vibration    16          0.680              1.710              1.531
 Vibration    17          0.697              1.660              1.378
 Vibration    18          0.714              1.611              1.249
 Vibration    19          0.722              1.588              1.195
 Vibration    20          0.733              1.558              1.129
 Vibration    21          0.739              1.542              1.095
 Vibration    22          0.779              1.436              0.906
 Vibration    23          0.788              1.412              0.869
 Vibration    24          0.800              1.383              0.826
 Vibration    25          0.807              1.366              0.803
 Vibration    26          0.842              1.282              0.695
 Vibration    27          0.857              1.247              0.655
 Vibration    28          0.911              1.128              0.533
 Vibration    29          0.981              0.988              0.415

 Optimization completed.
    -- Stationary point found.
 Normal termination of Gaussian 16 at Mon Dec 14 13:57:28 2020.

 ----------------------------------------------------------------------
 # B3LYP/6-311++G(d,p) empiricaldispersion=gd3bj scf=xqc pop=npa geom=c
 heck
 ----------------------------------------------------------------------

 ---------------------------------------
 CID_106928014_JID_7601_Energie_neutraal
 ---------------------------------------
 Structure from the checkpoint file:  "JID_7601.chk"
 Charge =  0 Multiplicity = 1

 SCF Done:  E(RB3LYP) =  -1091.84552425     A.U. after   15 cycles
 Normal termination of Gaussian 16 at Mon Dec 14 14:06:59 2020.

 ----------------------------------------------------------------------
 # B3LYP/6-311++G(d,p) empiricaldispersion=gd3bj scf=xqc pop=npa geom=c
 heck
 ----------------------------------------------------------------------

 -------------------------------------
 CID_106928014_JID_7601_Energie_kation
 -------------------------------------
 Structure from the checkpoint file:  "JID_7601.chk"
 Charge =  1 Multiplicity = 2

 SCF Done:  E(UB3LYP) =  -1091.56238670     A.U. after   23 cycles
 Normal termination of Gaussian 16 at Mon Dec 14 14:27:38 2020.
 Gaussian 16:  ES64L-G16RevA.03 25-Dec-2016

 ----------------------------------------------------------------------
 # B3LYP/6-311++G(d,p) empiricaldispersion=gd3bj scf=xqc pop=npa geom=c
 heck
 ----------------------------------------------------------------------

 ------------------------------------
 CID_106928014_JID_7601_Energie_anion
 ------------------------------------
 Structure from the checkpoint file:  "JID_7601.chk"
 Charge = -1 Multiplicity = 2

                         Standard orientation:
 ---------------------------------------------------------------------
 Center     Atomic      Atomic             Coordinates (Angstroms)
 Number     Number       Type             X           Y           Z
 ---------------------------------------------------------------------
      1          6           0       -3.452804    0.653537   -1.909272
      2          6           0       -2.707393    0.268466   -0.674906
      3          6           0       -2.914770   -0.766422    0.187552
      4          8           0       -1.941343   -0.694169    1.162382
      5          6           0       -1.190517    0.400668    0.840128
      6          7           0       -1.615686    1.013740   -0.227362
      7         16           0        0.102510    0.825181    1.939277
      8          6           0        1.705581    0.940824    0.975824
      9          6           0        2.484741   -0.383403    0.886734
     10          6           0        2.213037   -1.291200   -0.333786
     11          6           0        2.310202   -0.434327   -1.613846
     12          6           0        1.404436    0.801370   -1.574373
     13          6           0        1.706980    1.707083   -0.364988
     14          7           0        0.912208    2.929642   -0.272694
     15          6           0        0.843049   -1.987044   -0.257791
     16          6           0        3.300578   -2.378260   -0.362084
     17          6           0       -3.902121   -1.869723    0.294142
     18          1           0       -2.793963    0.633098   -2.785154
     19          1           0       -3.849313    1.671459   -1.823008
     20          1           0       -4.289696   -0.025526   -2.096226
     21          1           0        2.222957    1.584984    1.695453
     22          1           0        3.546985   -0.097776    0.844289
     23          1           0        2.356091   -0.950963    1.814951
     24          1           0        2.072604   -1.053148   -2.489351
     25          1           0        3.354162   -0.109239   -1.738352
     26          1           0        0.350017    0.515966   -1.561546
     27          1           0        1.551771    1.396281   -2.485803
     28          1           0        2.757168    2.024024   -0.471352
     29          1           0        1.083237    3.490712   -1.106555
     30          1           0       -0.076998    2.675678   -0.300554
     31          1           0        0.773559   -2.759814   -1.033200
     32          1           0        0.694921   -2.468295    0.715032
     33          1           0        0.013332   -1.297789   -0.413932
     34          1           0        4.303422   -1.937606   -0.414009
     35          1           0        3.254474   -3.006181    0.536123
     36          1           0        3.174538   -3.031346   -1.233809
     37          1           0       -3.410433   -2.849553    0.272511
     38          1           0       -4.473558   -1.805842    1.227934
     39          1           0       -4.606341   -1.821739   -0.540545
 ---------------------------------------------------------------------

 SCF Done:  E(UB3LYP) =  -1091.83459582     A.U. after   33 cycles
 SCF Done:  E(UB3LYP) =  -1091.83459582     a.u. after    1 cycles

 The electronic state is 2-A.
 Alpha  occ. eigenvalues --  -88.76277 -19.10464 -14.22082 -14.19145 -10.18650
 Alpha  occ. eigenvalues --  -10.13989 -10.12120 -10.11233 -10.11083 -10.09128
 Alpha  occ. eigenvalues --  -10.08670 -10.08116 -10.07898 -10.06981 -10.06855
 Alpha  occ. eigenvalues --  -10.06394 -10.05970  -7.84911  -5.81349  -5.80902
 Alpha  occ. eigenvalues --   -5.80257  -1.04005  -0.83460  -0.79912  -0.74764
 Alpha  occ. eigenvalues --   -0.72663  -0.69085  -0.65900  -0.64559  -0.63742
 Alpha  occ. eigenvalues --   -0.59360  -0.57779  -0.56921  -0.52757  -0.51435
 Alpha  occ. eigenvalues --   -0.48937  -0.47041  -0.43701  -0.41038  -0.39763
 Alpha  occ. eigenvalues --   -0.38596  -0.38271  -0.36129  -0.36086  -0.34728
 Alpha  occ. eigenvalues --   -0.34269  -0.33558  -0.32701  -0.32538  -0.31964
 Alpha  occ. eigenvalues --   -0.31096  -0.30564  -0.30375  -0.29197  -0.28767
 Alpha  occ. eigenvalues --   -0.28631  -0.27808  -0.27148  -0.26731  -0.25067
 Alpha  occ. eigenvalues --   -0.23788  -0.23159  -0.22881  -0.21698  -0.21215
 Alpha  occ. eigenvalues --   -0.19862  -0.16793  -0.14574  -0.12922   0.03946
 Alpha virt. eigenvalues --    0.05548   0.06502   0.06725   0.07274   0.07881
 Alpha virt. eigenvalues --    0.08482   0.08886   0.09370   0.09705   0.10049
 Alpha virt. eigenvalues --    0.10423   0.10650   0.11271   0.11633   0.12233

  Beta  occ. eigenvalues --  -88.76273 -19.10453 -14.22075 -14.19138 -10.18644
  Beta  occ. eigenvalues --  -10.13986 -10.12107 -10.11233 -10.11076 -10.09129
  Beta  occ. eigenvalues --  -10.08616 -10.08104 -10.07859 -10.06963 -10.06837
  Beta  occ. eigenvalues --  -10.06380 -10.05951  -7.84906  -5.81345  -5.80898
  Beta  occ. eigenvalues --   -5.80253  -1.03989  -0.83448  -0.79893  -0.74746
  Beta  occ. eigenvalues --   -0.72640  -0.69054  -0.65874  -0.64503  -0.63706
  Beta  occ. eigenvalues --   -0.59324  -0.57736  -0.56875  -0.52722  -0.51404
  Beta  occ. eigenvalues --   -0.48903  -0.47014  -0.43662  -0.41011  -0.39727
  Beta  occ. eigenvalues --   -0.38565  -0.38240  -0.36106  -0.36060  -0.34706
  Beta  occ. eigenvalues --   -0.34240  -0.33513  -0.32653  -0.32499  -0.31919
  Beta  occ. eigenvalues --   -0.31065  -0.30526  -0.30336  -0.29178  -0.28740
  Beta  occ. eigenvalues --   -0.28604  -0.27782  -0.27128  -0.26706  -0.25043
  Beta  occ. eigenvalues --   -0.23757  -0.23133  -0.22859  -0.21667  -0.21192
  Beta  occ. eigenvalues --   -0.19846  -0.16770  -0.14562  -0.12898
  Beta virt. eigenvalues --    0.05940   0.06508   0.06684   0.07129   0.07700
  Beta virt. eigenvalues --    0.08341   0.08902   0.09087   0.09714   0.09906
  Beta virt. eigenvalues --    0.10443   0.10811   0.10928   0.11480   0.11841

 Mulliken charges and spin densities:
               1          2
     1  C    1.055482  -1.491772
     2  C   -0.180750   1.121173
     3  C   -1.471684   1.139525
     4  O    0.244062   0.019192
     5  C   -1.275417   0.128830
     6  N    0.232302   0.024255
     7  S    0.081662  -0.222001
     8  C    0.563498   0.425667
     9  C   -0.096757  -0.778778
    10  C   -0.932328   1.487298
    11  C    0.402715  -0.957777
    12  C   -0.797648   0.816560
    13  C    0.381238  -1.671271
    14  N   -0.346377   0.075399
    15  C   -0.530374  -0.120865
    16  C    0.609377  -1.013693
    17  C    1.927144  -2.615975
    18  H   -0.236466   0.398522
    19  H   -0.067481   0.228175
    20  H   -0.262234   0.414228
    21  H    0.199283   0.100193
    22  H   -0.079172   0.250724
    23  H    0.133285   0.033950
    24  H   -0.032060   0.210737
    25  H   -0.141556   0.292324
    26  H    0.226056  -0.065907
    27  H   -0.363828   0.556095
    28  H   -0.031205   0.211335
    29  H    0.145971   0.075260
    30  H    0.263308   0.024235
    31  H   -0.206513   0.359875
    32  H    0.060742   0.115615
    33  H    0.529278  -0.477324
    34  H   -0.096511   0.230544
    35  H    0.018733   0.121173
    36  H    0.032057   0.110404
    37  H   -0.304239   0.476303
    38  H   -0.202854   0.361234
    39  H   -0.450738   0.606537
 Sum of Mulliken charges =  -1.00000   1.00000

 Dipole moment (field-independent basis, Debye):
    X=              3.4337    Y=              1.4367    Z=              2.9098  Tot=              4.7245
 Quadrupole moment (field-independent basis, Debye-Ang):
   XX=           -197.2932   YY=           -162.2078   ZZ=           -154.4974
   XY=            -11.6368   XZ=             -2.7604   YZ=             -2.4532

 Summary of Natural Population Analysis:

                                       Natural Population
                Natural  -----------------------------------------------
    Atom  No    Charge         Core      Valence    Rydberg      Total
 -----------------------------------------------------------------------
      C    1   -0.29576      0.99963     2.29028    0.00585     3.29576
      C    2    0.04320      0.99945     1.94297    0.01438     2.95680
      C    3    0.13717      0.99939     1.84860    0.01484     2.86283
      O    4   -0.23875      0.99985     3.23099    0.00792     4.23875
      C    5    0.17036      0.99956     1.80543    0.02464     2.82964
      N    6   -0.27014      0.99964     2.75988    0.01062     3.77014
      S    7    0.12043      4.99947     2.86235    0.01774     7.87957
      C    8   -0.14735      0.99949     2.13299    0.01487     3.14735
      C    9   -0.19481      0.99955     2.18345    0.01180     3.19481
      C   10   -0.04600      0.99957     2.03478    0.01165     3.04600
      C   11   -0.18796      0.99959     2.17801    0.01036     3.18796
      C   12   -0.20314      0.99960     2.19324    0.01031     3.20314
      C   13   -0.01578      0.99954     2.00300    0.01325     3.01578
      N   14   -0.42665      0.99976     2.91688    0.01000     3.92665
      C   15   -0.28430      0.99961     2.27668    0.00801     3.28430
      C   16   -0.27919      0.99963     2.27359    0.00597     3.27919
      C   17   -0.30589      0.99963     2.30034    0.00592     3.30589
      H   18    0.10799      0.00000     0.39066    0.00134     0.39201
      H   19    0.10573      0.00000     0.39314    0.00112     0.39427
      H   20    0.10792      0.00000     0.39066    0.00142     0.39208
      H   21    0.10957      0.00000     0.38940    0.00103     0.39043
      H   22    0.10265      0.00000     0.39596    0.00139     0.39735
      H   23    0.10525      0.00000     0.39377    0.00098     0.39475
      H   24    0.10145      0.00000     0.39753    0.00103     0.39855
      H   25    0.09610      0.00000     0.40237    0.00153     0.40390
      H   26    0.10578      0.00000     0.39152    0.00270     0.39422
      H   27    0.09873      0.00000     0.39998    0.00129     0.40127
      H   28    0.09334      0.00000     0.40476    0.00190     0.40666
      H   29    0.17130      0.00000     0.32719    0.00151     0.32870
      H   30    0.18869      0.00000     0.30864    0.00268     0.31131
      H   31    0.09953      0.00000     0.39948    0.00099     0.40047
      H   32    0.10139      0.00000     0.39771    0.00090     0.39861
      H   33    0.09986      0.00000     0.39800    0.00215     0.40014
      H   34    0.09880      0.00000     0.40023    0.00097     0.40120
      H   35    0.09798      0.00000     0.40112    0.00090     0.40202
      H   36    0.09979      0.00000     0.39928    0.00093     0.40021
      H   37    0.11080      0.00000     0.38738    0.00182     0.38920
      H   38    0.10802      0.00000     0.39068    0.00130     0.39198
      H   39    0.11388      0.00000     0.38409    0.00204     0.38612
 =======================================================================
   * Total *   -0.00000     20.99295    47.77701    0.23005    69.00000

 Normal termination of Gaussian 16 at Mon Dec 14 14:54:30 2020.
