 Gaussian 16, Revision A.03,

 -----------------------------------------------------------
 # opt freq B3LYP/6-31G(d) empiricaldispersion=gd3bj scf=xqc
 -----------------------------------------------------------

 ------------------------------
 CID_33675845_JID_5322_neutraal
 ------------------------------
 Symbolic Z-matrix:
 Charge =  0 Multiplicity = 1

 SCF Done:  E(RB3LYP) =  -737.168111965     A.U. after   15 cycles
 SCF Done:  E(RB3LYP) =  -737.173765295     A.U. after   13 cycles
 SCF Done:  E(RB3LYP) =  -737.173901508     A.U. after   12 cycles
 SCF Done:  E(RB3LYP) =  -737.174085263     A.U. after   12 cycles
 SCF Done:  E(RB3LYP) =  -737.174449362     A.U. after   12 cycles
 SCF Done:  E(RB3LYP) =  -737.174476209     A.U. after   11 cycles
 SCF Done:  E(RB3LYP) =  -737.174520194     A.U. after   11 cycles
 SCF Done:  E(RB3LYP) =  -737.174553076     A.U. after   11 cycles
 SCF Done:  E(RB3LYP) =  -737.174589004     A.U. after   12 cycles
 SCF Done:  E(RB3LYP) =  -737.174624129     A.U. after   11 cycles
 SCF Done:  E(RB3LYP) =  -737.174665442     A.U. after   12 cycles
 SCF Done:  E(RB3LYP) =  -737.174665207     A.U. after   10 cycles
 SCF Done:  E(RB3LYP) =  -737.174666625     A.U. after   10 cycles
 SCF Done:  E(RB3LYP) =  -737.174666642     A.U. after    8 cycles
 SCF Done:  E(RB3LYP) =  -737.174666708     A.U. after    8 cycles
 Optimization completed.
    -- Stationary point found.
 Normal termination of Gaussian 16 at Thu Dec 10 15:31:21 2020.

 --------------------------------------------------------------------
 #N Geom=AllCheck Guess=TCheck SCRF=Check GenChk RB3LYP/6-31G(d) Freq
 --------------------------------------------------------------------

 Structure from the checkpoint file:  "JID_5322.chk"
 ------------------------------
 CID_33675845_JID_5322_neutraal
 ------------------------------
 Charge =  0 Multiplicity = 1

 SCF Done:  E(RB3LYP) =  -737.174666708     A.U. after    1 cycles

  Exact polarizability: 173.134   5.551 113.989  17.545  -1.125  62.341
 Approx polarizability: 264.787  -8.127 216.307  37.903  -9.510  97.320

                      1                      2                      3
                      A                      A                      A
 Frequencies --     36.4813                51.8251                57.3613
 Red. masses --      7.3784                 6.8892                 8.8526
 Frc consts  --      0.0058                 0.0109                 0.0172
 IR Inten    --      0.4555                 0.2780                 2.1240

                      4                      5                      6
                      A                      A                      A
 Frequencies --    121.8155               140.6487               232.9748
 Red. masses --      8.2713                 5.5759                 5.0849
 Frc consts  --      0.0723                 0.0650                 0.1626
 IR Inten    --      9.6056                 0.2219                 0.0761

                      7                      8                      9
                      A                      A                      A
 Frequencies --    280.9209               321.0954               344.2039
 Red. masses --      3.4465                 8.0442                 5.2142
 Frc consts  --      0.1603                 0.4887                 0.3640
 IR Inten    --      2.8648                 1.7776                 4.9707

                     10                     11                     12
                      A                      A                      A
 Frequencies --    348.5834               440.3106               475.0093
 Red. masses --      6.4451                 3.9922                 3.7335
 Frc consts  --      0.4614                 0.4560                 0.4963
 IR Inten    --      6.5914                 0.0324                 5.7473

                     13                     14                     15
                      A                      A                      A
 Frequencies --    493.1955               511.3721               545.9624
 Red. masses --      2.1642                 5.6384                 6.4056
 Frc consts  --      0.3102                 0.8687                 1.1250
 IR Inten    --     10.7059                 1.6606                18.6976

                     16                     17                     18
                      A                      A                      A
 Frequencies --    576.9453               606.1559               616.3536
 Red. masses --      8.1081                 3.2926                 3.4792
 Frc consts  --      1.5901                 0.7128                 0.7787
 IR Inten    --      6.2215                 1.7941                46.1338

                     19                     20                     21
                      A                      A                      A
 Frequencies --    623.5905               690.2221               728.9291
 Red. masses --      4.0051                 1.9110                 6.3277
 Frc consts  --      0.9176                 0.5364                 1.9809
 IR Inten    --     36.9275                67.9092                10.2051

                     22                     23                     24
                      A                      A                      A
 Frequencies --    742.3154               811.3639               825.0880
 Red. masses --      6.5862                 2.3273                 4.9103
 Frc consts  --      2.1383                 0.9027                 1.9695
 IR Inten    --     18.9292                40.7424                29.9465

                     25                     26                     27
                      A                      A                      A
 Frequencies --    840.0227               871.7597               898.9001
 Red. masses --      2.7289                 4.2091                 5.6280
 Frc consts  --      1.1346                 1.8847                 2.6793
 IR Inten    --      0.6282                 5.7081                 1.2797

                     28                     29                     30
                      A                      A                      A
 Frequencies --    946.1854               984.3322               989.2642
 Red. masses --      1.4424                 2.5672                 1.4029
 Frc consts  --      0.7608                 1.4655                 0.8089
 IR Inten    --      3.3427                13.8904                 0.0084

                     31                     32                     33
                      A                      A                      A
 Frequencies --   1006.3349              1013.4911              1081.0984
 Red. masses --      1.3376                 6.1139                 2.2444
 Frc consts  --      0.7981                 3.7001                 1.5455
 IR Inten    --      0.6729                 2.9780                 1.7525

                     34                     35                     36
                      A                      A                      A
 Frequencies --   1130.6220              1187.9740              1201.6864
 Red. masses --      1.7875                 2.2390                 2.3198
 Frc consts  --      1.3462                 1.8618                 1.9737
 IR Inten    --     10.2693                73.3726               124.4707

                     37                     38                     39
                      A                      A                      A
 Frequencies --   1231.2739              1266.3204              1294.2216
 Red. masses --      2.0322                 2.3800                 2.4442
 Frc consts  --      1.8152                 2.2486                 2.4121
 IR Inten    --     53.7552                35.9396                16.4231

                     40                     41                     42
                      A                      A                      A
 Frequencies --   1336.5550              1346.4819              1378.4093
 Red. masses --      7.5008                 2.4497                 1.5946
 Frc consts  --      7.8946                 2.6167                 1.7850
 IR Inten    --     17.4411                39.0103                45.8275

                     43                     44                     45
                      A                      A                      A
 Frequencies --   1385.5420              1411.8963              1443.4856
 Red. masses --      1.8395                 2.3740                 1.5162
 Frc consts  --      2.0807                 2.7883                 1.8614
 IR Inten    --     23.7732                78.3906                30.5280

                     46                     47                     48
                      A                      A                      A
 Frequencies --   1476.7923              1482.3827              1515.2985
 Red. masses --      1.8927                 1.4639                 2.6403
 Frc consts  --      2.4320                 1.8953                 3.5719
 IR Inten    --     63.7012                14.3937                26.1754

                     49                     50                     51
                      A                      A                      A
 Frequencies --   1604.6135              1651.6791              1673.5632
 Red. masses --      5.9820                 6.4015                 7.8287
 Frc consts  --      9.0748                10.2893                12.9188
 IR Inten    --     43.1792               181.5590               167.7633

                     52                     53                     54
                      A                      A                      A
 Frequencies --   1776.9430              1867.4963              3100.1436
 Red. masses --     12.1563                10.3602                 1.0636
 Frc consts  --     22.6151                21.2881                 6.0226
 IR Inten    --    360.9178               356.7261                 9.1476

                     55                     56                     57
                      A                      A                      A
 Frequencies --   3165.8439              3172.3377              3182.2889
 Red. masses --      1.1013                 1.0899                 1.0917
 Frc consts  --      6.5035                 6.4624                 6.5140
 IR Inten    --      0.3585                28.5207                13.0752

                     58                     59                     60
                      A                      A                      A
 Frequencies --   3215.1268              3229.6942              3691.6131
 Red. masses --      1.0896                 1.0965                 1.0641
 Frc consts  --      6.6360                 6.7385                 8.5445
 IR Inten    --      5.9420                 8.7146                68.6004

 - Thermochemistry -
 -------------------
 Temperature   298.150 Kelvin.  Pressure   1.00000 Atm.
 Atom     1 has atomic number  6 and mass  12.00000

 Molecular mass:   205.04874 amu.
 Principal axes and moments of inertia in atomic units:
                           1         2         3
     Eigenvalues --  1178.719774657.894935296.55992
           X            0.99985   0.01690   0.00429
           Y           -0.01697   0.99972   0.01672
           Z           -0.00401  -0.01679   0.99985
 This molecule is an asymmetric top.
 Rotational symmetry number  1.
 Warning -- assumption of classical behavior for rotation
           may cause significant error
 Rotational temperatures (Kelvin)      0.07348     0.01860     0.01635
 Rotational constants (GHZ):           1.53110     0.38746     0.34074
 Zero-point vibrational energy     422726.8 (Joules/Mol)
                                  101.03412 (Kcal/Mol)
 Warning -- explicit consideration of  18 degrees of freedom as
           vibrations may cause significant error
 Vibrational temperatures:     52.49    74.56    82.53   175.27   202.36
          (Kelvin)            335.20   404.18   461.98   495.23   501.53
                              633.51   683.43   709.60   735.75   785.52
                              830.10   872.12   886.80   897.21   993.08
                             1048.77  1068.03  1167.37  1187.12  1208.61
                             1254.27  1293.32  1361.35  1416.23  1423.33
                             1447.89  1458.19  1555.46  1626.71  1709.23
                             1728.96  1771.53  1821.95  1862.10  1923.00
                             1937.29  1983.22  1993.49  2031.40  2076.85
                             2124.77  2132.82  2180.18  2308.68  2376.40
                             2407.88  2556.62  2686.91  4460.42  4554.94
                             4564.29  4578.60  4625.85  4646.81  5311.41

 Zero-point correction=                           0.161008 (Hartree/Particle)
 Thermal correction to Energy=                    0.172603
 Thermal correction to Enthalpy=                  0.173548
 Thermal correction to Gibbs Free Energy=         0.121705
 Sum of electronic and zero-point Energies=           -737.013659
 Sum of electronic and thermal Energies=              -737.002063
 Sum of electronic and thermal Enthalpies=            -737.001119
 Sum of electronic and thermal Free Energies=         -737.052961

                     E (Thermal)             CV                S
                      KCal/Mol        Cal/Mol-Kelvin    Cal/Mol-Kelvin
 Total                  108.310             44.204            109.111
 Electronic               0.000              0.000              0.000
 Translational            0.889              2.981             41.858
 Rotational               0.889              2.981             31.742
 Vibrational            106.533             38.242             35.510
 Vibration     1          0.594              1.982              5.442
 Vibration     2          0.596              1.977              4.746
 Vibration     3          0.596              1.975              4.546
 Vibration     4          0.609              1.931              3.071
 Vibration     5          0.615              1.913              2.795
 Vibration     6          0.654              1.790              1.856
 Vibration     7          0.681              1.709              1.528
 Vibration     8          0.707              1.633              1.305
 Vibration     9          0.723              1.587              1.193
 Vibration    10          0.726              1.578              1.173
 Vibration    11          0.800              1.382              0.826
 Vibration    12          0.832              1.305              0.724
 Vibration    13          0.849              1.265              0.675
 Vibration    14          0.866              1.225              0.630
 Vibration    15          0.901              1.149              0.553
 Vibration    16          0.933              1.081              0.491
 Vibration    17          0.965              1.019              0.439
 Vibration    18          0.976              0.997              0.422

 Optimization completed.
    -- Stationary point found.
 Normal termination of Gaussian 16 at Thu Dec 10 15:38:07 2020.

 ----------------------------------------------------------------------
 # B3LYP/6-311++G(d,p) empiricaldispersion=gd3bj scf=xqc pop=npa geom=c
 heck
 ----------------------------------------------------------------------

 --------------------------------------
 CID_33675845_JID_5322_Energie_neutraal
 --------------------------------------
 Structure from the checkpoint file:  "JID_5322.chk"
 Charge =  0 Multiplicity = 1

 SCF Done:  E(RB3LYP) =  -737.384486972     A.U. after   15 cycles
 Normal termination of Gaussian 16 at Thu Dec 10 15:41:09 2020.

 ----------------------------------------------------------------------
 # B3LYP/6-311++G(d,p) empiricaldispersion=gd3bj scf=xqc pop=npa geom=c
 heck
 ----------------------------------------------------------------------

 ------------------------------------
 CID_33675845_JID_5322_Energie_kation
 ------------------------------------
 Structure from the checkpoint file:  "JID_5322.chk"
 Charge =  1 Multiplicity = 2

 SCF Done:  E(UB3LYP) =  -737.056547717     A.U. after   27 cycles
 Normal termination of Gaussian 16 at Thu Dec 10 15:48:14 2020.
 Gaussian 16:  ES64L-G16RevA.03 25-Dec-2016

 ----------------------------------------------------------------------
 # B3LYP/6-311++G(d,p) empiricaldispersion=gd3bj scf=xqc pop=npa geom=c
 heck
 ----------------------------------------------------------------------

 -----------------------------------
 CID_33675845_JID_5322_Energie_anion
 -----------------------------------
 Structure from the checkpoint file:  "JID_5322.chk"
 Charge = -1 Multiplicity = 2

                         Standard orientation:
 ---------------------------------------------------------------------
 Center     Atomic      Atomic             Coordinates (Angstroms)
 Number     Number       Type             X           Y           Z
 ---------------------------------------------------------------------
      1          6           0        3.418122    1.304597    0.210908
      2          6           0        2.087387    1.543499   -0.081081
      3          6           0        1.220943    0.447028   -0.181557
      4          6           0        1.730601   -0.857778    0.022735
      5          7           0        3.027570   -1.084171    0.308197
      6          6           0        3.829062   -0.028187    0.394275
      7          7           0        0.915960   -1.976494   -0.056677
      8          6           0       -0.325420   -1.775654   -0.335784
      9          7           0       -0.917951   -0.557121   -0.575565
     10          6           0       -0.195392    0.646894   -0.481050
     11          8           0       -0.758437    1.721814   -0.644219
     12          6           0       -2.342158   -0.439499   -0.840553
     13          6           0       -3.147283    0.131342    0.320642
     14          8           0       -4.249826    0.604059    0.191489
     15          8           0       -2.514637   -0.008567    1.503846
     16          1           0        4.134376    2.114755    0.298984
     17          1           0        1.691015    2.541898   -0.234872
     18          1           0        4.871289   -0.243854    0.624903
     19          1           0       -0.998916   -2.627992   -0.403706
     20          1           0       -2.506826    0.215874   -1.696601
     21          1           0       -2.739385   -1.430921   -1.077510
     22          1           0       -3.102584    0.382852    2.176980
 ---------------------------------------------------------------------

 SCF Done:  E(UB3LYP) =  -737.400515075     A.U. after   33 cycles
 SCF Done:  E(UB3LYP) =  -737.400515075     a.u. after    1 cycles

 The electronic state is 2-A.
 Alpha  occ. eigenvalues --  -19.08688 -19.02987 -18.94210 -14.24371 -14.16147
 Alpha  occ. eigenvalues --  -14.13211 -10.22155 -10.12891 -10.11718 -10.11406
 Alpha  occ. eigenvalues --  -10.08914 -10.04278 -10.03313 -10.02355 -10.01212
 Alpha  occ. eigenvalues --   -1.02736  -0.93948  -0.90996  -0.85064  -0.80236
 Alpha  occ. eigenvalues --   -0.75501  -0.66404  -0.64194  -0.61732  -0.54198
 Alpha  occ. eigenvalues --   -0.53700  -0.50586  -0.46625  -0.42824  -0.41495
 Alpha  occ. eigenvalues --   -0.40539  -0.39620  -0.37584  -0.36991  -0.33394
 Alpha  occ. eigenvalues --   -0.32810  -0.31663  -0.31244  -0.30112  -0.29442
 Alpha  occ. eigenvalues --   -0.27827  -0.25017  -0.24898  -0.24212  -0.23038
 Alpha  occ. eigenvalues --   -0.22707  -0.20350  -0.15430  -0.14587  -0.13686
 Alpha  occ. eigenvalues --   -0.12733  -0.10061  -0.09833   0.04613
 Alpha virt. eigenvalues --    0.07071   0.07913   0.09233   0.09698   0.09798
 Alpha virt. eigenvalues --    0.11188   0.11824   0.12522   0.13806   0.14370
 Alpha virt. eigenvalues --    0.14886   0.15702   0.15989   0.16650   0.17325

  Beta  occ. eigenvalues --  -19.08685 -19.02987 -18.93947 -14.24455 -14.16002
  Beta  occ. eigenvalues --  -14.12792 -10.22153 -10.12890 -10.11420 -10.11278
  Beta  occ. eigenvalues --  -10.08972 -10.04049 -10.03386 -10.02393 -10.00730
  Beta  occ. eigenvalues --   -1.02733  -0.93946  -0.90636  -0.84791  -0.79897
  Beta  occ. eigenvalues --   -0.75059  -0.66044  -0.63861  -0.61358  -0.53985
  Beta  occ. eigenvalues --   -0.53448  -0.50327  -0.46104  -0.42722  -0.41301
  Beta  occ. eigenvalues --   -0.40524  -0.39333  -0.37452  -0.36950  -0.33160
  Beta  occ. eigenvalues --   -0.32649  -0.31553  -0.31095  -0.29670  -0.29117
  Beta  occ. eigenvalues --   -0.27517  -0.24730  -0.24184  -0.23793  -0.22480
  Beta  occ. eigenvalues --   -0.21871  -0.20101  -0.14642  -0.14332  -0.12529
  Beta  occ. eigenvalues --   -0.11625  -0.09638  -0.08809
  Beta virt. eigenvalues --    0.07038   0.07951   0.09203   0.09734   0.10012
  Beta virt. eigenvalues --    0.10928   0.11185   0.11777   0.12489   0.13832
  Beta virt. eigenvalues --    0.14393   0.15317   0.15833   0.16539   0.17092

 Mulliken charges and spin densities:
               1          2
     1  C   -0.306596   0.029799
     2  C   -0.248399   0.378076
     3  C    1.556333  -0.070471
     4  C   -1.064487  -0.041490
     5  N   -0.104561   0.183174
     6  C   -0.130224   0.173153
     7  N   -0.119032   0.064918
     8  C    0.131842   0.097501
     9  N    0.138891  -0.047602
    10  C   -0.982068   0.158825
    11  O   -0.406733   0.104319
    12  C   -0.439895   0.016291
    13  C    0.153960   0.001159
    14  O   -0.285526  -0.002855
    15  O   -0.149112  -0.003113
    16  H    0.114341   0.002759
    17  H    0.160980  -0.032289
    18  H    0.138496  -0.017292
    19  H    0.155355  -0.009774
    20  H    0.260887  -0.000202
    21  H    0.147144   0.001103
    22  H    0.278403   0.014010
 Sum of Mulliken charges =  -1.00000   1.00000

 Dipole moment (field-independent basis, Debye):
    X=             -5.8018    Y=             -0.7507    Z=              0.5601  Tot=              5.8769
 Quadrupole moment (field-independent basis, Debye-Ang):
   XX=           -129.3142   YY=           -108.6722   ZZ=            -88.3780
   XY=             16.4400   XZ=             -4.9171   YZ=              5.3401

 Summary of Natural Population Analysis:

                                       Natural Population
                Natural  -----------------------------------------------
    Atom  No    Charge         Core      Valence    Rydberg      Total
 -----------------------------------------------------------------------
      C    1   -0.14328      0.99957     2.13475    0.00896     3.14328
      C    2    0.01939      0.99955     1.97163    0.00943     2.98061
      C    3   -0.11381      0.99944     2.10597    0.00840     3.11381
      C    4    0.17332      0.99948     1.80478    0.02242     2.82668
      N    5   -0.18892      0.99967     2.67698    0.01227     3.68892
      C    6    0.07333      0.99962     1.91181    0.01524     2.92667
      N    7   -0.23392      0.99967     2.72244    0.01180     3.73392
      C    8    0.17396      0.99965     1.81088    0.01552     2.82604
      N    9   -0.25594      0.99963     2.74585    0.01046     3.75594
      C   10    0.37346      0.99960     1.60589    0.02105     2.62654
      O   11   -0.30982      0.99988     3.30442    0.00553     4.30982
      C   12   -0.13086      0.99957     2.12033    0.01096     3.13086
      C   13    0.40802      0.99974     1.56740    0.02484     2.59198
      O   14   -0.31094      0.99987     3.30420    0.00688     4.31094
      O   15   -0.33496      0.99987     3.32811    0.00697     4.33496
      H   16    0.09085      0.00000     0.40795    0.00121     0.40915
      H   17    0.09808      0.00000     0.40077    0.00115     0.40192
      H   18    0.07384      0.00000     0.42468    0.00147     0.42616
      H   19    0.07402      0.00000     0.42469    0.00129     0.42598
      H   20    0.12088      0.00000     0.37793    0.00118     0.37912
      H   21    0.10721      0.00000     0.39170    0.00109     0.39279
      H   22    0.23610      0.00000     0.25936    0.00454     0.26390
 =======================================================================
   * Total *    0.00000     14.99481    37.80252    0.20267    53.00000

 Normal termination of Gaussian 16 at Thu Dec 10 15:57:09 2020.
