 Gaussian 16, Revision A.03,

 -----------------------------------------------------------
 # opt freq B3LYP/6-31G(d) empiricaldispersion=gd3bj scf=xqc
 -----------------------------------------------------------

 ------------------------------
 CID_46835403_JID_9651_neutraal
 ------------------------------
 Symbolic Z-matrix:
 Charge =  0 Multiplicity = 1

 SCF Done:  E(RB3LYP) =  -822.814693277     A.U. after   15 cycles
 SCF Done:  E(RB3LYP) =  -822.818934252     A.U. after   12 cycles
 SCF Done:  E(RB3LYP) =  -822.819464327     A.U. after   13 cycles
 SCF Done:  E(RB3LYP) =  -822.819742504     A.U. after   11 cycles
 SCF Done:  E(RB3LYP) =  -822.819652177     A.U. after   11 cycles
 SCF Done:  E(RB3LYP) =  -822.819831259     A.U. after   11 cycles
 SCF Done:  E(RB3LYP) =  -822.819848290     A.U. after   10 cycles
 SCF Done:  E(RB3LYP) =  -822.819861325     A.U. after   10 cycles
 SCF Done:  E(RB3LYP) =  -822.819870508     A.U. after   11 cycles
 SCF Done:  E(RB3LYP) =  -822.819874414     A.U. after   11 cycles
 SCF Done:  E(RB3LYP) =  -822.819966173     A.U. after   11 cycles
 SCF Done:  E(RB3LYP) =  -822.819966926     A.U. after   10 cycles
 SCF Done:  E(RB3LYP) =  -822.819967387     A.U. after   10 cycles
 SCF Done:  E(RB3LYP) =  -822.819967022     A.U. after   10 cycles
 SCF Done:  E(RB3LYP) =  -822.819967487     A.U. after    9 cycles
 Optimization completed.
    -- Stationary point found.
 Normal termination of Gaussian 16 at Sat Dec 12 10:11:38 2020.

 --------------------------------------------------------------------
 #N Geom=AllCheck Guess=TCheck SCRF=Check GenChk RB3LYP/6-31G(d) Freq
 --------------------------------------------------------------------

 Structure from the checkpoint file:  "JID_9651.chk"
 ------------------------------
 CID_46835403_JID_9651_neutraal
 ------------------------------
 Charge =  0 Multiplicity = 1

 SCF Done:  E(RB3LYP) =  -822.819967487     A.U. after    1 cycles

  Exact polarizability: 257.476  -5.552 171.295  25.596   7.550 104.153
 Approx polarizability: 369.567 -13.978 309.680  46.848  12.259 162.058

                      1                      2                      3
                      A                      A                      A
 Frequencies --     17.2819                28.7689                36.0543
 Red. masses --      6.6464                 8.2011                 5.9865
 Frc consts  --      0.0012                 0.0040                 0.0046
 IR Inten    --      0.5203                 1.6181                 1.9920

                      4                      5                      6
                      A                      A                      A
 Frequencies --     61.1190                93.2686               110.0328
 Red. masses --      4.6923                 4.5198                 5.8919
 Frc consts  --      0.0103                 0.0232                 0.0420
 IR Inten    --      0.1882                 0.4716                 0.6146

                      7                      8                      9
                      A                      A                      A
 Frequencies --    192.7940               216.8512               223.9714
 Red. masses --      4.7400                 5.4455                 4.2661
 Frc consts  --      0.1038                 0.1509                 0.1261
 IR Inten    --      0.2642                 0.3466                 3.9876

                     10                     11                     12
                      A                      A                      A
 Frequencies --    250.0773               286.5803               347.9865
 Red. masses --      4.3085                 4.7704                 5.8382
 Frc consts  --      0.1588                 0.2308                 0.4165
 IR Inten    --      0.7075                 0.4085                 1.2608

                     13                     14                     15
                      A                      A                      A
 Frequencies --    394.4540               426.8183               437.0124
 Red. masses --      4.7151                 2.3322                 3.1297
 Frc consts  --      0.4322                 0.2503                 0.3522
 IR Inten    --      0.2595                 5.6025                 5.2273

                     16                     17                     18
                      A                      A                      A
 Frequencies --    453.3889               481.6817               505.6356
 Red. masses --      3.3320                 3.5929                 3.8607
 Frc consts  --      0.4036                 0.4911                 0.5816
 IR Inten    --      0.3440                 1.7268                 7.2845

                     19                     20                     21
                      A                      A                      A
 Frequencies --    555.0573               585.7543               589.7446
 Red. masses --      5.4280                 3.9471                 4.3834
 Frc consts  --      0.9853                 0.7979                 0.8982
 IR Inten    --      3.6133                 2.8383                47.7432

                     22                     23                     24
                      A                      A                      A
 Frequencies --    609.3216               614.2884               629.8972
 Red. masses --      3.9913                 3.6274                 6.1149
 Frc consts  --      0.8731                 0.8065                 1.4295
 IR Inten    --      5.0687                17.5419                 4.8010

                     25                     26                     27
                      A                      A                      A
 Frequencies --    665.5167               704.4375               715.1477
 Red. masses --      1.8500                 4.0862                 2.3138
 Frc consts  --      0.4828                 1.1947                 0.6972
 IR Inten    --     61.0107                44.0470                25.5968

                     28                     29                     30
                      A                      A                      A
 Frequencies --    727.2716               757.7634               776.7471
 Red. masses --      1.3712                 1.3058                 3.2628
 Frc consts  --      0.4273                 0.4418                 1.1598
 IR Inten    --     17.9311                54.0102                41.4387

                     31                     32                     33
                      A                      A                      A
 Frequencies --    781.3720               793.2921               815.4619
 Red. masses --      3.2291                 4.3788                 1.6747
 Frc consts  --      1.1616                 1.6236                 0.6561
 IR Inten    --      2.8244                 5.8833                16.4714

                     34                     35                     36
                      A                      A                      A
 Frequencies --    849.8467               866.2950               871.2505
 Red. masses --      1.2861                 1.5339                 3.4855
 Frc consts  --      0.5473                 0.6782                 1.5589
 IR Inten    --      1.6141                 2.9192                11.1744

                     37                     38                     39
                      A                      A                      A
 Frequencies --    884.2190               902.0601               918.1374
 Red. masses --      2.0948                 4.6271                 1.8076
 Frc consts  --      0.9649                 2.2184                 0.8978
 IR Inten    --      3.4598                10.6667                 5.3864

                     40                     41                     42
                      A                      A                      A
 Frequencies --    927.9229               936.2989               961.6847
 Red. masses --      1.5789                 1.4793                 1.9775
 Frc consts  --      0.8010                 0.7641                 1.0775
 IR Inten    --      0.6942                 1.8214                17.8316

                     43                     44                     45
                      A                      A                      A
 Frequencies --    970.0719               986.5805              1022.7328
 Red. masses --      1.2329                 1.2755                 5.4037
 Frc consts  --      0.6836                 0.7315                 3.3301
 IR Inten    --      0.1984                 1.1753                 2.1572

                     46                     47                     48
                      A                      A                      A
 Frequencies --   1026.5452              1049.7619              1100.9664
 Red. masses --      2.8431                 2.1818                 1.4330
 Frc consts  --      1.7652                 1.4166                 1.0234
 IR Inten    --      3.9425                 7.4723                 4.4286

                     49                     50                     51
                      A                      A                      A
 Frequencies --   1122.8207              1137.5597              1149.3762
 Red. masses --      1.7133                 1.9546                 1.5215
 Frc consts  --      1.2726                 1.4902                 1.1842
 IR Inten    --      7.4212                22.9956               109.5383

                     52                     53                     54
                      A                      A                      A
 Frequencies --   1164.9080              1190.6501              1207.6177
 Red. masses --      1.5355                 1.1447                 1.1520
 Frc consts  --      1.2277                 0.9561                 0.9898
 IR Inten    --     21.4368                 0.4983                 0.0119

                     55                     56                     57
                      A                      A                      A
 Frequencies --   1216.1181              1247.8578              1249.4240
 Red. masses --      1.8525                 2.3622                 1.5371
 Frc consts  --      1.6142                 2.1672                 1.4137
 IR Inten    --     19.5085                56.8227                98.2227

                     58                     59                     60
                      A                      A                      A
 Frequencies --   1277.5867              1320.3584              1325.9425
 Red. masses --      2.1383                 1.7506                 1.6227
 Frc consts  --      2.0564                 1.7982                 1.6809
 IR Inten    --     13.2462                 2.3599                 2.7474

                     61                     62                     63
                      A                      A                      A
 Frequencies --   1354.0532              1366.6536              1374.9833
 Red. masses --      2.3147                 2.7292                 2.4862
 Frc consts  --      2.5004                 3.0033                 2.7694
 IR Inten    --     13.1488                 1.5043                59.3858

                     64                     65                     66
                      A                      A                      A
 Frequencies --   1395.6903              1402.8887              1431.7486
 Red. masses --      3.4549                 2.7136                 3.8173
 Frc consts  --      3.9652                 3.1466                 4.6104
 IR Inten    --     28.7552                91.9554                 4.5551

                     67                     68                     69
                      A                      A                      A
 Frequencies --   1496.9392              1505.2003              1505.4875
 Red. masses --      2.6534                 2.1789                 1.3201
 Frc consts  --      3.5031                 2.9086                 1.7628
 IR Inten    --     23.0056                58.6154                56.2759

                     70                     71                     72
                      A                      A                      A
 Frequencies --   1529.7263              1546.5122              1577.0284
 Red. masses --      3.0254                 2.6444                 4.5469
 Frc consts  --      4.1712                 3.7263                 6.6626
 IR Inten    --     36.6313               110.7695                50.6358

                     73                     74                     75
                      A                      A                      A
 Frequencies --   1631.3812              1648.4578              1665.9182
 Red. masses --      5.9665                 5.9139                 6.0051
 Frc consts  --      9.3558                 9.4685                 9.8192
 IR Inten    --      2.5455                31.8708               116.1362

                     76                     77                     78
                      A                      A                      A
 Frequencies --   1671.3812              1846.0218              3086.6012
 Red. masses --      6.4866                 9.5977                 1.0596
 Frc consts  --     10.6763                19.2704                 5.9479
 IR Inten    --      0.8971               260.7175                 9.6340

                     79                     80                     81
                      A                      A                      A
 Frequencies --   3142.7845              3183.7037              3194.1526
 Red. masses --      1.1056                 1.0854                 1.0897
 Frc consts  --      6.4338                 6.4817                 6.5505
 IR Inten    --      5.7391                 0.5369                15.1918

                     82                     83                     84
                      A                      A                      A
 Frequencies --   3196.7067              3203.9836              3206.9513
 Red. masses --      1.0875                 1.0907                 1.0946
 Frc consts  --      6.5474                 6.5971                 6.6329
 IR Inten    --     12.2243                 4.1368                44.2425

                     85                     86                     87
                      A                      A                      A
 Frequencies --   3214.4360              3220.8922              3229.2583
 Red. masses --      1.0931                 1.0946                 1.0937
 Frc consts  --      6.6545                 6.6902                 6.7196
 IR Inten    --      6.6363                 6.6310                 5.7675

                     88                     89                     90
                      A                      A                      A
 Frequencies --   3260.3680              3283.2095              3680.9214
 Red. masses --      1.0903                 1.1028                 1.0639
 Frc consts  --      6.8287                 7.0039                 8.4929
 IR Inten    --      2.7690                 2.3215                49.6324

 - Thermochemistry -
 -------------------
 Temperature   298.150 Kelvin.  Pressure   1.00000 Atm.
 Atom     1 has atomic number  6 and mass  12.00000

 Molecular mass:   251.09463 amu.
 Principal axes and moments of inertia in atomic units:
                           1         2         3
     Eigenvalues --  2036.59308********************
           X            0.99998   0.00265   0.00566
           Y           -0.00279   0.99970   0.02448
           Z           -0.00559  -0.02449   0.99968
 This molecule is an asymmetric top.
 Rotational symmetry number  1.
 Warning -- assumption of classical behavior for rotation
           may cause significant error
 Rotational temperatures (Kelvin)      0.04253     0.00851     0.00822
 Rotational constants (GHZ):           0.88616     0.17728     0.17129
 Zero-point vibrational energy     668853.0 (Joules/Mol)
                                  159.85970 (Kcal/Mol)
 Warning -- explicit consideration of  23 degrees of freedom as
           vibrations may cause significant error
 Vibrational temperatures:     24.86    41.39    51.87    87.94   134.19
          (Kelvin)            158.31   277.39   312.00   322.24   359.81
                              412.33   500.67   567.53   614.10   628.76
                              652.33   693.03   727.50   798.60   842.77
                              848.51   876.68   883.82   906.28   957.53
                             1013.53  1028.94  1046.38  1090.25  1117.57
                             1124.22  1141.37  1173.27  1222.74  1246.41
                             1253.54  1272.19  1297.86  1320.99  1335.07
                             1347.13  1383.65  1395.72  1419.47  1471.48
                             1476.97  1510.37  1584.05  1615.49  1636.69
                             1653.70  1676.04  1713.08  1737.49  1749.72
                             1795.39  1797.64  1838.16  1899.70  1907.74
                             1948.18  1966.31  1978.29  2008.09  2018.44
                             2059.97  2153.76  2165.65  2166.06  2200.93
                             2225.09  2268.99  2347.19  2371.76  2396.88
                             2404.74  2656.01  4440.93  4521.77  4580.64
                             4595.67  4599.35  4609.82  4614.09  4624.86
                             4634.15  4646.18  4690.94  4723.81  5296.02

 Zero-point correction=                           0.254753 (Hartree/Particle)
 Thermal correction to Energy=                    0.269822
 Thermal correction to Enthalpy=                  0.270767
 Thermal correction to Gibbs Free Energy=         0.209649
 Sum of electronic and zero-point Energies=           -822.565215
 Sum of electronic and thermal Energies=              -822.550145
 Sum of electronic and thermal Enthalpies=            -822.549201
 Sum of electronic and thermal Free Energies=         -822.610318

                     E (Thermal)             CV                S
                      KCal/Mol        Cal/Mol-Kelvin    Cal/Mol-Kelvin
 Total                  169.316             59.605            128.632
 Electronic               0.000              0.000              0.000
 Translational            0.889              2.981             42.462
 Rotational               0.889              2.981             33.746
 Vibrational            167.539             53.643             52.424
 Vibration     1          0.593              1.986              6.924
 Vibration     2          0.593              1.984              5.913
 Vibration     3          0.594              1.982              5.465
 Vibration     4          0.597              1.973              4.421
 Vibration     5          0.602              1.954              3.590
 Vibration     6          0.606              1.941              3.268
 Vibration     7          0.635              1.850              2.201
 Vibration     8          0.646              1.815              1.985
 Vibration     9          0.649              1.805              1.927
 Vibration    10          0.663              1.763              1.730
 Vibration    11          0.684              1.699              1.494
 Vibration    12          0.726              1.579              1.175
 Vibration    13          0.761              1.482              0.983
 Vibration    14          0.788              1.412              0.869
 Vibration    15          0.797              1.390              0.836
 Vibration    16          0.812              1.353              0.786
 Vibration    17          0.838              1.291              0.706
 Vibration    18          0.861              1.238              0.644
 Vibration    19          0.910              1.129              0.534
 Vibration    20          0.943              1.062              0.475
 Vibration    21          0.947              1.054              0.468
 Vibration    22          0.968              1.012              0.434
 Vibration    23          0.974              1.002              0.426

 Optimization completed.
    -- Stationary point found.
 Normal termination of Gaussian 16 at Sat Dec 12 10:25:15 2020.

 ----------------------------------------------------------------------
 # B3LYP/6-311++G(d,p) empiricaldispersion=gd3bj scf=xqc pop=npa geom=c
 heck
 ----------------------------------------------------------------------

 --------------------------------------
 CID_46835403_JID_9651_Energie_neutraal
 --------------------------------------
 Structure from the checkpoint file:  "JID_9651.chk"
 Charge =  0 Multiplicity = 1

 SCF Done:  E(RB3LYP) =  -823.043463791     A.U. after   15 cycles
 Normal termination of Gaussian 16 at Sat Dec 12 10:30:59 2020.

 ----------------------------------------------------------------------
 # B3LYP/6-311++G(d,p) empiricaldispersion=gd3bj scf=xqc pop=npa geom=c
 heck
 ----------------------------------------------------------------------

 ------------------------------------
 CID_46835403_JID_9651_Energie_kation
 ------------------------------------
 Structure from the checkpoint file:  "JID_9651.chk"
 Charge =  1 Multiplicity = 2

 SCF Done:  E(UB3LYP) =  -822.772584749     A.U. after   25 cycles
 Normal termination of Gaussian 16 at Sat Dec 12 10:44:25 2020.
 Gaussian 16:  ES64L-G16RevA.03 25-Dec-2016

 ----------------------------------------------------------------------
 # B3LYP/6-311++G(d,p) empiricaldispersion=gd3bj scf=xqc pop=npa geom=c
 heck
 ----------------------------------------------------------------------

 -----------------------------------
 CID_46835403_JID_9651_Energie_anion
 -----------------------------------
 Structure from the checkpoint file:  "JID_9651.chk"
 Charge = -1 Multiplicity = 2

                         Standard orientation:
 ---------------------------------------------------------------------
 Center     Atomic      Atomic             Coordinates (Angstroms)
 Number     Number       Type             X           Y           Z
 ---------------------------------------------------------------------
      1          6           0        4.848008    0.754630    1.092605
      2          6           0        3.778321    1.670696    1.126170
      3          6           0        2.531393    1.346296    0.603431
      4          6           0        2.378482    0.077895    0.034671
      5          6           0        3.438221   -0.871261    0.013883
      6          6           0        4.686304   -0.512046    0.547410
      7          6           0        2.917416   -2.070212   -0.584060
      8          6           0        1.608468   -1.831374   -0.894329
      9          7           0        1.260927   -0.531122   -0.534690
     10          6           0       -0.017669    0.042031   -0.721420
     11          6           0       -0.148436    1.336273   -1.235062
     12          6           0       -1.420210    1.878891   -1.412602
     13          6           0       -2.559098    1.136348   -1.108063
     14          6           0       -2.431950   -0.166849   -0.611896
     15          6           0       -1.160600   -0.702137   -0.406190
     16          6           0       -3.671060   -0.974989   -0.266563
     17          6           0       -4.433592   -0.303509    0.858993
     18          8           0       -5.242198    0.586922    0.719602
     19          8           0       -4.069362   -0.785452    2.070156
     20          1           0        5.809364    1.043743    1.507400
     21          1           0        3.927316    2.649702    1.572392
     22          1           0        1.706739    2.048992    0.647583
     23          1           0        5.509424   -1.221337    0.538219
     24          1           0        3.456629   -2.988747   -0.769139
     25          1           0        0.877540   -2.459361   -1.382509
     26          1           0        0.738085    1.896255   -1.510297
     27          1           0       -1.521387    2.885132   -1.808529
     28          1           0       -3.548464    1.563099   -1.240381
     29          1           0       -1.047960   -1.694776    0.018830
     30          1           0       -4.344052   -1.024589   -1.127734
     31          1           0       -3.395063   -1.990354    0.026734
     32          1           0       -4.566173   -0.265759    2.730326
 ---------------------------------------------------------------------

 SCF Done:  E(UB3LYP) =  -823.035777493     A.U. after   33 cycles
 SCF Done:  E(UB3LYP) =  -823.035777493     a.u. after    1 cycles

 The electronic state is 2-A.
 Alpha  occ. eigenvalues --  -19.06243 -19.00133 -14.26058 -10.18809 -10.10394
 Alpha  occ. eigenvalues --  -10.10260 -10.09702 -10.07413 -10.07362 -10.07338
 Alpha  occ. eigenvalues --  -10.07230 -10.07123 -10.07056 -10.07042 -10.06749
 Alpha  occ. eigenvalues --  -10.06487 -10.06037 -10.05787 -10.05186  -1.00047
 Alpha  occ. eigenvalues --   -0.91007  -0.88863  -0.76124  -0.74103  -0.69982
 Alpha  occ. eigenvalues --   -0.67216  -0.65341  -0.62483  -0.61831  -0.60287
 Alpha  occ. eigenvalues --   -0.53126  -0.51732  -0.51221  -0.49326  -0.47608
 Alpha  occ. eigenvalues --   -0.46355  -0.42956  -0.39611  -0.38711  -0.38447
 Alpha  occ. eigenvalues --   -0.37570  -0.37369  -0.35631  -0.35547  -0.33986
 Alpha  occ. eigenvalues --   -0.33837  -0.32594  -0.32327  -0.30958  -0.29866
 Alpha  occ. eigenvalues --   -0.29449  -0.29300  -0.28512  -0.26743  -0.25908
 Alpha  occ. eigenvalues --   -0.25288  -0.24247  -0.24084  -0.23139  -0.21800
 Alpha  occ. eigenvalues --   -0.18809  -0.17500  -0.15363  -0.14340  -0.12647
 Alpha  occ. eigenvalues --   -0.10526   0.04777
 Alpha virt. eigenvalues --    0.06759   0.06861   0.07219   0.07708   0.08316
 Alpha virt. eigenvalues --    0.08444   0.09051   0.09377   0.10279   0.10550
 Alpha virt. eigenvalues --    0.11062   0.11244   0.11528   0.11731   0.12756

  Beta  occ. eigenvalues --  -19.06199 -19.00084 -14.26072 -10.18675 -10.10383
  Beta  occ. eigenvalues --  -10.10158 -10.09583 -10.07374 -10.07362 -10.07320
  Beta  occ. eigenvalues --  -10.07247 -10.07086 -10.06993 -10.06906 -10.06793
  Beta  occ. eigenvalues --  -10.06512 -10.06023 -10.05633 -10.05057  -0.99920
  Beta  occ. eigenvalues --   -0.90909  -0.88796  -0.75966  -0.73981  -0.69806
  Beta  occ. eigenvalues --   -0.67037  -0.65241  -0.62337  -0.61738  -0.60039
  Beta  occ. eigenvalues --   -0.53005  -0.51621  -0.50988  -0.49235  -0.47512
  Beta  occ. eigenvalues --   -0.46235  -0.42831  -0.39516  -0.38571  -0.38338
  Beta  occ. eigenvalues --   -0.37504  -0.37261  -0.35444  -0.35313  -0.33894
  Beta  occ. eigenvalues --   -0.33681  -0.32519  -0.32235  -0.30867  -0.29780
  Beta  occ. eigenvalues --   -0.29298  -0.29118  -0.28417  -0.26680  -0.25638
  Beta  occ. eigenvalues --   -0.25151  -0.24135  -0.23920  -0.22948  -0.21540
  Beta  occ. eigenvalues --   -0.18494  -0.17365  -0.14968  -0.13770  -0.12153
  Beta  occ. eigenvalues --   -0.10173
  Beta virt. eigenvalues --    0.06750   0.07371   0.07564   0.07740   0.08206
  Beta virt. eigenvalues --    0.08511   0.08754   0.09093   0.09811   0.10641
  Beta virt. eigenvalues --    0.10729   0.11299   0.11504   0.11821   0.12128

 Mulliken charges and spin densities:
               1          2
     1  C   -0.265787  -0.016340
     2  C   -0.438390   0.028213
     3  C   -0.026264   0.000420
     4  C    0.072865  -0.040429
     5  C   -0.052791   0.007904
     6  C   -0.454197   0.032266
     7  C   -0.115483  -0.182531
     8  C    0.025707   0.064503
     9  N    0.529316  -0.028648
    10  C   -0.115559  -0.088121
    11  C    0.039741   0.075712
    12  C   -0.317322  -0.147221
    13  C   -0.702608   0.834264
    14  C   -0.535403   1.799363
    15  C   -0.305384  -0.702082
    16  C    1.843806  -2.444650
    17  C    0.196376  -0.265437
    18  O   -0.328834   0.046148
    19  O   -0.209106   0.048449
    20  H    0.112464   0.006680
    21  H    0.114869   0.018504
    22  H    0.139499   0.028695
    23  H    0.121070  -0.000321
    24  H    0.117827   0.024352
    25  H   -0.003374   0.150011
    26  H    0.158666  -0.019513
    27  H    0.096307   0.050216
    28  H    0.043804   0.133164
    29  H   -0.033838   0.216953
    30  H   -0.434694   0.642393
    31  H   -0.293897   0.469295
    32  H    0.020612   0.257788
 Sum of Mulliken charges =  -1.00000   1.00000

 Dipole moment (field-independent basis, Debye):
    X=              7.1915    Y=              1.5640    Z=              0.1751  Tot=              7.3616
 Quadrupole moment (field-independent basis, Debye-Ang):
   XX=           -201.1731   YY=           -130.4856   ZZ=           -133.1762
   XY=             -5.5494   XZ=             -2.1154   YZ=              1.6732

 Summary of Natural Population Analysis:

                                       Natural Population
                Natural  -----------------------------------------------
    Atom  No    Charge         Core      Valence    Rydberg      Total
 -----------------------------------------------------------------------
      C    1   -0.12443      0.99958     2.11548    0.00936     3.12443
      C    2   -0.10127      0.99959     2.09215    0.00953     3.10127
      C    3   -0.11541      0.99953     2.10766    0.00822     3.11541
      C    4    0.08871      0.99947     1.90161    0.01021     2.91129
      C    5   -0.04130      0.99950     2.03375    0.00805     3.04130
      C    6   -0.09155      0.99953     2.08360    0.00841     3.09155
      C    7   -0.14686      0.99954     2.13904    0.00828     3.14686
      C    8    0.02881      0.99957     1.96021    0.01141     2.97119
      N    9   -0.20802      0.99960     2.69921    0.00921     3.70802
      C   10    0.09325      0.99947     1.89620    0.01107     2.90675
      C   11   -0.08917      0.99953     2.08214    0.00751     3.08917
      C   12   -0.10406      0.99957     2.09523    0.00925     3.10406
      C   13   -0.08310      0.99951     2.07375    0.00984     3.08310
      C   14    0.00966      0.99950     1.98094    0.00990     2.99034
      C   15   -0.11209      0.99948     2.10364    0.00898     3.11209
      C   16   -0.24355      0.99955     2.23372    0.01028     3.24355
      C   17    0.42593      0.99973     1.54855    0.02579     2.57407
      O   18   -0.31176      0.99987     3.30580    0.00610     4.31176
      O   19   -0.34415      0.99988     3.33795    0.00632     4.34415
      H   20    0.09406      0.00000     0.40494    0.00100     0.40594
      H   21    0.09426      0.00000     0.40443    0.00131     0.40574
      H   22    0.10801      0.00000     0.39075    0.00124     0.39199
      H   23    0.09477      0.00000     0.40393    0.00129     0.40523
      H   24    0.10209      0.00000     0.39705    0.00086     0.39791
      H   25    0.10202      0.00000     0.39707    0.00090     0.39798
      H   26    0.10074      0.00000     0.39824    0.00102     0.39926
      H   27    0.09639      0.00000     0.40282    0.00079     0.40361
      H   28    0.10548      0.00000     0.39356    0.00096     0.39452
      H   29    0.10467      0.00000     0.39417    0.00116     0.39533
      H   30    0.11940      0.00000     0.37663    0.00398     0.38060
      H   31    0.11184      0.00000     0.38595    0.00222     0.38816
      H   32    0.23662      0.00000     0.25955    0.00383     0.26338
 =======================================================================
   * Total *   -0.00000     18.99200    46.79972    0.20828    66.00000

 Normal termination of Gaussian 16 at Sat Dec 12 11:02:49 2020.
