 Gaussian 16, Revision A.03,

 -----------------------------------------------------------
 # opt freq B3LYP/6-31G(d) empiricaldispersion=gd3bj scf=xqc
 -----------------------------------------------------------

 -----------------------------
 CID_61279753_JID_454_neutraal
 -----------------------------
 Symbolic Z-matrix:
 Charge =  0 Multiplicity = 1

 SCF Done:  E(RB3LYP) =  -454.900477303     A.U. after   14 cycles
 SCF Done:  E(RB3LYP) =  -454.902550699     A.U. after   12 cycles
 SCF Done:  E(RB3LYP) =  -454.902981168     A.U. after   11 cycles
 SCF Done:  E(RB3LYP) =  -454.903073637     A.U. after   11 cycles
 SCF Done:  E(RB3LYP) =  -454.903171075     A.U. after   12 cycles
 SCF Done:  E(RB3LYP) =  -454.903182032     A.U. after   13 cycles
 SCF Done:  E(RB3LYP) =  -454.903394812     A.U. after   11 cycles
 SCF Done:  E(RB3LYP) =  -454.903929500     A.U. after   13 cycles
 SCF Done:  E(RB3LYP) =  -454.903825409     A.U. after   13 cycles
 SCF Done:  E(RB3LYP) =  -454.904033575     A.U. after   12 cycles
 SCF Done:  E(RB3LYP) =  -454.904040236     A.U. after   11 cycles
 SCF Done:  E(RB3LYP) =  -454.904048414     A.U. after   10 cycles
 SCF Done:  E(RB3LYP) =  -454.904049139     A.U. after    8 cycles
 SCF Done:  E(RB3LYP) =  -454.904049317     A.U. after    7 cycles
 SCF Done:  E(RB3LYP) =  -454.904049407     A.U. after    7 cycles
 Optimization completed.
    -- Stationary point found.

 1\1\GINC-NODE364\FOpt\RB3LYP\6-31G(d)\C6H12N4\VSC10255\13-Dec-2020\0\\
 # opt freq B3LYP/6-31G(d) empiricaldispersion=gd3bj scf=xqc\\CID_61279
 753_JID_454_neutraal\\0,1\C,-2.1320502154,-0.2716134256,0.4243123712\C
 ,-0.7101190235,-0.0554143517,0.026443494\N,0.067795409,0.952493089,0.3
 864914563\C,1.2636730163,0.6868167098,-0.2360418631\N,1.2667817798,-0.
 4244324542,-0.9590833286\N,-0.0035193417,-0.887119894,-0.7776304922\C,
 2.4518888452,1.6159381224,-0.0810303004\C,2.9651003821,1.5194895223,1.
 3658412076\C,3.5633014301,1.2527755201,-1.0691287741\N,2.0580666711,3.

 Normal termination of Gaussian 16 at Sun Dec 13 12:22:26 2020.

 --------------------------------------------------------------------
 #N Geom=AllCheck Guess=TCheck SCRF=Check GenChk RB3LYP/6-31G(d) Freq
 --------------------------------------------------------------------

 Structure from the checkpoint file:  "JID_454.chk"
 -----------------------------
 CID_61279753_JID_454_neutraal
 -----------------------------
 Charge =  0 Multiplicity = 1

 SCF Done:  E(RB3LYP) =  -454.904049407     A.U. after    1 cycles

  Exact polarizability: 108.837   0.135  82.381  -0.208  -0.599  64.616
 Approx polarizability: 141.302   4.460 137.275  -1.830  -3.307  93.147

 ******    1 imaginary frequencies (negative Signs) ******

                      1                      2                      3
                      A                      A                      A
 Frequencies --    -15.8983                35.2353               121.1185
 Red. masses --      1.0357                 4.0344                 3.3414
 Frc consts  --      0.0002                 0.0030                 0.0289
 IR Inten    --      0.0359                 0.3166                 2.1694

                      4                      5                      6
                      A                      A                      A
 Frequencies --    166.2070               229.3775               253.6379
 Red. masses --      3.1300                 1.0276                 2.8326
 Frc consts  --      0.0509                 0.0319                 0.1074
 IR Inten    --      0.3565                 2.6491                 3.2071

                      7                      8                      9
                      A                      A                      A
 Frequencies --    277.2998               304.7465               324.2606
 Red. masses --      1.1570                 2.1791                 1.4106
 Frc consts  --      0.0524                 0.1192                 0.0874
 IR Inten    --      0.1855                 5.0108                27.7341

                     10                     11                     12
                      A                      A                      A
 Frequencies --    340.4703               358.3913               386.8941
 Red. masses --      2.2080                 2.7397                 2.8946
 Frc consts  --      0.1508                 0.2073                 0.2553
 IR Inten    --     13.1106                 3.0567                 2.4900

                     13                     14                     15
                      A                      A                      A
 Frequencies --    464.5970               505.2411               518.0979
 Red. masses --      3.8126                 1.4378                 3.6118
 Frc consts  --      0.4849                 0.2162                 0.5712
 IR Inten    --      0.1107                88.2214                12.3072

                     16                     17                     18
                      A                      A                      A
 Frequencies --    598.1863               689.5011               717.3721
 Red. masses --      3.1382                 2.6157                 4.5877
 Frc consts  --      0.6616                 0.7327                 1.3910
 IR Inten    --      5.1473                15.7755                 8.3233

                     19                     20                     21
                      A                      A                      A
 Frequencies --    791.7541               870.4784               926.6420
 Red. masses --      7.9592                 2.6961                 1.9167
 Frc consts  --      2.9397                 1.2037                 0.9697
 IR Inten    --      2.0679                 1.8068               131.1490

                     22                     23                     24
                      A                      A                      A
 Frequencies --    961.3711              1000.2764              1015.8696
 Red. masses --      1.5210                 1.5185                 4.8560
 Frc consts  --      0.8283                 0.8952                 2.9526
 IR Inten    --      5.4742                 0.1044                 5.3875

                     25                     26                     27
                      A                      A                      A
 Frequencies --   1028.0043              1047.2887              1077.0491
 Red. masses --      1.3396                 1.4068                 1.5093
 Frc consts  --      0.8341                 0.9091                 1.0315
 IR Inten    --      2.0219                64.7348                 2.2178

                     28                     29                     30
                      A                      A                      A
 Frequencies --   1079.2960              1099.9961              1138.6572
 Red. masses --      3.6759                 1.8938                 3.6210
 Frc consts  --      2.5229                 1.3501                 2.7661
 IR Inten    --     22.1679                 1.0002                24.3044

                     31                     32                     33
                      A                      A                      A
 Frequencies --   1229.9043              1251.5175              1294.8364
 Red. masses --      2.7936                 2.8797                 2.4265
 Frc consts  --      2.4898                 2.6574                 2.3970
 IR Inten    --    101.4144                22.9940                 2.3505

                     34                     35                     36
                      A                      A                      A
 Frequencies --   1357.0167              1396.9061              1422.7765
 Red. masses --      1.9203                 2.5272                 1.3945
 Frc consts  --      2.0835                 2.9056                 1.6632
 IR Inten    --      7.4875                 5.3453                11.1417

                     37                     38                     39
                      A                      A                      A
 Frequencies --   1436.9060              1441.6587              1451.3143
 Red. masses --      1.4926                 1.2649                 2.2272
 Frc consts  --      1.8157                 1.5490                 2.7640
 IR Inten    --      4.9642                 9.8426                24.2842

                     40                     41                     42
                      A                      A                      A
 Frequencies --   1508.7577              1512.9506              1513.6653
 Red. masses --      1.9170                 1.0754                 1.0438
 Frc consts  --      2.5711                 1.4503                 1.4090
 IR Inten    --      6.9925                 4.8900                 7.1850

                     43                     44                     45
                      A                      A                      A
 Frequencies --   1516.0582              1524.9115              1530.3492
 Red. masses --      1.0948                 1.0774                 1.3793
 Frc consts  --      1.4826                 1.4761                 1.9032
 IR Inten    --      1.3562                 3.7857                 1.4224

                     46                     47                     48
                      A                      A                      A
 Frequencies --   1543.7540              1604.2740              1704.9799
 Red. masses --      1.4059                 4.8097                 1.0927
 Frc consts  --      1.9740                 7.2934                 1.8716
 IR Inten    --     13.0539                69.3162                25.2047

                     49                     50                     51
                      A                      A                      A
 Frequencies --   3055.2673              3055.8184              3062.8028
 Red. masses --      1.0338                 1.0393                 1.0365
 Frc consts  --      5.6858                 5.7180                 5.7287
 IR Inten    --     24.1722                21.2056                12.5922

                     52                     53                     54
                      A                      A                      A
 Frequencies --   3108.5553              3127.0577              3129.4732
 Red. masses --      1.1017                 1.1027                 1.1006
 Frc consts  --      6.2721                 6.3532                 6.3508
 IR Inten    --     13.0131                16.5664                31.4134

                     55                     56                     57
                      A                      A                      A
 Frequencies --   3137.4818              3150.1115              3167.3370
 Red. masses --      1.1036                 1.1036                 1.0988
 Frc consts  --      6.4006                 6.4520                 6.4947
 IR Inten    --     19.2580                28.3302                 3.3508

                     58                     59                     60
                      A                      A                      A
 Frequencies --   3445.5101              3529.3593              3651.4977
 Red. masses --      1.0500                 1.0910                 1.0815
 Frc consts  --      7.3444                 8.0066                 8.4964
 IR Inten    --      2.0256                 0.8313                53.2541

 - Thermochemistry -
 -------------------
 Temperature   298.150 Kelvin.  Pressure   1.00000 Atm.
 Atom     1 has atomic number  6 and mass  12.00000

 Molecular mass:   140.10620 amu.
 Principal axes and moments of inertia in atomic units:
                           1         2         3
     Eigenvalues --   650.197972065.208462320.65423
           X            0.99987  -0.01512   0.00606
           Y            0.01496   0.99957   0.02532
           Z           -0.00644  -0.02523   0.99966
 This molecule is an asymmetric top.
 Rotational symmetry number  1.
 Warning -- assumption of classical behavior for rotation
           may cause significant error
 Rotational temperatures (Kelvin)      0.13321     0.04194     0.03732
 Rotational constants (GHZ):           2.77568     0.87388     0.77769
    1 imaginary frequencies ignored.
 Zero-point vibrational energy     497587.5 (Joules/Mol)
                                  118.92626 (Kcal/Mol)
 Warning -- explicit consideration of  15 degrees of freedom as
           vibrations may cause significant error
 Vibrational temperatures:     50.70   174.26   239.13   330.02   364.93
          (Kelvin)            398.97   438.46   466.54   489.86   515.65
                              556.65   668.45   726.93   745.43   860.66
                              992.04  1032.14  1139.16  1252.42  1333.23
                             1383.20  1439.17  1461.61  1479.07  1506.81
                             1549.63  1552.87  1582.65  1638.27  1769.56
                             1800.65  1862.98  1952.44  2009.84  2047.06
                             2067.39  2074.23  2088.12  2170.77  2176.80
                             2177.83  2181.27  2194.01  2201.83  2221.12
                             2308.19  2453.09  4395.85  4396.64  4406.69
                             4472.52  4499.14  4502.61  4514.14  4532.31
                             4557.09  4957.32  5077.96  5253.69

 Zero-point correction=                           0.189521 (Hartree/Particle)
 Thermal correction to Energy=                    0.199482
 Thermal correction to Enthalpy=                  0.200427
 Thermal correction to Gibbs Free Energy=         0.154318
 Sum of electronic and zero-point Energies=           -454.714528
 Sum of electronic and thermal Energies=              -454.704567
 Sum of electronic and thermal Enthalpies=            -454.703623
 Sum of electronic and thermal Free Energies=         -454.749731

                     E (Thermal)             CV                S
                      KCal/Mol        Cal/Mol-Kelvin    Cal/Mol-Kelvin
 Total                  125.177             37.747             97.043
 Electronic               0.000              0.000              0.000
 Translational            0.889              2.981             40.723
 Rotational               0.889              2.981             29.523
 Vibrational            123.400             31.786             26.797
 Vibration     1          0.594              1.982              5.510
 Vibration     2          0.609              1.932              3.082
 Vibration     3          0.624              1.884              2.478
 Vibration     4          0.652              1.796              1.884
 Vibration     5          0.665              1.757              1.705
 Vibration     6          0.678              1.715              1.550
 Vibration     7          0.696              1.665              1.391
 Vibration     8          0.709              1.627              1.289
 Vibration     9          0.720              1.595              1.210
 Vibration    10          0.733              1.558              1.129
 Vibration    11          0.755              1.498              1.012
 Vibration    12          0.822              1.329              0.753
 Vibration    13          0.860              1.238              0.645
 Vibration    14          0.873              1.210              0.614
 Vibration    15          0.956              1.036              0.453

                           ! Non-Optimized Parameters !

 1\1\GINC-NODE364\Freq\RB3LYP\6-31G(d)\C6H12N4\VSC10255\13-Dec-2020\0\\
 #N Geom=AllCheck Guess=TCheck SCRF=Check GenChk RB3LYP/6-31G(d) Freq\\
 CID_61279753_JID_454_neutraal\\0,1\C,-2.1320502154,-0.2716134256,0.424
 3123712\C,-0.7101190235,-0.0554143517,0.026443494\N,0.067795409,0.9524
 93089,0.3864914563\C,1.2636730163,0.6868167098,-0.2360418631\N,1.26678
 17798,-0.4244324542,-0.9590833286\N,-0.0035193417,-0.887119894,-0.7776
 304922\C,2.4518888452,1.6159381224,-0.0810303004\C,2.9651003821,1.5194
 895223,1.3658412076\C,3.5633014301,1.2527755201,-1.0691287741\N,2.0580

 Normal termination of Gaussian 16 at Sun Dec 13 12:26:04 2020.

 ----------------------------------------------------------------------
 # B3LYP/6-311++G(d,p) empiricaldispersion=gd3bj scf=xqc pop=npa geom=c
 heck
 ----------------------------------------------------------------------

 -------------------------------------
 CID_61279753_JID_454_Energie_neutraal
 -------------------------------------
 Structure from the checkpoint file:  "JID_454.chk"
 Charge =  0 Multiplicity = 1

 SCF Done:  E(RB3LYP) =  -455.039557062     A.U. after   14 cycles
 Normal termination of Gaussian 16 at Sun Dec 13 12:27:24 2020.

 ----------------------------------------------------------------------
 # B3LYP/6-311++G(d,p) empiricaldispersion=gd3bj scf=xqc pop=npa geom=c
 heck
 ----------------------------------------------------------------------

 -----------------------------------
 CID_61279753_JID_454_Energie_kation
 -----------------------------------
 Structure from the checkpoint file:  "JID_454.chk"
 Charge =  1 Multiplicity = 2

 SCF Done:  E(UB3LYP) =  -454.718970758     A.U. after   26 cycles
 Normal termination of Gaussian 16 at Sun Dec 13 12:30:19 2020.
 Gaussian 16:  ES64L-G16RevA.03 25-Dec-2016

 ----------------------------------
 CID_61279753_JID_454_Energie_anion
 ----------------------------------
 Structure from the checkpoint file:  "JID_454.chk"
 Charge = -1 Multiplicity = 2

                         Standard orientation:
 ---------------------------------------------------------------------
 Center     Atomic      Atomic             Coordinates (Angstroms)
 Number     Number       Type             X           Y           Z
 ---------------------------------------------------------------------
      1          6           0       -3.365438    0.735284   -0.021710
      2          6           0       -1.996361    0.141791   -0.003710
      3          7           0       -0.848530    0.798972   -0.039204
      4          6           0        0.102205   -0.192368    0.000820
      5          7           0       -0.393195   -1.420805    0.057342
      6          7           0       -1.737145   -1.187426    0.055810
      7          6           0        1.581760    0.138667   -0.021169
      8          6           0        1.953864    0.812935    1.310381
      9          6           0        2.421817   -1.122909   -0.236094
     10          7           0        1.892169    1.096826   -1.101422
     11          1           0       -3.956277    0.363046   -0.866682
     12          1           0       -3.915363    0.507263    0.898881
     13          1           0       -3.275691    1.819210   -0.110988
     14          1           0       -2.379524   -1.965960    0.082648
     15          1           0        1.784438    0.131837    2.151116
     16          1           0        3.008282    1.104531    1.288933
     17          1           0        1.344432    1.708832    1.469025
     18          1           0        2.167299   -1.605795   -1.185993
     19          1           0        3.480910   -0.850389   -0.254753
     20          1           0        2.247945   -1.850783    0.560788
     21          1           0        1.665608    0.661100   -1.996418
     22          1           0        1.247778    1.883740   -1.015358
 ---------------------------------------------------------------------

 SCF Done:  E(UB3LYP) =  -455.028728568     A.U. after   30 cycles

 The electronic state is 2-A.
 Alpha  occ. eigenvalues --  -14.27369 -14.22574 -14.19437 -14.19107 -10.13606
 Alpha  occ. eigenvalues --  -10.11670 -10.10947 -10.06478 -10.06233 -10.06148
 Alpha  occ. eigenvalues --   -0.96137  -0.80517  -0.77751  -0.72776  -0.65851
 Alpha  occ. eigenvalues --   -0.61792  -0.59304  -0.53283  -0.50473  -0.44757
 Alpha  occ. eigenvalues --   -0.42690  -0.38576  -0.36954  -0.36055  -0.34559
 Alpha  occ. eigenvalues --   -0.32048  -0.30286  -0.29707  -0.28877  -0.28397
 Alpha  occ. eigenvalues --   -0.26935  -0.25791  -0.24542  -0.22157  -0.18656
 Alpha  occ. eigenvalues --   -0.17198  -0.15953  -0.14235   0.04778
 Alpha virt. eigenvalues --    0.07282   0.08669   0.08796   0.09712   0.10169
 Alpha virt. eigenvalues --    0.10640   0.11337   0.11641   0.12358   0.13171
 Alpha virt. eigenvalues --    0.13534   0.14551   0.14770   0.15882   0.15938

  Beta  occ. eigenvalues --  -14.27298 -14.22566 -14.19427 -14.19094 -10.13608
  Beta  occ. eigenvalues --  -10.11670 -10.10948 -10.06396 -10.06224 -10.06142
  Beta  occ. eigenvalues --   -0.96101  -0.80493  -0.77713  -0.72715  -0.65829
  Beta  occ. eigenvalues --   -0.61687  -0.59284  -0.53230  -0.50394  -0.44729
  Beta  occ. eigenvalues --   -0.42601  -0.38558  -0.36920  -0.36013  -0.34532
  Beta  occ. eigenvalues --   -0.31993  -0.30239  -0.29629  -0.28839  -0.28386
  Beta  occ. eigenvalues --   -0.26921  -0.25773  -0.24530  -0.22118  -0.18627
  Beta  occ. eigenvalues --   -0.17185  -0.15936  -0.14212
  Beta virt. eigenvalues --    0.07024   0.08441   0.08938   0.09402   0.10289
  Beta virt. eigenvalues --    0.10877   0.10959   0.11683   0.11964   0.12537
  Beta virt. eigenvalues --    0.13576   0.13763   0.14626   0.15019   0.15840

 Mulliken charges and spin densities:
               1          2
     1  C    4.794665  -5.221521
     2  C   -1.218615   1.498530
     3  N   -0.090489   0.015028
     4  C   -1.380775   0.575114
     5  N   -0.045365   0.064315
     6  N   -0.059100  -0.128606
     7  C   -0.599736   0.976896
     8  C   -0.249975  -0.257169
     9  C   -0.173842  -0.552617
    10  N   -0.189781  -0.011694
    11  H   -0.866905   1.048214
    12  H   -0.823938   1.006060
    13  H   -0.115782   0.277036
    14  H   -0.684515   1.046257
    15  H   -0.001329   0.145553
    16  H    0.086765   0.062520
    17  H    0.089025   0.059531
    18  H    0.042965   0.121854
    19  H    0.087206   0.055527
    20  H    0.118333   0.038003
    21  H    0.103031   0.113322
    22  H    0.178159   0.067847
 Sum of Mulliken charges =  -1.00000   1.00000

 Dipole moment (field-independent basis, Debye):
    X=              9.7543    Y=              2.1638    Z=              0.1865  Tot=              9.9931
 Quadrupole moment (field-independent basis, Debye-Ang):
   XX=           -139.1982   YY=            -96.1071   ZZ=            -86.2139
   XY=            -10.0293   XZ=              1.5010   YZ=              0.5575

 Summary of Natural Population Analysis:

                                       Natural Population
                Natural  -----------------------------------------------
    Atom  No    Charge         Core      Valence    Rydberg      Total
 -----------------------------------------------------------------------
      C    1   -0.30870      0.99963     2.30273    0.00634     3.30870
      C    2    0.20286      0.99962     1.78112    0.01640     2.79714
      N    3   -0.28273      0.99967     2.77285    0.01020     3.78273
      C    4    0.16638      0.99958     1.81126    0.02279     2.83362
      N    5   -0.16642      0.99969     2.65428    0.01246     3.66642
      N    6   -0.17887      0.99965     2.66565    0.01357     3.67887
      C    7    0.03252      0.99954     1.95545    0.01248     2.96748
      C    8   -0.28156      0.99963     2.27618    0.00575     3.28156
      C    9   -0.28437      0.99963     2.27862    0.00611     3.28437
      N   10   -0.42118      0.99976     2.91263    0.00878     3.92118
      H   11    0.11593      0.00000     0.37846    0.00561     0.38407
      H   12    0.11494      0.00000     0.38076    0.00430     0.38506
      H   13    0.11260      0.00000     0.38584    0.00157     0.38740
      H   14    0.21308      0.00000     0.26201    0.02491     0.28692
      H   15    0.10052      0.00000     0.39864    0.00084     0.39948
      H   16    0.09875      0.00000     0.40030    0.00095     0.40125
      H   17    0.10501      0.00000     0.39400    0.00099     0.39499
      H   18    0.10216      0.00000     0.39690    0.00093     0.39784
      H   19    0.09854      0.00000     0.40060    0.00086     0.40146
      H   20    0.10638      0.00000     0.39265    0.00097     0.39362
      H   21    0.17305      0.00000     0.32529    0.00166     0.32695
      H   22    0.18110      0.00000     0.31688    0.00203     0.31890
 =======================================================================
   * Total *   -0.00000      9.99641    27.84310    0.16049    38.00000

 Normal termination of Gaussian 16 at Sun Dec 13 12:33:41 2020.
