 Gaussian 16, Revision A.03,

 -----------------------------------------------------------
 # opt freq B3LYP/6-31G(d) empiricaldispersion=gd3bj scf=xqc
 -----------------------------------------------------------

 ------------------------------
 CID_83225594_JID_3265_neutraal
 ------------------------------
 Symbolic Z-matrix:
 Charge =  0 Multiplicity = 1

 SCF Done:  E(RB3LYP) =  -581.697474375     A.U. after   14 cycles
 SCF Done:  E(RB3LYP) =  -581.701768601     A.U. after   12 cycles
 SCF Done:  E(RB3LYP) =  -581.701419855     A.U. after   13 cycles
 SCF Done:  E(RB3LYP) =  -581.700691867     A.U. after   12 cycles
 SCF Done:  E(RB3LYP) =  -581.699770808     A.U. after   12 cycles
 SCF Done:  E(RB3LYP) =  -581.701816102     A.U. after    7 cycles
 SCF Done:  E(RB3LYP) =  -581.702456093     A.U. after   12 cycles
 SCF Done:  E(RB3LYP) =  -581.702501300     A.U. after   11 cycles
 SCF Done:  E(RB3LYP) =  -581.702492224     A.U. after   10 cycles
 SCF Done:  E(RB3LYP) =  -581.702511934     A.U. after   11 cycles
 SCF Done:  E(RB3LYP) =  -581.702520676     A.U. after    9 cycles
 SCF Done:  E(RB3LYP) =  -581.702521834     A.U. after    8 cycles
 SCF Done:  E(RB3LYP) =  -581.702522186     A.U. after    8 cycles
 SCF Done:  E(RB3LYP) =  -581.702522241     A.U. after    8 cycles
 Optimization completed.
    -- Stationary point found.
 Normal termination of Gaussian 16 at Wed Dec  9 22:34:44 2020.

 --------------------------------------------------------------------
 #N Geom=AllCheck Guess=TCheck SCRF=Check GenChk RB3LYP/6-31G(d) Freq
 --------------------------------------------------------------------

 Structure from the checkpoint file:  "JID_3265.chk"
 ------------------------------
 CID_83225594_JID_3265_neutraal
 ------------------------------
 Charge =  0 Multiplicity = 1

 SCF Done:  E(RB3LYP) =  -581.702522241     A.U. after    1 cycles

  Exact polarizability: 135.338  -0.628 113.685   1.983  -1.746 102.577
 Approx polarizability: 164.404   1.410 173.469   3.549  -3.229 150.380

                      1                      2                      3
                      A                      A                      A
 Frequencies --     40.1642                56.2220                77.8867
 Red. masses --      4.7479                 2.9451                 2.6003
 Frc consts  --      0.0045                 0.0055                 0.0093
 IR Inten    --      1.5171                 0.1235                 0.1114

                      4                      5                      6
                      A                      A                      A
 Frequencies --     91.7476               103.0318               121.2941
 Red. masses --      3.5096                 2.5141                 2.7590
 Frc consts  --      0.0174                 0.0157                 0.0239
 IR Inten    --      0.3796                 1.4255                 1.4571

                      7                      8                      9
                      A                      A                      A
 Frequencies --    177.9741               201.5955               224.6301
 Red. masses --      2.0217                 2.3594                 1.5189
 Frc consts  --      0.0377                 0.0565                 0.0452
 IR Inten    --      1.4206                 0.3068                 1.7802

                     10                     11                     12
                      A                      A                      A
 Frequencies --    265.8002               284.5469               302.5121
 Red. masses --      1.6090                 1.5640                 3.3688
 Frc consts  --      0.0670                 0.0746                 0.1816
 IR Inten    --      0.5360                 0.2979                 1.4487

                     13                     14                     15
                      A                      A                      A
 Frequencies --    312.2203               355.8551               385.6643
 Red. masses --      1.7305                 2.1489                 2.5371
 Frc consts  --      0.0994                 0.1603                 0.2223
 IR Inten    --      1.7406                 3.7453                 1.1035

                     16                     17                     18
                      A                      A                      A
 Frequencies --    417.0243               420.3903               469.1193
 Red. masses --      2.6692                 5.0506                 3.0659
 Frc consts  --      0.2735                 0.5259                 0.3975
 IR Inten    --      2.3785                 3.4954                 6.1918

                     19                     20                     21
                      A                      A                      A
 Frequencies --    507.3218               574.9118               589.5522
 Red. masses --      2.4616                 2.0461                 2.8842
 Frc consts  --      0.3733                 0.3985                 0.5906
 IR Inten    --      3.2704                 2.5082                 3.3231

                     22                     23                     24
                      A                      A                      A
 Frequencies --    680.0837               719.8404               783.5313
 Red. masses --      2.1825                 2.0517                 1.9377
 Frc consts  --      0.5947                 0.6264                 0.7009
 IR Inten    --      1.5106                 0.2605                15.2401

                     25                     26                     27
                      A                      A                      A
 Frequencies --    811.5747               828.5800               831.7694
 Red. masses --      1.2115                 1.7120                 1.9649
 Frc consts  --      0.4701                 0.6925                 0.8009
 IR Inten    --      0.0463                12.5638                 0.3438

                     28                     29                     30
                      A                      A                      A
 Frequencies --    868.3644               888.1714               899.3197
 Red. masses --      1.9648                 2.4577                 1.6690
 Frc consts  --      0.8729                 1.1423                 0.7953
 IR Inten    --      1.7660                 3.7482                 4.4141

                     31                     32                     33
                      A                      A                      A
 Frequencies --    915.5216               923.7865               961.0431
 Red. masses --      2.5056                 1.8047                 2.0597
 Frc consts  --      1.2374                 0.9074                 1.1208
 IR Inten    --      0.4740                 2.1338                 3.1530

                     34                     35                     36
                      A                      A                      A
 Frequencies --    978.4620              1028.4270              1051.0752
 Red. masses --      1.8261                 2.7414                 2.3986
 Frc consts  --      1.0301                 1.7083                 1.5612
 IR Inten    --     12.1015                 4.7913                 5.1791

                     37                     38                     39
                      A                      A                      A
 Frequencies --   1057.0509              1068.7731              1076.8825
 Red. masses --      1.7526                 1.6662                 1.6665
 Frc consts  --      1.1538                 1.1214                 1.1387
 IR Inten    --     14.3586                 1.1369                16.6685

                     40                     41                     42
                      A                      A                      A
 Frequencies --   1090.1050              1100.0814              1118.1324
 Red. masses --      2.2291                 2.0128                 2.8566
 Frc consts  --      1.5607                 1.4352                 2.1042
 IR Inten    --     22.9630                22.0549                 6.2260

                     43                     44                     45
                      A                      A                      A
 Frequencies --   1150.2214              1160.9699              1201.2659
 Red. masses --      2.2493                 2.5150                 1.5730
 Frc consts  --      1.7533                 1.9972                 1.3374
 IR Inten    --     25.8832               160.9245                 0.9354

                     46                     47                     48
                      A                      A                      A
 Frequencies --   1219.4364              1250.0363              1257.7268
 Red. masses --      2.0392                 1.4196                 1.3856
 Frc consts  --      1.7866                 1.3070                 1.2914
 IR Inten    --     59.8957                 4.3117                 3.0334

                     49                     50                     51
                      A                      A                      A
 Frequencies --   1263.1119              1289.6201              1313.0616
 Red. masses --      1.4613                 1.6146                 1.3086
 Frc consts  --      1.3737                 1.5822                 1.3293
 IR Inten    --      0.7727                18.9738                 7.2296

                     52                     53                     54
                      A                      A                      A
 Frequencies --   1331.9469              1351.2059              1354.1436
 Red. masses --      1.3365                 1.3682                 1.1357
 Frc consts  --      1.3970                 1.4718                 1.2270
 IR Inten    --      7.3699                 0.3336                11.9961

                     55                     56                     57
                      A                      A                      A
 Frequencies --   1367.5712              1374.1974              1388.5683
 Red. masses --      1.2823                 1.4155                 1.4144
 Frc consts  --      1.4130                 1.5749                 1.6067
 IR Inten    --      4.4083                 0.6673                 2.9322

                     58                     59                     60
                      A                      A                      A
 Frequencies --   1402.6534              1421.0310              1440.3082
 Red. masses --      1.4625                 1.2241                 1.2756
 Frc consts  --      1.6953                 1.4564                 1.5591
 IR Inten    --      9.7302                 0.8189                24.5551

                     61                     62                     63
                      A                      A                      A
 Frequencies --   1440.7261              1493.4388              1514.3877
 Red. masses --      1.2656                 1.0863                 1.0704
 Frc consts  --      1.5477                 1.4275                 1.4463
 IR Inten    --      5.2399                 6.4823                 5.8841

                     64                     65                     66
                      A                      A                      A
 Frequencies --   1515.2229              1517.0519              1517.9512
 Red. masses --      1.0667                 1.0801                 1.0660
 Frc consts  --      1.4430                 1.4646                 1.4472
 IR Inten    --      0.5299                 4.9987                 2.7460

                     67                     68                     69
                      A                      A                      A
 Frequencies --   1525.8910              1530.6316              1536.4758
 Red. masses --      1.0733                 1.0533                 1.0677
 Frc consts  --      1.4723                 1.4540                 1.4851
 IR Inten    --      4.6085                 9.0213                 9.6385

                     70                     71                     72
                      A                      A                      A
 Frequencies --   1538.4476              1541.4272              1551.1502
 Red. masses --      1.0553                 1.0859                 1.0870
 Frc consts  --      1.4716                 1.5201                 1.5409
 IR Inten    --      3.5649                 6.0087                 6.1738

                     73                     74                     75
                      A                      A                      A
 Frequencies --   1820.1300              3034.5793              3042.5612
 Red. masses --     11.8791                 1.0652                 1.0393
 Frc consts  --     23.1868                 5.7791                 5.6688
 IR Inten    --    135.3127                18.9745                19.4312

                     76                     77                     78
                      A                      A                      A
 Frequencies --   3046.4380              3047.1300              3054.0284
 Red. masses --      1.0619                 1.0668                 1.0375
 Frc consts  --      5.8065                 5.8360                 5.7012
 IR Inten    --     43.0103                17.8635                14.4052

                     79                     80                     81
                      A                      A                      A
 Frequencies --   3058.7236              3065.0310              3070.6692
 Red. masses --      1.0655                 1.0628                 1.0692
 Frc consts  --      5.8734                 5.8824                 5.9396
 IR Inten    --     34.4069                27.3301                23.5361

                     82                     83                     84
                      A                      A                      A
 Frequencies --   3085.8982              3088.2152              3097.2205
 Red. masses --      1.0934                 1.1020                 1.0835
 Frc consts  --      6.1348                 6.1920                 6.1237
 IR Inten    --      9.8105                25.1701                34.2603

                     85                     86                     87
                      A                      A                      A
 Frequencies --   3098.6542              3100.6947              3110.4679
 Red. masses --      1.0964                 1.0795                 1.1023
 Frc consts  --      6.2027                 6.1150                 6.2833
 IR Inten    --      7.7294                20.9338                47.3756

                     88                     89                     90
                      A                      A                      A
 Frequencies --   3117.5352              3119.8068              3124.5495
 Red. masses --      1.0988                 1.1000                 1.1031
 Frc consts  --      6.2922                 6.3079                 6.3450
 IR Inten    --     47.2162                42.4341                42.5093

                     91                     92                     93
                      A                      A                      A
 Frequencies --   3128.3567              3136.7920              3153.3841
 Red. masses --      1.0988                 1.1037                 1.0978
 Frc consts  --      6.3359                 6.3983                 6.4317
 IR Inten    --     30.6949                39.6429                16.2981

 - Thermochemistry -
 -------------------
 Temperature   298.150 Kelvin.  Pressure   1.00000 Atm.
 Atom     1 has atomic number  6 and mass  12.00000

 Molecular mass:   184.14633 amu.
 Principal axes and moments of inertia in atomic units:
                           1         2         3
     Eigenvalues --  1414.885583454.746474009.02493
           X            0.99994  -0.01011  -0.00447
           Y            0.01005   0.99986  -0.01308
           Z            0.00461   0.01304   0.99990
 This molecule is an asymmetric top.
 Rotational symmetry number  1.
 Warning -- assumption of classical behavior for rotation
           may cause significant error
 Rotational temperatures (Kelvin)      0.06122     0.02507     0.02160
 Rotational constants (GHZ):           1.27554     0.52239     0.45017
 Zero-point vibrational energy     783678.3 (Joules/Mol)
                                  187.30361 (Kcal/Mol)
 Warning -- explicit consideration of  21 degrees of freedom as
           vibrations may cause significant error
 Vibrational temperatures:     57.79    80.89   112.06   132.00   148.24
          (Kelvin)            174.52   256.07   290.05   323.19   382.43
                              409.40   435.25   449.22   512.00   554.88
                              600.01   604.85   674.96   729.92   827.17
                              848.23   978.49  1035.69  1127.33  1167.67
                             1192.14  1196.73  1249.38  1277.88  1293.92
                             1317.23  1329.12  1382.73  1407.79  1479.68
                             1512.26  1520.86  1537.73  1549.39  1568.42
                             1582.77  1608.74  1654.91  1670.38  1728.35
                             1754.50  1798.52  1809.59  1817.34  1855.48
                             1889.20  1916.37  1944.08  1948.31  1967.63
                             1977.16  1997.84  2018.11  2044.55  2072.28
                             2072.88  2148.73  2178.87  2180.07  2182.70
                             2183.99  2195.42  2202.24  2210.65  2213.48
                             2217.77  2231.76  2618.76  4366.08  4377.57
                             4383.14  4384.14  4394.07  4400.82  4409.90
                             4418.01  4439.92  4443.25  4456.21  4458.27
                             4461.21  4475.27  4485.44  4488.71  4495.53
                             4501.01  4513.14  4537.02

 Zero-point correction=                           0.298487 (Hartree/Particle)
 Thermal correction to Energy=                    0.312787
 Thermal correction to Enthalpy=                  0.313731
 Thermal correction to Gibbs Free Energy=         0.257263
 Sum of electronic and zero-point Energies=           -581.404035
 Sum of electronic and thermal Energies=              -581.389735
 Sum of electronic and thermal Enthalpies=            -581.388791
 Sum of electronic and thermal Free Energies=         -581.445260

                     E (Thermal)             CV                S
                      KCal/Mol        Cal/Mol-Kelvin    Cal/Mol-Kelvin
 Total                  196.277             54.105            118.848
 Electronic               0.000              0.000              0.000
 Translational            0.889              2.981             41.538
 Rotational               0.889              2.981             31.350
 Vibrational            194.499             48.143             45.960
 Vibration     1          0.594              1.981              5.251
 Vibration     2          0.596              1.975              4.586
 Vibration     3          0.599              1.964              3.943
 Vibration     4          0.602              1.955              3.622
 Vibration     5          0.605              1.947              3.396
 Vibration     6          0.609              1.931              3.080
 Vibration     7          0.628              1.869              2.350
 Vibration     8          0.638              1.838              2.118
 Vibration     9          0.649              1.804              1.921
 Vibration    10          0.672              1.736              1.623
 Vibration    11          0.683              1.702              1.506
 Vibration    12          0.694              1.669              1.403
 Vibration    13          0.701              1.650              1.351
 Vibration    14          0.731              1.563              1.140
 Vibration    15          0.754              1.501              1.017
 Vibration    16          0.780              1.433              0.902
 Vibration    17          0.783              1.426              0.891
 Vibration    18          0.826              1.319              0.740
 Vibration    19          0.863              1.234              0.640
 Vibration    20          0.931              1.086              0.495
 Vibration    21          0.947              1.054              0.468

 Optimization completed.
    -- Stationary point found.
 Normal termination of Gaussian 16 at Wed Dec  9 22:45:19 2020.

 ----------------------------------------------------------------------
 # B3LYP/6-311++G(d,p) empiricaldispersion=gd3bj scf=xqc pop=npa geom=c
 heck
 ----------------------------------------------------------------------

 --------------------------------------
 CID_83225594_JID_3265_Energie_neutraal
 --------------------------------------
 Structure from the checkpoint file:  "JID_3265.chk"
 Charge =  0 Multiplicity = 1

 SCF Done:  E(RB3LYP) =  -581.868617609     A.U. after   14 cycles
 Normal termination of Gaussian 16 at Wed Dec  9 22:50:34 2020.

 ----------------------------------------------------------------------
 # B3LYP/6-311++G(d,p) empiricaldispersion=gd3bj scf=xqc pop=npa geom=c
 heck
 ----------------------------------------------------------------------

 ------------------------------------
 CID_83225594_JID_3265_Energie_kation
 ------------------------------------
 Structure from the checkpoint file:  "JID_3265.chk"
 Charge =  1 Multiplicity = 2

 SCF Done:  E(UB3LYP) =  -581.549719773     A.U. after   22 cycles
 Normal termination of Gaussian 16 at Wed Dec  9 23:01:27 2020.
 Gaussian 16:  ES64L-G16RevA.03 25-Dec-2016

 ----------------------------------------------------------------------
 # B3LYP/6-311++G(d,p) empiricaldispersion=gd3bj scf=xqc pop=npa geom=c
 heck
 ----------------------------------------------------------------------

 -----------------------------------
 CID_83225594_JID_3265_Energie_anion
 -----------------------------------
 Structure from the checkpoint file:  "JID_3265.chk"
 Charge = -1 Multiplicity = 2

                         Standard orientation:
 ---------------------------------------------------------------------
 Center     Atomic      Atomic             Coordinates (Angstroms)
 Number     Number       Type             X           Y           Z
 ---------------------------------------------------------------------
      1          6           0       -3.584074    0.166968    1.129376
      2          6           0       -3.474375   -0.130613   -0.367995
      3          6           0       -2.085727    0.184692   -0.936073
      4          6           0       -1.010833   -0.767458   -0.404585
      5          8           0       -1.272792   -1.929351   -0.178239
      6          6           0        0.394004   -0.184756   -0.142209
      7          6           0        0.854377    0.808708   -1.264621
      8          6           0        1.029695    2.191246   -0.599897
      9          6           0        1.246905    1.886785    0.891764
     10          6           0        0.311047    0.696148    1.142989
     11          8           0        1.242532   -1.317020   -0.036422
     12          6           0        2.479193   -1.255467    0.658092
     13          6           0        3.656849   -0.737142   -0.168933
     14          1           0       -2.877245   -0.443481    1.701845
     15          1           0       -4.589930   -0.051819    1.503689
     16          1           0       -3.372451    1.222838    1.341990
     17          1           0       -3.686111   -1.189142   -0.549127
     18          1           0       -4.223274    0.451121   -0.919076
     19          1           0       -2.096484    0.060585   -2.028464
     20          1           0       -1.816435    1.231025   -0.751683
     21          1           0        1.794802    0.432524   -1.669047
     22          1           0        0.152797    0.846544   -2.102404
     23          1           0        0.115009    2.785815   -0.719634
     24          1           0        1.847204    2.769496   -1.042704
     25          1           0        1.024451    2.742254    1.538076
     26          1           0        2.289341    1.602292    1.074991
     27          1           0       -0.712493    1.068694    1.262685
     28          1           0        0.533956    0.110348    2.038282
     29          1           0        2.389653   -0.683371    1.590280
     30          1           0        2.675805   -2.294360    0.944088
     31          1           0        3.589558    0.336021   -0.370676
     32          1           0        4.593464   -0.915125    0.373022
     33          1           0        3.708102   -1.265946   -1.126290
 ---------------------------------------------------------------------

 SCF Done:  E(UB3LYP) =  -581.855344351     A.U. after   33 cycles
 SCF Done:  E(UB3LYP) =  -581.855344351     a.u. after    1 cycles

 The electronic state is 2-A.
 Alpha  occ. eigenvalues --  -19.02187 -19.01218 -10.15756 -10.13780 -10.12205
 Alpha  occ. eigenvalues --  -10.07791 -10.07604 -10.07219 -10.07001 -10.06845
 Alpha  occ. eigenvalues --  -10.06725 -10.06688 -10.06257  -0.95446  -0.92844
 Alpha  occ. eigenvalues --   -0.74227  -0.69793  -0.66940  -0.62840  -0.62180
 Alpha  occ. eigenvalues --   -0.59672  -0.53539  -0.51732  -0.48367  -0.47316
 Alpha  occ. eigenvalues --   -0.42847  -0.40829  -0.40481  -0.37086  -0.36303
 Alpha  occ. eigenvalues --   -0.35582  -0.35010  -0.34381  -0.32116  -0.31824
 Alpha  occ. eigenvalues --   -0.30965  -0.30511  -0.29195  -0.28414  -0.27055
 Alpha  occ. eigenvalues --   -0.26059  -0.25977  -0.24883  -0.24747  -0.24546
 Alpha  occ. eigenvalues --   -0.24140  -0.23832  -0.22712  -0.20435  -0.15926
 Alpha  occ. eigenvalues --   -0.14876   0.04335
 Alpha virt. eigenvalues --    0.06156   0.07026   0.07318   0.07772   0.08594
 Alpha virt. eigenvalues --    0.09051   0.09277   0.09978   0.10342   0.10697
 Alpha virt. eigenvalues --    0.11564   0.12052   0.12346   0.12761   0.13676

  Beta  occ. eigenvalues --  -19.02185 -19.01211 -10.15751 -10.13781 -10.12192
  Beta  occ. eigenvalues --  -10.07769 -10.07585 -10.07206 -10.06992 -10.06816
  Beta  occ. eigenvalues --  -10.06694 -10.06658 -10.06232  -0.95434  -0.92835
  Beta  occ. eigenvalues --   -0.74200  -0.69760  -0.66910  -0.62802  -0.62136
  Beta  occ. eigenvalues --   -0.59625  -0.53484  -0.51683  -0.48292  -0.47259
  Beta  occ. eigenvalues --   -0.42818  -0.40787  -0.40453  -0.37062  -0.36264
  Beta  occ. eigenvalues --   -0.35561  -0.34987  -0.34340  -0.32082  -0.31801
  Beta  occ. eigenvalues --   -0.30925  -0.30480  -0.29157  -0.28379  -0.27027
  Beta  occ. eigenvalues --   -0.26025  -0.25947  -0.24838  -0.24708  -0.24506
  Beta  occ. eigenvalues --   -0.24107  -0.23797  -0.22671  -0.20421  -0.15905
  Beta  occ. eigenvalues --   -0.14864
  Beta virt. eigenvalues --    0.06577   0.06928   0.07443   0.07944   0.08321
  Beta virt. eigenvalues --    0.09039   0.09482   0.09730   0.10393   0.10677
  Beta virt. eigenvalues --    0.11121   0.11760   0.12511   0.12873   0.13125

 Mulliken charges and spin densities:
               1          2
     1  C    0.236373  -0.808863
     2  C    0.282904  -0.717362
     3  C   -0.021076   0.076305
     4  C    0.771163  -0.673238
     5  O   -0.214357   0.002603
     6  C   -1.335337   0.722450
     7  C   -0.912719   1.006618
     8  C    1.710708  -2.296792
     9  C   -0.883255   0.645881
    10  C    0.737714  -1.024514
    11  O    0.015605   0.006084
    12  C   -0.411540   0.405163
    13  C    0.614175  -1.172384
    14  H    0.046839   0.120261
    15  H   -0.180265   0.321093
    16  H   -0.293072   0.437380
    17  H    0.192059  -0.034803
    18  H   -0.300418   0.455620
    19  H   -0.156830   0.346439
    20  H    0.074480   0.101293
    21  H    0.098749   0.087894
    22  H   -0.129742   0.320023
    23  H   -0.123284   0.267363
    24  H   -0.536163   0.721427
    25  H   -0.801234   1.006553
    26  H    0.039630   0.072737
    27  H    0.877179  -0.733379
    28  H   -0.106748   0.295015
    29  H    0.060150   0.062320
    30  H    0.029878   0.138641
    31  H   -0.020798   0.184666
    32  H   -0.445374   0.581640
    33  H    0.084608   0.075866
 Sum of Mulliken charges =  -1.00000   1.00000

 Dipole moment (field-independent basis, Debye):
    X=              0.0052    Y=             -3.7870    Z=             -0.2023  Tot=              3.7924
 Quadrupole moment (field-independent basis, Debye-Ang):
   XX=           -151.8766   YY=           -137.7041   ZZ=           -115.0609
   XY=              0.8690   XZ=             -0.9721   YZ=             -1.1920

 Summary of Natural Population Analysis:

                                       Natural Population
                Natural  -----------------------------------------------
    Atom  No    Charge         Core      Valence    Rydberg      Total
 -----------------------------------------------------------------------
      C    1   -0.28793      0.99966     2.28300    0.00527     3.28793
      C    2   -0.19030      0.99964     2.18141    0.00925     3.19030
      C    3   -0.24294      0.99957     2.23441    0.00896     3.24294
      C    4    0.30096      0.99960     1.67590    0.02355     2.69904
      O    5   -0.28035      0.99987     3.27391    0.00657     4.28035
      C    6    0.10294      0.99945     1.87999    0.01762     2.89706
      C    7   -0.20415      0.99960     2.19546    0.00910     3.20415
      C    8   -0.19208      0.99964     2.18361    0.00883     3.19208
      C    9   -0.19230      0.99963     2.18381    0.00886     3.19230
      C   10   -0.20393      0.99959     2.19547    0.00887     3.20393
      O   11   -0.30105      0.99986     3.29052    0.01067     4.30105
      C   12   -0.00907      0.99957     1.99700    0.01251     3.00907
      C   13   -0.30118      0.99966     2.29661    0.00491     3.30118
      H   14    0.09874      0.00000     0.40026    0.00100     0.40126
      H   15    0.09802      0.00000     0.40121    0.00077     0.40198
      H   16    0.09761      0.00000     0.40112    0.00127     0.40239
      H   17    0.10175      0.00000     0.39703    0.00122     0.39825
      H   18    0.09688      0.00000     0.40193    0.00119     0.40312
      H   19    0.11478      0.00000     0.38398    0.00124     0.38522
      H   20    0.10530      0.00000     0.39262    0.00209     0.39470
      H   21    0.10761      0.00000     0.39081    0.00158     0.39239
      H   22    0.10350      0.00000     0.39501    0.00149     0.39650
      H   23    0.09750      0.00000     0.40014    0.00236     0.40250
      H   24    0.10267      0.00000     0.39586    0.00146     0.39733
      H   25    0.10444      0.00000     0.39394    0.00163     0.39556
      H   26    0.09457      0.00000     0.40356    0.00187     0.40543
      H   27    0.10634      0.00000     0.39169    0.00197     0.39366
      H   28    0.10682      0.00000     0.39210    0.00108     0.39318
      H   29    0.07997      0.00000     0.41847    0.00156     0.42003
      H   30    0.08675      0.00000     0.41214    0.00112     0.41325
      H   31    0.09835      0.00000     0.40025    0.00140     0.40165
      H   32    0.10043      0.00000     0.39825    0.00131     0.39957
      H   33    0.09936      0.00000     0.39963    0.00101     0.40064
 =======================================================================
   * Total *   -0.00000     12.99534    37.84108    0.16359    51.00000

 Normal termination of Gaussian 16 at Wed Dec  9 23:17:55 2020.
