 Gaussian 16, Revision A.03,

 -----------------------------------------------------------
 # opt freq B3LYP/6-31G(d) empiricaldispersion=gd3bj scf=xqc
 -----------------------------------------------------------

 ----------------------------
 CID_267768_JID_1679_neutraal
 ----------------------------
 Symbolic Z-matrix:
 Charge =  0 Multiplicity = 1

 SCF Done:  E(RB3LYP) =  -576.049925136     A.U. after   13 cycles
 SCF Done:  E(RB3LYP) =  -576.055714646     A.U. after   11 cycles
 SCF Done:  E(RB3LYP) =  -576.054564129     A.U. after   11 cycles
 SCF Done:  E(RB3LYP) =  -576.057198272     A.U. after   11 cycles
 SCF Done:  E(RB3LYP) =  -576.057685701     A.U. after   11 cycles
 SCF Done:  E(RB3LYP) =  -576.057953678     A.U. after   11 cycles
 SCF Done:  E(RB3LYP) =  -576.058033833     A.U. after    9 cycles
 SCF Done:  E(RB3LYP) =  -576.058064568     A.U. after   10 cycles
 SCF Done:  E(RB3LYP) =  -576.058071564     A.U. after    8 cycles
 SCF Done:  E(RB3LYP) =  -576.058080607     A.U. after    8 cycles
 SCF Done:  E(RB3LYP) =  -576.058086692     A.U. after    9 cycles
 SCF Done:  E(RB3LYP) =  -576.058088050     A.U. after    8 cycles
 SCF Done:  E(RB3LYP) =  -576.058088353     A.U. after    8 cycles
 Optimization completed.
    -- Stationary point found.

 1\1\GINC-NODE201\FOpt\RB3LYP\6-31G(d)\C7H14O4\VSC10255\08-Dec-2020\0\\
 # opt freq B3LYP/6-31G(d) empiricaldispersion=gd3bj scf=xqc\\CID_26776
 8_JID_1679_neutraal\\0,1\C,0.9792510643,-0.0466488417,-0.0478070263\C,
 0.269196695,-1.2200232491,0.6201271267\C,-1.2263117782,-1.0255979935,0
 .8761742126\C,-2.0627415004,-1.1678557676,-0.401119572\C,-1.7584181661
 ,-2.5143795788,-1.0705845995\C,-0.2814063691,-2.9820666917,-1.10199298
 65\O,0.5016135083,-2.4984381922,-0.013075411\O,0.3435193367,-2.8762061
 286,-2.3553716299\C,0.5234736795,-1.5998731897,-2.9454372853\O,-1.8060

 Normal termination of Gaussian 16 at Tue Dec  8 20:49:47 2020.

 --------------------------------------------------------------------
 #N Geom=AllCheck Guess=TCheck SCRF=Check GenChk RB3LYP/6-31G(d) Freq
 --------------------------------------------------------------------

 Structure from the checkpoint file:  "JID_1679.chk"
 ----------------------------
 CID_267768_JID_1679_neutraal
 ----------------------------
 Charge =  0 Multiplicity = 1

 SCF Done:  E(RB3LYP) =  -576.058088353     A.U. after    1 cycles

  Exact polarizability:  88.860   1.454  82.954  -2.394   3.033  78.835
 Approx polarizability: 119.146   2.318 111.796  -2.516   3.548 117.445

                      1                      2                      3
                      A                      A                      A
 Frequencies --     77.6825               106.7982               138.1519
 Red. masses --      3.7640                 4.0296                 3.3651
 Frc consts  --      0.0134                 0.0271                 0.0378
 IR Inten    --      4.3380                 4.0683                 2.4492

                      4                      5                      6
                      A                      A                      A
 Frequencies --    185.2036               213.8173               220.0650
 Red. masses --      3.5833                 2.0366                 1.5105
 Frc consts  --      0.0724                 0.0549                 0.0431
 IR Inten    --      5.4817                 2.5009                 1.2636

                      7                      8                      9
                      A                      A                      A
 Frequencies --    260.9170               282.8070               289.7747
 Red. masses --      2.5174                 3.0903                 1.3583
 Frc consts  --      0.1010                 0.1456                 0.0672
 IR Inten    --     14.9052                 9.3615                 2.8882

                     10                     11                     12
                      A                      A                      A
 Frequencies --    317.4052               334.3462               381.7188
 Red. masses --      1.2026                 2.5082                 1.9893
 Frc consts  --      0.0714                 0.1652                 0.1708
 IR Inten    --    116.0611                 7.6066                 5.6056

                     13                     14                     15
                      A                      A                      A
 Frequencies --    424.0940               430.6931               446.1940
 Red. masses --      1.2660                 3.4679                 4.2606
 Frc consts  --      0.1342                 0.3790                 0.4998
 IR Inten    --     69.8431                16.5053                 3.1218

                     16                     17                     18
                      A                      A                      A
 Frequencies --    478.2387               558.9233               578.2761
 Red. masses --      5.0975                 4.0689                 4.6256
 Frc consts  --      0.6869                 0.7489                 0.9114
 IR Inten    --     16.7610                 2.5429                14.6133

                     19                     20                     21
                      A                      A                      A
 Frequencies --    658.3635               720.6934               801.0727
 Red. masses --      3.9260                 3.4507                 3.0411
 Frc consts  --      1.0026                 1.0560                 1.1498
 IR Inten    --      8.5015                 1.6573                23.4073

                     22                     23                     24
                      A                      A                      A
 Frequencies --    834.0313               890.5462               943.6920
 Red. masses --      2.6051                 3.0078                 2.4841
 Frc consts  --      1.0677                 1.4055                 1.3034
 IR Inten    --      9.3909                31.9707                14.9075

                     25                     26                     27
                      A                      A                      A
 Frequencies --    970.3113               995.7465              1048.3729
 Red. masses --      2.7177                 2.2347                 3.1285
 Frc consts  --      1.5076                 1.3055                 2.0259
 IR Inten    --     11.2140                91.1776                65.2943

                     28                     29                     30
                      A                      A                      A
 Frequencies --   1057.6391              1071.5033              1084.9894
 Red. masses --      2.5290                 3.9656                 2.7370
 Frc consts  --      1.6667                 2.6825                 1.8983
 IR Inten    --     38.0402               145.7100                41.9300

                     31                     32                     33
                      A                      A                      A
 Frequencies --   1116.8844              1144.3403              1161.4170
 Red. masses --      2.0521                 1.8446                 2.1619
 Frc consts  --      1.5082                 1.4232                 1.7181
 IR Inten    --     25.5291                46.3629                52.1290

                     34                     35                     36
                      A                      A                      A
 Frequencies --   1180.9570              1194.6940              1231.3927
 Red. masses --      2.2413                 1.5164                 1.2557
 Frc consts  --      1.8417                 1.2752                 1.1218
 IR Inten    --     91.4869                40.1642                36.3060

                     37                     38                     39
                      A                      A                      A
 Frequencies --   1242.1593              1262.8584              1291.0107
 Red. masses --      1.4468                 1.6972                 1.4115
 Frc consts  --      1.3153                 1.5948                 1.3861
 IR Inten    --     14.3242                62.6593                35.0081

                     40                     41                     42
                      A                      A                      A
 Frequencies --   1340.6215              1377.4808              1378.8870
 Red. masses --      1.3240                 1.4149                 1.3330
 Frc consts  --      1.4020                 1.5817                 1.4933
 IR Inten    --     28.8623                23.2985                 7.8903

                     43                     44                     45
                      A                      A                      A
 Frequencies --   1404.4766              1419.0688              1420.6233
 Red. masses --      1.2828                 1.3514                 1.2410
 Frc consts  --      1.4909                 1.6034                 1.4756
 IR Inten    --      2.8020                 9.7714                11.9072

                     46                     47                     48
                      A                      A                      A
 Frequencies --   1436.6031              1447.3614              1456.3190
 Red. masses --      1.2900                 1.3901                 1.4308
 Frc consts  --      1.5685                 1.7157                 1.7879
 IR Inten    --     15.9382                 4.4997                41.6186

                     49                     50                     51
                      A                      A                      A
 Frequencies --   1470.8301              1502.5387              1511.5488
 Red. masses --      1.1490                 1.1009                 1.1100
 Frc consts  --      1.4645                 1.4643                 1.4943
 IR Inten    --      3.2478                 4.5857                 5.1775

                     52                     53                     54
                      A                      A                      A
 Frequencies --   1513.8216              1528.2685              1534.0090
 Red. masses --      1.0802                 1.0541                 1.0607
 Frc consts  --      1.4585                 1.4506                 1.4707
 IR Inten    --      2.6725                 3.8326                14.0706

                     55                     56                     57
                      A                      A                      A
 Frequencies --   1562.6751              3030.0656              3050.3362
 Red. masses --      1.0472                 1.0844                 1.0296
 Frc consts  --      1.5066                 5.8661                 5.6443
 IR Inten    --      4.7155                45.3428                44.0811

                     58                     59                     60
                      A                      A                      A
 Frequencies --   3054.1591              3064.2812              3064.7261
 Red. masses --      1.0790                 1.0516                 1.0638
 Frc consts  --      5.9300                 5.8176                 5.8870
 IR Inten    --     24.1547                39.3875                 6.3204

                     61                     62                     63
                      A                      A                      A
 Frequencies --   3089.2965              3095.1390              3106.3504
 Red. masses --      1.0871                 1.0864                 1.1014
 Frc consts  --      6.1129                 6.1320                 6.2620
 IR Inten    --     44.7739                22.4099                27.6203

                     64                     65                     66
                      A                      A                      A
 Frequencies --   3117.4255              3124.4272              3135.6923
 Red. masses --      1.1047                 1.0998                 1.1053
 Frc consts  --      6.3255                 6.3259                 6.4034
 IR Inten    --     36.3407                29.2428                26.9973

                     67                     68                     69
                      A                      A                      A
 Frequencies --   3203.1940              3715.4883              3748.0619
 Red. masses --      1.0963                 1.0659                 1.0666
 Frc consts  --      6.6272                 8.6692                 8.8279
 IR Inten    --      5.2891                20.5627                17.1163

 - Thermochemistry -
 -------------------
 Temperature   298.150 Kelvin.  Pressure   1.00000 Atm.
 Atom     1 has atomic number  6 and mass  12.00000

 Molecular mass:   162.08921 amu.
 Principal axes and moments of inertia in atomic units:
                           1         2         3
     Eigenvalues --  1236.123851882.373261920.24193
           X            0.99956   0.01561  -0.02537
           Y           -0.00198   0.88473   0.46610
           Z            0.02972  -0.46584   0.88437
 This molecule is an asymmetric top.
 Rotational symmetry number  1.
 Warning -- assumption of classical behavior for rotation
           may cause significant error
 Rotational temperatures (Kelvin)      0.07007     0.04601     0.04511
 Rotational constants (GHZ):           1.46000     0.95876     0.93985
 Zero-point vibrational energy     571405.6 (Joules/Mol)
                                  136.56922 (Kcal/Mol)
 Warning -- explicit consideration of  18 degrees of freedom as
           vibrations may cause significant error
 Vibrational temperatures:    111.77   153.66   198.77   266.47   307.64
          (Kelvin)            316.62   375.40   406.90   416.92   456.68
                              481.05   549.21   610.18   619.67   641.97
                              688.08   804.17   832.01   947.24  1036.92
                             1152.56  1199.98  1281.30  1357.76  1396.06
                             1432.66  1508.37  1521.71  1541.65  1561.06
                             1606.95  1646.45  1671.02  1699.13  1718.90
                             1771.70  1787.19  1816.97  1857.48  1928.86
                             1981.89  1983.91  2020.73  2041.72  2043.96
                             2066.95  2082.43  2095.32  2116.20  2161.82
                             2174.78  2178.05  2198.84  2207.10  2248.34
                             4359.59  4388.75  4394.25  4408.82  4409.46
                             4444.81  4453.21  4469.35  4485.28  4495.35
                             4511.56  4608.68  5345.76  5392.63

 Zero-point correction=                           0.217637 (Hartree/Particle)
 Thermal correction to Energy=                    0.229098
 Thermal correction to Enthalpy=                  0.230042
 Thermal correction to Gibbs Free Energy=         0.181439
 Sum of electronic and zero-point Energies=           -575.840451
 Sum of electronic and thermal Energies=              -575.828991
 Sum of electronic and thermal Enthalpies=            -575.828047
 Sum of electronic and thermal Free Energies=         -575.876649

                     E (Thermal)             CV                S
                      KCal/Mol        Cal/Mol-Kelvin    Cal/Mol-Kelvin
 Total                  143.761             44.078            102.292
 Electronic               0.000              0.000              0.000
 Translational            0.889              2.981             41.158
 Rotational               0.889              2.981             29.881
 Vibrational            141.983             38.116             31.254
 Vibration     1          0.599              1.964              3.949
 Vibration     2          0.606              1.944              3.326
 Vibration     3          0.614              1.915              2.829
 Vibration     4          0.631              1.860              2.275
 Vibration     5          0.644              1.820              2.011
 Vibration     6          0.647              1.811              1.959
 Vibration     7          0.669              1.744              1.656
 Vibration     8          0.682              1.706              1.517
 Vibration     9          0.686              1.693              1.475
 Vibration    10          0.704              1.640              1.323
 Vibration    11          0.716              1.607              1.239
 Vibration    12          0.751              1.509              1.032
 Vibration    13          0.786              1.418              0.878
 Vibration    14          0.792              1.403              0.856
 Vibration    15          0.805              1.369              0.807
 Vibration    16          0.835              1.298              0.715
 Vibration    17          0.915              1.120              0.526
 Vibration    18          0.935              1.078              0.489

                           ! Non-Optimized Parameters !

 1\1\GINC-NODE201\Freq\RB3LYP\6-31G(d)\C7H14O4\VSC10255\08-Dec-2020\0\\
 #N Geom=AllCheck Guess=TCheck SCRF=Check GenChk RB3LYP/6-31G(d) Freq\\
 CID_267768_JID_1679_neutraal\\0,1\C,0.9792510643,-0.0466488417,-0.0478
 070263\C,0.269196695,-1.2200232491,0.6201271267\C,-1.2263117782,-1.025
 5979935,0.8761742126\C,-2.0627415004,-1.1678557676,-0.401119572\C,-1.7
 584181661,-2.5143795788,-1.0705845995\C,-0.2814063691,-2.9820666917,-1
 .1019929865\O,0.5016135083,-2.4984381922,-0.013075411\O,0.3435193367,-
 2.8762061286,-2.3553716299\C,0.5234736795,-1.5998731897,-2.9454372853\

 Normal termination of Gaussian 16 at Tue Dec  8 20:56:23 2020.

 ----------------------------------------------------------------------
 # B3LYP/6-311++G(d,p) empiricaldispersion=gd3bj scf=xqc pop=npa geom=c
 heck
 ----------------------------------------------------------------------

 ------------------------------------
 CID_267768_JID_1679_Energie_neutraal
 ------------------------------------
 Structure from the checkpoint file:  "JID_1679.chk"
 Charge =  0 Multiplicity = 1

 SCF Done:  E(RB3LYP) =  -576.245940171     A.U. after   13 cycles
 Normal termination of Gaussian 16 at Tue Dec  8 20:58:56 2020.

 ----------------------------------------------------------------------
 # B3LYP/6-311++G(d,p) empiricaldispersion=gd3bj scf=xqc pop=npa geom=c
 heck
 ----------------------------------------------------------------------

 ----------------------------------
 CID_267768_JID_1679_Energie_kation
 ----------------------------------
 Structure from the checkpoint file:  "JID_1679.chk"
 Charge =  1 Multiplicity = 2

 SCF Done:  E(UB3LYP) =  -575.904667020     A.U. after   26 cycles
 Normal termination of Gaussian 16 at Tue Dec  8 21:05:39 2020.
 Gaussian 16:  ES64L-G16RevA.03 25-Dec-2016

 ---------------------------------
 CID_267768_JID_1679_Energie_anion
 ---------------------------------
 Structure from the checkpoint file:  "JID_1679.chk"
 Charge = -1 Multiplicity = 2

                         Standard orientation:
 ---------------------------------------------------------------------
 Center     Atomic      Atomic             Coordinates (Angstroms)
 Number     Number       Type             X           Y           Z
 ---------------------------------------------------------------------
      1          6           0        0.134700    2.117582    0.742373
      2          6           0        0.774871    1.236316   -0.325649
      3          6           0        1.671329    0.112858    0.197909
      4          6           0        0.866599   -1.060343    0.770044
      5          6           0       -0.136572   -1.558701   -0.278388
      6          6           0       -0.884819   -0.493006   -1.118448
      7          8           0       -0.151653    0.715440   -1.305215
      8          8           0       -2.231159   -0.303812   -0.765927
      9          6           0       -2.557750    0.189150    0.522450
     10          8           0        0.266715   -0.633547    1.996057
     11          8           0        2.498064   -0.376881   -0.857516
     12          1           0        0.921945    2.683942    1.253943
     13          1           0       -0.404436    1.544020    1.493472
     14          1           0       -0.543367    2.831421    0.264735
     15          1           0        1.419487    1.878904   -0.936965
     16          1           0        2.336266    0.503653    0.974438
     17          1           0        1.579852   -1.869826    0.976271
     18          1           0       -0.875792   -2.227014    0.176934
     19          1           0        0.434325   -2.170491   -0.985565
     20          1           0       -0.983338   -0.879736   -2.136244
     21          1           0       -1.942229   -0.260354    1.309113
     22          1           0       -2.447574    1.277961    0.571620
     23          1           0       -3.608129   -0.065195    0.689582
     24          1           0       -0.122330   -1.414961    2.417520
     25          1           0        1.969442   -0.305064   -1.669789
 ---------------------------------------------------------------------

 SCF Done:  E(UB3LYP) =  -576.233993675     A.U. after   25 cycles

 The electronic state is 2-A.
 Alpha  occ. eigenvalues --  -19.02529 -19.02185 -19.01792 -19.01188 -10.16426
 Alpha  occ. eigenvalues --  -10.12466 -10.11828 -10.11342 -10.09564 -10.06133
 Alpha  occ. eigenvalues --  -10.05606  -0.96021  -0.92979  -0.91313  -0.90115
 Alpha  occ. eigenvalues --   -0.68413  -0.67443  -0.60729  -0.58416  -0.53543
 Alpha  occ. eigenvalues --   -0.51662  -0.45054  -0.42201  -0.41025  -0.39375
 Alpha  occ. eigenvalues --   -0.38279  -0.35540  -0.34840  -0.34366  -0.32962
 Alpha  occ. eigenvalues --   -0.31622  -0.30605  -0.29502  -0.28973  -0.27381
 Alpha  occ. eigenvalues --   -0.26212  -0.24508  -0.22470  -0.21565  -0.20437
 Alpha  occ. eigenvalues --   -0.18822  -0.16949  -0.16476  -0.15550   0.04827
 Alpha virt. eigenvalues --    0.07478   0.07760   0.08336   0.10306   0.10333
 Alpha virt. eigenvalues --    0.10764   0.10894   0.11606   0.12994   0.13375
 Alpha virt. eigenvalues --    0.14318   0.15152   0.15728   0.16100   0.16969

  Beta  occ. eigenvalues --  -19.02524 -19.02166 -19.01791 -19.01122 -10.16417
  Beta  occ. eigenvalues --  -10.12458 -10.11824 -10.11319 -10.09532 -10.06095
  Beta  occ. eigenvalues --  -10.05588  -0.96003  -0.92943  -0.91184  -0.90099
  Beta  occ. eigenvalues --   -0.68383  -0.67364  -0.60682  -0.58361  -0.53495
  Beta  occ. eigenvalues --   -0.51597  -0.44958  -0.42151  -0.40986  -0.39279
  Beta  occ. eigenvalues --   -0.38247  -0.35481  -0.34798  -0.34325  -0.32927
  Beta  occ. eigenvalues --   -0.31586  -0.30567  -0.29476  -0.28921  -0.27338
  Beta  occ. eigenvalues --   -0.26169  -0.24474  -0.22423  -0.21538  -0.20411
  Beta  occ. eigenvalues --   -0.18795  -0.16901  -0.16437  -0.15526
  Beta virt. eigenvalues --    0.07239   0.08314   0.08508   0.09296   0.10557
  Beta virt. eigenvalues --    0.10887   0.11236   0.11641   0.11987   0.13492
  Beta virt. eigenvalues --    0.13713   0.14836   0.15282   0.16023   0.16351

 Mulliken charges and spin densities:
               1          2
     1  C    0.212423  -0.918457
     2  C   -0.002880   0.287417
     3  C   -0.468736  -0.176403
     4  C    1.142771  -1.125815
     5  C    0.611259  -1.139179
     6  C   -0.554827   0.281313
     7  O   -0.126891   0.013371
     8  O   -0.129753   0.032551
     9  C    0.468900  -0.779869
    10  O   -0.164599  -0.049936
    11  O   -0.181005   0.036246
    12  H   -0.012764   0.134602
    13  H    0.096353   0.105920
    14  H   -0.017798   0.174591
    15  H   -0.025246   0.240017
    16  H    0.133707   0.090592
    17  H   -0.567465   0.801789
    18  H   -0.520014   0.758253
    19  H   -0.015300   0.179340
    20  H   -0.332354   0.546454
    21  H    0.042477   0.100931
    22  H    0.013429   0.116542
    23  H   -0.307820   0.468748
    24  H   -0.383271   0.656992
    25  H    0.089403   0.163989
 Sum of Mulliken charges =  -1.00000   1.00000

 Dipole moment (field-independent basis, Debye):
    X=              1.1795    Y=              4.9090    Z=             -2.7889  Tot=              5.7678
 Quadrupole moment (field-independent basis, Debye-Ang):
   XX=           -108.4880   YY=           -107.8375   ZZ=           -106.9408
   XY=              0.1037   XZ=              0.8005   YZ=              8.6316

 Summary of Natural Population Analysis:

                                       Natural Population
                Natural  -----------------------------------------------
    Atom  No    Charge         Core      Valence    Rydberg      Total
 -----------------------------------------------------------------------
      C    1   -0.30063      0.99963     2.29581    0.00519     3.30063
      C    2    0.05684      0.99951     1.92990    0.01375     2.94316
      C    3    0.04938      0.99949     1.93684    0.01428     2.95062
      C    4    0.05327      0.99952     1.92947    0.01774     2.94673
      C    5   -0.23679      0.99958     2.22632    0.01089     3.23679
      C    6    0.22309      0.99955     1.75601    0.02135     2.77691
      O    7   -0.31689      0.99988     3.30703    0.00999     4.31689
      O    8   -0.30057      0.99988     3.29072    0.00998     4.30057
      C    9   -0.10702      0.99959     2.09767    0.00976     3.10702
      O   10   -0.38173      0.99989     3.37430    0.00755     4.38173
      O   11   -0.37113      0.99990     3.36468    0.00654     4.37113
      H   12    0.09939      0.00000     0.39947    0.00115     0.40061
      H   13    0.11456      0.00000     0.38364    0.00180     0.38544
      H   14    0.09982      0.00000     0.39889    0.00130     0.40018
      H   15    0.09074      0.00000     0.40782    0.00143     0.40926
      H   16    0.09465      0.00000     0.40389    0.00146     0.40535
      H   17    0.09041      0.00000     0.40711    0.00248     0.40959
      H   18    0.11605      0.00000     0.38091    0.00304     0.38395
      H   19    0.11098      0.00000     0.38713    0.00189     0.38902
      H   20    0.08389      0.00000     0.41448    0.00162     0.41611
      H   21    0.09176      0.00000     0.40614    0.00209     0.40824
      H   22    0.07920      0.00000     0.41930    0.00150     0.42080
      H   23    0.08715      0.00000     0.41167    0.00118     0.41285
      H   24    0.24323      0.00000     0.23808    0.01869     0.25677
      H   25    0.23036      0.00000     0.26627    0.00337     0.26964
 =======================================================================
   * Total *   -0.00000     10.99642    32.83354    0.17004    44.00000

 Normal termination of Gaussian 16 at Tue Dec  8 21:12:31 2020.
