 Gaussian 16, Revision A.03,

 -----------------------------------------------------------
 # opt freq B3LYP/6-31G(d) empiricaldispersion=gd3bj scf=xqc
 -----------------------------------------------------------

 ------------------------------
 CID_58133885_JID_1281_neutraal
 ------------------------------
 Symbolic Z-matrix:
 Charge =  0 Multiplicity = 1

 SCF Done:  E(RB3LYP) =  -446.101820392     A.U. after   13 cycles
 SCF Done:  E(RB3LYP) =  -446.103506503     A.U. after   11 cycles
 SCF Done:  E(RB3LYP) =  -446.103739460     A.U. after   10 cycles
 SCF Done:  E(RB3LYP) =  -446.103779775     A.U. after   10 cycles
 SCF Done:  E(RB3LYP) =  -446.103807881     A.U. after   10 cycles
 SCF Done:  E(RB3LYP) =  -446.103828072     A.U. after   10 cycles
 SCF Done:  E(RB3LYP) =  -446.103830868     A.U. after    8 cycles
 SCF Done:  E(RB3LYP) =  -446.103831378     A.U. after    7 cycles
 SCF Done:  E(RB3LYP) =  -446.103831561     A.U. after    7 cycles
 SCF Done:  E(RB3LYP) =  -446.103831625     A.U. after    6 cycles
 SCF Done:  E(RB3LYP) =  -446.103831650     A.U. after    6 cycles
 Optimization completed.
    -- Stationary point found.
 Normal termination of Gaussian 16 at Tue Dec  8 19:36:56 2020.

 --------------------------------------------------------------------
 #N Geom=AllCheck Guess=TCheck SCRF=Check GenChk RB3LYP/6-31G(d) Freq
 --------------------------------------------------------------------

 Structure from the checkpoint file:  "JID_1281.chk"
 ------------------------------
 CID_58133885_JID_1281_neutraal
 ------------------------------
 Charge =  0 Multiplicity = 1

 SCF Done:  E(RB3LYP) =  -446.103831650     A.U. after    1 cycles

  Exact polarizability: 126.400  -2.325 103.257   8.206  10.360  89.104
 Approx polarizability: 172.760  -5.490 157.665  15.436  24.231 130.235

                      1                      2                      3
                      A                      A                      A
 Frequencies --     54.3270                55.5495                86.8417
 Red. masses --      2.6931                 3.2977                 3.2507
 Frc consts  --      0.0047                 0.0060                 0.0144
 IR Inten    --      0.0961                 0.0420                 0.1406

                      4                      5                      6
                      A                      A                      A
 Frequencies --    178.6927               195.4034               211.8184
 Red. masses --      1.1546                 2.3065                 1.4760
 Frc consts  --      0.0217                 0.0519                 0.0390
 IR Inten    --      0.0226                 0.0755                 0.1745

                      7                      8                      9
                      A                      A                      A
 Frequencies --    218.8610               234.0061               246.9753
 Red. masses --      1.1685                 1.9175                 1.1269
 Frc consts  --      0.0330                 0.0619                 0.0405
 IR Inten    --      0.1006                 0.9287                 0.0368

                     10                     11                     12
                      A                      A                      A
 Frequencies --    283.7854               316.6779               365.6325
 Red. masses --      2.1768                 2.4754                 2.1475
 Frc consts  --      0.1033                 0.1463                 0.1692
 IR Inten    --      1.5657                 0.7453                 0.7219

                     13                     14                     15
                      A                      A                      A
 Frequencies --    376.5585               427.3121               451.1289
 Red. masses --      2.5385                 2.4681                 2.9686
 Frc consts  --      0.2121                 0.2655                 0.3560
 IR Inten    --      0.8762                 0.5070                 1.9030

                     16                     17                     18
                      A                      A                      A
 Frequencies --    520.6425               631.5719               643.0052
 Red. masses --      2.9928                 3.9012                 3.5471
 Frc consts  --      0.4780                 0.9168                 0.8641
 IR Inten    --      1.4936                 0.9052                 2.9934

                     19                     20                     21
                      A                      A                      A
 Frequencies --    653.4449               699.7013               749.2020
 Red. masses --      3.3502                 1.3669                 2.8022
 Frc consts  --      0.8428                 0.3943                 0.9267
 IR Inten    --      7.7619                34.6230                 0.2199

                     22                     23                     24
                      A                      A                      A
 Frequencies --    772.2313               816.8738               845.8705
 Red. masses --      1.2485                 2.1588                 1.2262
 Frc consts  --      0.4386                 0.8487                 0.5169
 IR Inten    --     18.5630                 1.9845                 0.6836

                     25                     26                     27
                      A                      A                      A
 Frequencies --    910.4387               930.6903               944.8091
 Red. masses --      3.8999                 2.2608                 1.1678
 Frc consts  --      1.9046                 1.1538                 0.6142
 IR Inten    --      7.3056                 1.1752                 1.8053

                     28                     29                     30
                      A                      A                      A
 Frequencies --    977.5860               996.9130              1002.8984
 Red. masses --      1.4150                 1.3051                 1.5724
 Frc consts  --      0.7968                 0.7642                 0.9318
 IR Inten    --      0.9860                 3.6654                 5.6645

                     31                     32                     33
                      A                      A                      A
 Frequencies --   1036.2072              1055.0857              1078.8804
 Red. masses --      1.7394                 1.3257                 1.4306
 Frc consts  --      1.1004                 0.8695                 0.9811
 IR Inten    --      5.5952                 0.8324                 1.2801

                     34                     35                     36
                      A                      A                      A
 Frequencies --   1109.8639              1121.9435              1161.2910
 Red. masses --      1.7319                 1.8911                 2.2490
 Frc consts  --      1.2569                 1.4025                 1.7870
 IR Inten    --     18.9744                 6.1593                 2.3281

                     37                     38                     39
                      A                      A                      A
 Frequencies --   1175.9921              1207.5762              1220.9317
 Red. masses --      2.0947                 1.8140                 2.2109
 Frc consts  --      1.7068                 1.5586                 1.9418
 IR Inten    --      8.3562                 1.9582                 0.0383

                     40                     41                     42
                      A                      A                      A
 Frequencies --   1267.5753              1315.4478              1331.8741
 Red. masses --      1.5644                 1.8359                 2.7798
 Frc consts  --      1.4810                 1.8718                 2.9053
 IR Inten    --     20.6098                21.3577                45.7885

                     43                     44                     45
                      A                      A                      A
 Frequencies --   1352.5833              1368.6682              1397.6281
 Red. masses --      1.7579                 1.5705                 1.4616
 Frc consts  --      1.8949                 1.7333                 1.6821
 IR Inten    --      3.7612                 1.5019                 1.2062

                     46                     47                     48
                      A                      A                      A
 Frequencies --   1429.9652              1437.9033              1445.6531
 Red. masses --      1.2659                 1.2632                 1.2826
 Frc consts  --      1.5251                 1.5388                 1.5794
 IR Inten    --      0.9044                 7.3057                 2.9538

                     49                     50                     51
                      A                      A                      A
 Frequencies --   1449.1894              1462.3998              1474.3187
 Red. masses --      1.2550                 1.6602                 3.1592
 Frc consts  --      1.5529                 2.0919                 4.0458
 IR Inten    --      3.1675                19.6619                23.8967

                     52                     53                     54
                      A                      A                      A
 Frequencies --   1511.6416              1514.1276              1518.8283
 Red. masses --      1.0980                 1.7835                 1.0518
 Frc consts  --      1.4782                 2.4090                 1.4295
 IR Inten    --      5.3336                16.4781                 2.0142

                     55                     56                     57
                      A                      A                      A
 Frequencies --   1521.7509              1527.2977              1531.1603
 Red. masses --      1.0679                 1.0614                 1.0462
 Frc consts  --      1.4571                 1.4588                 1.4452
 IR Inten    --      7.3334                 0.3746                11.4012

                     58                     59                     60
                      A                      A                      A
 Frequencies --   1536.4877              1543.6771              1547.8328
 Red. masses --      1.0644                 1.3790                 1.1907
 Frc consts  --      1.4805                 1.9361                 1.6808
 IR Inten    --      6.5287                16.3122                 8.2828

                     61                     62                     63
                      A                      A                      A
 Frequencies --   1613.3179              3023.3311              3028.5431
 Red. masses --      4.8248                 1.0823                 1.0405
 Frc consts  --      7.3990                 5.8287                 5.6228
 IR Inten    --      2.8347                 8.5024                37.3209

                     64                     65                     66
                      A                      A                      A
 Frequencies --   3041.0678              3046.2786              3061.4652
 Red. masses --      1.0396                 1.0406                 1.0373
 Frc consts  --      5.6644                 5.6897                 5.7280
 IR Inten    --     16.4556                34.1134                12.9690

                     67                     68                     69
                      A                      A                      A
 Frequencies --   3071.5070              3083.0014              3103.5200
 Red. masses --      1.1010                 1.0836                 1.0990
 Frc consts  --      6.1199                 6.0683                 6.2369
 IR Inten    --     29.6318                15.5139                 2.5573

                     70                     71                     72
                      A                      A                      A
 Frequencies --   3110.5690              3124.8244              3130.7463
 Red. masses --      1.0981                 1.1017                 1.0980
 Frc consts  --      6.2601                 6.3384                 6.3411
 IR Inten    --     67.5467                34.4435                21.0304

                     73                     74                     75
                      A                      A                      A
 Frequencies --   3132.0560              3141.7129              3144.2253
 Red. masses --      1.0990                 1.1004                 1.1021
 Frc consts  --      6.3519                 6.3991                 6.4194
 IR Inten    --     25.4646                13.6008                35.0712

                     76                     77                     78
                      A                      A                      A
 Frequencies --   3244.4486              3258.2937              3279.6828
 Red. masses --      1.0905                 1.0950                 1.1024
 Frc consts  --      6.7633                 6.8494                 6.9862
 IR Inten    --      8.0360                10.5390                 3.9054

 - Thermochemistry -
 -------------------
 Temperature   298.150 Kelvin.  Pressure   1.00000 Atm.
 Atom     1 has atomic number  6 and mass  12.00000

 Molecular mass:   151.13610 amu.
 Principal axes and moments of inertia in atomic units:
                           1         2         3
     Eigenvalues --  1062.646922310.359102442.19361
           X            0.99993  -0.01161  -0.00248
           Y            0.01158   0.99985  -0.01279
           Z            0.00263   0.01276   0.99992
 This molecule is an asymmetric top.
 Rotational symmetry number  1.
 Warning -- assumption of classical behavior for rotation
           may cause significant error
 Rotational temperatures (Kelvin)      0.08151     0.03749     0.03547
 Rotational constants (GHZ):           1.69835     0.78115     0.73898
 Zero-point vibrational energy     664476.7 (Joules/Mol)
                                  158.81373 (Kcal/Mol)
 Warning -- explicit consideration of  16 degrees of freedom as
           vibrations may cause significant error
 Vibrational temperatures:     78.16    79.92   124.95   257.10   281.14
          (Kelvin)            304.76   314.89   336.68   355.34   408.30
                              455.63   526.06   541.78   614.81   649.07
                              749.09   908.69   925.14   940.16  1006.71
                             1077.93  1111.07  1175.30  1217.02  1309.92
                             1339.06  1359.37  1406.53  1434.34  1442.95
                             1490.87  1518.03  1552.27  1596.85  1614.23
                             1670.84  1691.99  1737.43  1756.65  1823.76
                             1892.64  1916.27  1946.07  1969.21  2010.88
                             2057.40  2068.82  2079.97  2085.06  2104.07
                             2121.22  2174.92  2178.49  2185.26  2189.46
                             2197.44  2203.00  2210.66  2221.01  2226.99
                             2321.20  4349.90  4357.40  4375.42  4382.92
                             4404.77  4419.21  4435.75  4465.27  4475.42
                             4495.93  4504.45  4506.33  4520.22  4523.84
                             4668.04  4687.96  4718.73

 Zero-point correction=                           0.253086 (Hartree/Particle)
 Thermal correction to Energy=                    0.265288
 Thermal correction to Enthalpy=                  0.266232
 Thermal correction to Gibbs Free Energy=         0.215252
 Sum of electronic and zero-point Energies=           -445.850746
 Sum of electronic and thermal Energies=              -445.838544
 Sum of electronic and thermal Enthalpies=            -445.837600
 Sum of electronic and thermal Free Energies=         -445.888580

                     E (Thermal)             CV                S
                      KCal/Mol        Cal/Mol-Kelvin    Cal/Mol-Kelvin
 Total                  166.471             46.322            107.297
 Electronic               0.000              0.000              0.000
 Translational            0.889              2.981             40.949
 Rotational               0.889              2.981             30.173
 Vibrational            164.693             40.360             36.175
 Vibration     1          0.596              1.976              4.653
 Vibration     2          0.596              1.975              4.609
 Vibration     3          0.601              1.958              3.730
 Vibration     4          0.629              1.869              2.342
 Vibration     5          0.636              1.846              2.176
 Vibration     6          0.643              1.823              2.028
 Vibration     7          0.647              1.812              1.968
 Vibration     8          0.654              1.789              1.848
 Vibration     9          0.661              1.768              1.752
 Vibration    10          0.682              1.704              1.511
 Vibration    11          0.704              1.642              1.327
 Vibration    12          0.739              1.543              1.098
 Vibration    13          0.747              1.520              1.053
 Vibration    14          0.789              1.411              0.867
 Vibration    15          0.810              1.358              0.792
 Vibration    16          0.876              1.204              0.608

                           ! Non-Optimized Parameters !
 Normal termination of Gaussian 16 at Tue Dec  8 19:43:19 2020.

 ----------------------------------------------------------------------
 # B3LYP/6-311++G(d,p) empiricaldispersion=gd3bj scf=xqc pop=npa geom=c
 heck
 ----------------------------------------------------------------------

 --------------------------------------
 CID_58133885_JID_1281_Energie_neutraal
 --------------------------------------
 Structure from the checkpoint file:  "JID_1281.chk"
 Charge =  0 Multiplicity = 1

 SCF Done:  E(RB3LYP) =  -446.225700182     A.U. after   14 cycles
 Normal termination of Gaussian 16 at Tue Dec  8 19:46:20 2020.

 ----------------------------------------------------------------------
 # B3LYP/6-311++G(d,p) empiricaldispersion=gd3bj scf=xqc pop=npa geom=c
 heck
 ----------------------------------------------------------------------

 ------------------------------------
 CID_58133885_JID_1281_Energie_kation
 ------------------------------------
 Structure from the checkpoint file:  "JID_1281.chk"
 Charge =  1 Multiplicity = 2

 SCF Done:  E(UB3LYP) =  -445.949654392     A.U. after   19 cycles
 Normal termination of Gaussian 16 at Tue Dec  8 19:51:45 2020.
 Gaussian 16:  ES64L-G16RevA.03 25-Dec-2016

 ----------------------------------------------------------------------
 # B3LYP/6-311++G(d,p) empiricaldispersion=gd3bj scf=xqc pop=npa geom=c
 heck
 ----------------------------------------------------------------------

 -----------------------------------
 CID_58133885_JID_1281_Energie_anion
 -----------------------------------
 Structure from the checkpoint file:  "JID_1281.chk"
 Charge = -1 Multiplicity = 2

                         Standard orientation:
 ---------------------------------------------------------------------
 Center     Atomic      Atomic             Coordinates (Angstroms)
 Number     Number       Type             X           Y           Z
 ---------------------------------------------------------------------
      1          6           0       -1.398629    1.871799    1.119643
      2          6           0       -1.585815    0.605189    0.348163
      3          6           0       -2.708903    0.131133   -0.302771
      4          6           0       -2.378104   -1.120848   -0.892940
      5          6           0       -1.061098   -1.377733   -0.584256
      6          7           0       -0.579734   -0.330155    0.175525
      7          6           0        0.809965   -0.196862    0.615401
      8          6           0        1.188667   -1.368761    1.528551
      9          6           0        1.754929   -0.020788   -0.597671
     10          6           0        1.279229    1.119754   -1.505706
     11          6           0        3.203928    0.213653   -0.151100
     12          1           0       -1.100665    1.693102    2.161536
     13          1           0       -2.344389    2.420484    1.139853
     14          1           0       -0.644733    2.533935    0.673491
     15          1           0       -3.665446    0.635829   -0.338336
     16          1           0       -3.031085   -1.762524   -1.468868
     17          1           0       -0.426807   -2.214059   -0.837865
     18          1           0        0.853805    0.724532    1.205206
     19          1           0        1.243760   -2.307397    0.966052
     20          1           0        2.159535   -1.201517    2.002977
     21          1           0        0.437364   -1.489013    2.314504
     22          1           0        1.720070   -0.955249   -1.176302
     23          1           0        1.302479    2.078107   -0.970495
     24          1           0        1.933994    1.213846   -2.379002
     25          1           0        0.258140    0.953169   -1.858908
     26          1           0        3.617404   -0.641710    0.391645
     27          1           0        3.846386    0.396242   -1.019333
     28          1           0        3.273309    1.094093    0.501299
 ---------------------------------------------------------------------

 SCF Done:  E(UB3LYP) =  -446.209203819     A.U. after   31 cycles

 The electronic state is 2-A.
 Alpha  occ. eigenvalues --  -14.24943 -10.11174 -10.09203 -10.08231 -10.07533
 Alpha  occ. eigenvalues --  -10.06837 -10.06027 -10.05325 -10.05312 -10.05304
 Alpha  occ. eigenvalues --  -10.04801  -0.87934  -0.72978  -0.67125  -0.65994
 Alpha  occ. eigenvalues --   -0.62504  -0.57992  -0.56993  -0.53747  -0.48585
 Alpha  occ. eigenvalues --   -0.46437  -0.42568  -0.40917  -0.36355  -0.35396
 Alpha  occ. eigenvalues --   -0.33709  -0.33439  -0.31861  -0.31394  -0.29390
 Alpha  occ. eigenvalues --   -0.29104  -0.28818  -0.28039  -0.27674  -0.26727
 Alpha  occ. eigenvalues --   -0.26040  -0.25844  -0.23680  -0.22718  -0.22232
 Alpha  occ. eigenvalues --   -0.13453  -0.10582   0.04695
 Alpha virt. eigenvalues --    0.06842   0.07526   0.07748   0.09074   0.09176
 Alpha virt. eigenvalues --    0.09938   0.10229   0.11131   0.11421   0.12101
 Alpha virt. eigenvalues --    0.12607   0.12803   0.13268   0.14111   0.14476

  Beta  occ. eigenvalues --  -14.24943 -10.11162 -10.09201 -10.08223 -10.07522
  Beta  occ. eigenvalues --  -10.06800 -10.05991 -10.05303 -10.05302 -10.05266
  Beta  occ. eigenvalues --  -10.04794  -0.87928  -0.72955  -0.67099  -0.65964
  Beta  occ. eigenvalues --   -0.62466  -0.57920  -0.56948  -0.53687  -0.48542
  Beta  occ. eigenvalues --   -0.46399  -0.42533  -0.40881  -0.36325  -0.35345
  Beta  occ. eigenvalues --   -0.33674  -0.33406  -0.31830  -0.31351  -0.29352
  Beta  occ. eigenvalues --   -0.29070  -0.28787  -0.28009  -0.27640  -0.26698
  Beta  occ. eigenvalues --   -0.26012  -0.25800  -0.23631  -0.22673  -0.22196
  Beta  occ. eigenvalues --   -0.13446  -0.10568
  Beta virt. eigenvalues --    0.06968   0.07776   0.07956   0.08496   0.09642
  Beta virt. eigenvalues --    0.09739   0.10453   0.10763   0.11634   0.12030
  Beta virt. eigenvalues --    0.12685   0.12784   0.13120   0.13680   0.14496

 Mulliken charges and spin densities:
               1          2
     1  C    3.354142  -4.148791
     2  C   -1.130393   1.133152
     3  C   -1.811226   1.819989
     4  C    1.368964  -1.794715
     5  C   -1.119292   1.075692
     6  N    0.372651   0.174415
     7  C   -1.094524   0.453644
     8  C    1.856425  -2.437633
     9  C   -1.398008   2.094224
    10  C    0.302662  -0.924206
    11  C    1.464629  -2.196297
    12  H   -0.213739   0.389449
    13  H   -0.465425   0.623374
    14  H   -0.109494   0.258297
    15  H   -0.240610   0.384550
    16  H    0.060740   0.072731
    17  H   -0.305201   0.442942
    18  H    0.072047   0.094264
    19  H   -0.151095   0.300361
    20  H   -0.467942   0.623952
    21  H   -0.070599   0.234831
    22  H   -0.100090   0.257963
    23  H   -0.034410   0.185467
    24  H   -0.226575   0.382395
    25  H    0.189319  -0.042194
    26  H   -0.361310   0.501460
    27  H   -0.233171   0.377011
    28  H   -0.508473   0.663672
 Sum of Mulliken charges =  -1.00000   1.00000

 Dipole moment (field-independent basis, Debye):
    X=             -4.0991    Y=             -1.8429    Z=             -2.8747  Tot=              5.3350
 Quadrupole moment (field-independent basis, Debye-Ang):
   XX=           -134.8556   YY=           -111.8887   ZZ=           -110.7882
   XY=              3.7533   XZ=             -0.1340   YZ=             -1.6648

 Summary of Natural Population Analysis:

                                       Natural Population
                Natural  -----------------------------------------------
    Atom  No    Charge         Core      Valence    Rydberg      Total
 -----------------------------------------------------------------------
      C    1   -0.30269      0.99963     2.29755    0.00551     3.30269
      C    2    0.07873      0.99952     1.90798    0.01377     2.92127
      C    3   -0.15113      0.99950     2.14319    0.00844     3.15113
      C    4   -0.14849      0.99957     2.13932    0.00961     3.14849
      C    5   -0.02357      0.99955     2.01326    0.01077     3.02357
      N    6   -0.21033      0.99962     2.69823    0.01248     3.71033
      C    7   -0.00181      0.99956     1.98819    0.01407     3.00181
      C    8   -0.28668      0.99964     2.28108    0.00596     3.28668
      C    9   -0.11291      0.99959     2.10339    0.00994     3.11291
      C   10   -0.28586      0.99964     2.28034    0.00587     3.28586
      C   11   -0.28531      0.99965     2.27956    0.00611     3.28531
      H   12    0.10609      0.00000     0.39229    0.00162     0.39391
      H   13    0.10831      0.00000     0.39067    0.00102     0.39169
      H   14    0.10520      0.00000     0.39331    0.00149     0.39480
      H   15    0.10156      0.00000     0.39772    0.00072     0.39844
      H   16    0.10040      0.00000     0.39895    0.00066     0.39960
      H   17    0.10016      0.00000     0.39872    0.00112     0.39984
      H   18    0.10299      0.00000     0.39426    0.00275     0.39701
      H   19    0.09796      0.00000     0.40067    0.00137     0.40204
      H   20    0.10646      0.00000     0.39224    0.00130     0.39354
      H   21    0.10411      0.00000     0.39474    0.00115     0.39589
      H   22    0.09280      0.00000     0.40510    0.00210     0.40720
      H   23    0.09678      0.00000     0.40199    0.00123     0.40322
      H   24    0.09923      0.00000     0.39999    0.00078     0.40077
      H   25    0.10543      0.00000     0.39336    0.00121     0.39457
      H   26    0.10239      0.00000     0.39593    0.00168     0.39761
      H   27    0.10111      0.00000     0.39756    0.00133     0.39889
      H   28    0.09905      0.00000     0.39913    0.00182     0.40095
 =======================================================================
   * Total *    0.00000     10.99547    30.87869    0.12584    42.00000

 Normal termination of Gaussian 16 at Tue Dec  8 20:00:56 2020.
