 Gaussian 16, Revision A.03,

 -----------------------------------------------------------
 # opt freq B3LYP/6-31G(d) empiricaldispersion=gd3bj scf=xqc
 -----------------------------------------------------------

 -------------------------------
 CID_104955889_JID_8141_neutraal
 -------------------------------
 Symbolic Z-matrix:
 Charge =  0 Multiplicity = 1

 SCF Done:  E(RB3LYP) =  -750.954414282     A.U. after   14 cycles
 SCF Done:  E(RB3LYP) =  -750.959860094     A.U. after   12 cycles
 SCF Done:  E(RB3LYP) =  -750.959697890     A.U. after   12 cycles
 SCF Done:  E(RB3LYP) =  -750.960718887     A.U. after   11 cycles
 SCF Done:  E(RB3LYP) =  -750.961380397     A.U. after   11 cycles
 SCF Done:  E(RB3LYP) =  -750.961620965     A.U. after   11 cycles
 SCF Done:  E(RB3LYP) =  -750.961798094     A.U. after   11 cycles
 SCF Done:  E(RB3LYP) =  -750.961862777     A.U. after   10 cycles
 SCF Done:  E(RB3LYP) =  -750.961940770     A.U. after   11 cycles
 SCF Done:  E(RB3LYP) =  -750.962100328     A.U. after   11 cycles
 SCF Done:  E(RB3LYP) =  -750.964721374     A.U. after    9 cycles
 SCF Done:  E(RB3LYP) =  -750.964721985     A.U. after    9 cycles
 SCF Done:  E(RB3LYP) =  -750.964722102     A.U. after    7 cycles
 SCF Done:  E(RB3LYP) =  -750.964722157     A.U. after    6 cycles
 SCF Done:  E(RB3LYP) =  -750.964722199     A.U. after    6 cycles
 SCF Done:  E(RB3LYP) =  -750.964722223     A.U. after    6 cycles
 Optimization completed.
    -- Stationary point found.
 Normal termination of Gaussian 16 at Fri Dec 11 19:29:29 2020.

 --------------------------------------------------------------------
 #N Geom=AllCheck Guess=TCheck SCRF=Check GenChk RB3LYP/6-31G(d) Freq
 --------------------------------------------------------------------

 Structure from the checkpoint file:  "JID_8141.chk"
 -------------------------------
 CID_104955889_JID_8141_neutraal
 -------------------------------
 Charge =  0 Multiplicity = 1

 SCF Done:  E(RB3LYP) =  -750.964722223     A.U. after    1 cycles

  Exact polarizability: 197.262  -8.920 168.058 -10.592  -3.010 136.721
 Approx polarizability: 257.989 -14.866 259.562 -22.999  -7.916 216.829

                      1                      2                      3
                      A                      A                      A
 Frequencies --     31.7485                60.1394                66.7785
 Red. masses --      3.3720                 3.3791                 3.6808
 Frc consts  --      0.0020                 0.0072                 0.0097
 IR Inten    --      0.3838                 0.0409                 1.3307

                      4                      5                      6
                      A                      A                      A
 Frequencies --     90.4639               111.2671               137.3150
 Red. masses --      1.0376                 2.6224                 1.0509
 Frc consts  --      0.0050                 0.0191                 0.0117
 IR Inten    --      0.1809                 0.9858                 0.5351

                      7                      8                      9
                      A                      A                      A
 Frequencies --    159.6408               176.9571               183.6540
 Red. masses --      2.9995                 2.0391                 1.6273
 Frc consts  --      0.0450                 0.0376                 0.0323
 IR Inten    --      4.6230                 0.5982                 0.6367

                     10                     11                     12
                      A                      A                      A
 Frequencies --    214.7372               223.6250               234.4778
 Red. masses --      1.6546                 1.4235                 1.3382
 Frc consts  --      0.0450                 0.0419                 0.0433
 IR Inten    --      0.0162                 2.0828                 0.1348

                     13                     14                     15
                      A                      A                      A
 Frequencies --    239.0942               257.7758               267.5532
 Red. masses --      2.1380                 2.5133                 2.5774
 Frc consts  --      0.0720                 0.0984                 0.1087
 IR Inten    --      4.1158                 2.7024                 0.3624

                     16                     17                     18
                      A                      A                      A
 Frequencies --    289.8588               308.0094               328.0778
 Red. masses --      2.4070                 2.7398                 2.3720
 Frc consts  --      0.1192                 0.1531                 0.1504
 IR Inten    --      1.5826                 1.7798                 0.1641

                     19                     20                     21
                      A                      A                      A
 Frequencies --    355.3717               371.2462               411.2326
 Red. masses --      3.6649                 2.1907                 2.6523
 Frc consts  --      0.2727                 0.1779                 0.2643
 IR Inten    --      2.1804                 2.0207                 1.5236

                     22                     23                     24
                      A                      A                      A
 Frequencies --    430.8197               467.6562               490.2912
 Red. masses --      1.9882                 2.4046                 2.3477
 Frc consts  --      0.2174                 0.3098                 0.3325
 IR Inten    --      1.7675                 8.2929                15.2871

                     25                     26                     27
                      A                      A                      A
 Frequencies --    495.8491               545.6244               572.7099
 Red. masses --      2.8845                 3.7227                 3.9887
 Frc consts  --      0.4179                 0.6530                 0.7708
 IR Inten    --     12.3052                15.3251                 0.2337

                     28                     29                     30
                      A                      A                      A
 Frequencies --    597.8556               606.4644               627.3748
 Red. masses --      3.0886                 3.7355                 3.8390
 Frc consts  --      0.6504                 0.8095                 0.8903
 IR Inten    --     20.5288                 7.2135                 7.1379

                     31                     32                     33
                      A                      A                      A
 Frequencies --    645.7574               663.2380               679.2944
 Red. masses --      4.8528                 3.7303                 2.5951
 Frc consts  --      1.1923                 0.9668                 0.7055
 IR Inten    --      4.2172                 8.5879                 9.2100

                     34                     35                     36
                      A                      A                      A
 Frequencies --    728.0468               748.8881               765.7379
 Red. masses --      2.0791                 2.3213                 2.1600
 Frc consts  --      0.6493                 0.7670                 0.7462
 IR Inten    --     35.2941                 6.2072                18.0741

                     37                     38                     39
                      A                      A                      A
 Frequencies --    771.6382               837.3234               845.5761
 Red. masses --      2.3957                 2.3055                 1.8896
 Frc consts  --      0.8405                 0.9524                 0.7960
 IR Inten    --      6.9434                 1.6254                 0.7869

                     40                     41                     42
                      A                      A                      A
 Frequencies --    861.9971               908.4654               935.7221
 Red. masses --      2.0105                 2.1582                 2.4109
 Frc consts  --      0.8802                 1.0495                 1.2437
 IR Inten    --      7.6028                 1.0455                 1.0916

                     43                     44                     45
                      A                      A                      A
 Frequencies --    959.2230               966.7203               970.2684
 Red. masses --      1.8604                 1.5651                 1.5824
 Frc consts  --      1.0086                 0.8618                 0.8777
 IR Inten    --      1.8647                 0.1962                 2.9547

                     46                     47                     48
                      A                      A                      A
 Frequencies --    973.6759              1007.8913              1019.6690
 Red. masses --      1.9094                 2.2960                 1.5736
 Frc consts  --      1.0665                 1.3742                 0.9640
 IR Inten    --      1.2903                 2.1420                 3.0753

                     49                     50                     51
                      A                      A                      A
 Frequencies --   1025.3171              1030.9906              1053.8268
 Red. masses --      1.6019                 5.4039                 1.8994
 Frc consts  --      0.9922                 3.3843                 1.2428
 IR Inten    --      4.7424                23.8936                 0.8939

                     52                     53                     54
                      A                      A                      A
 Frequencies --   1070.9247              1078.0152              1095.1319
 Red. masses --      1.7373                 1.4759                 1.5552
 Frc consts  --      1.1739                 1.0106                 1.0989
 IR Inten    --      1.0353                 2.9727                 2.4262

                     55                     56                     57
                      A                      A                      A
 Frequencies --   1105.3143              1123.2921              1141.0283
 Red. masses --      1.9338                 1.6246                 1.4935
 Frc consts  --      1.3920                 1.2078                 1.1456
 IR Inten    --     10.8108                 3.8003                11.8776

                     58                     59                     60
                      A                      A                      A
 Frequencies --   1155.4608              1170.8580              1181.0657
 Red. masses --      1.3579                 1.9995                 2.3984
 Frc consts  --      1.0681                 1.6150                 1.9711
 IR Inten    --     22.5476                 2.0966                 0.8598

                     61                     62                     63
                      A                      A                      A
 Frequencies --   1197.8068              1200.8556              1230.8263
 Red. masses --      1.7351                 1.9260                 2.6888
 Frc consts  --      1.4667                 1.6364                 2.4000
 IR Inten    --      2.2192                18.9843                36.8697

                     64                     65                     66
                      A                      A                      A
 Frequencies --   1236.1277              1248.1993              1263.6911
 Red. masses --      1.8732                 1.9426                 2.0952
 Frc consts  --      1.6864                 1.7832                 1.9713
 IR Inten    --      0.5656                 3.3603                 4.8847

                     67                     68                     69
                      A                      A                      A
 Frequencies --   1288.1585              1291.6433              1318.8426
 Red. masses --      1.5049                 1.8251                 1.4409
 Frc consts  --      1.4713                 1.7940                 1.4766
 IR Inten    --      0.8909                 3.8394                 0.5939

                     70                     71                     72
                      A                      A                      A
 Frequencies --   1324.3240              1350.8123              1353.3647
 Red. masses --      1.8139                 1.5037                 1.8235
 Frc consts  --      1.8743                 1.6166                 1.9678
 IR Inten    --      0.8855                 1.4011                16.2535

                     73                     74                     75
                      A                      A                      A
 Frequencies --   1365.8231              1369.9304              1389.8298
 Red. masses --      2.3552                 1.9481                 2.5854
 Frc consts  --      2.5887                 2.1540                 2.9424
 IR Inten    --     46.9233                 1.7665                13.9665

                     76                     77                     78
                      A                      A                      A
 Frequencies --   1422.7735              1434.9159              1435.7132
 Red. masses --      1.5689                 1.2802                 1.3364
 Frc consts  --      1.8712                 1.5531                 1.6230
 IR Inten    --     25.8951                14.9567                 2.3059

                     79                     80                     81
                      A                      A                      A
 Frequencies --   1439.3893              1454.8590              1465.9488
 Red. masses --      1.3206                 1.2349                 1.4904
 Frc consts  --      1.6121                 1.5400                 1.8870
 IR Inten    --      9.7050                16.8614                10.5327

                     82                     83                     84
                      A                      A                      A
 Frequencies --   1489.0352              1496.6411              1512.4670
 Red. masses --      2.0403                 2.2646                 1.0655
 Frc consts  --      2.6653                 2.9886                 1.4360
 IR Inten    --     44.1940                10.1426                 1.3069

                     85                     86                     87
                      A                      A                      A
 Frequencies --   1513.5321              1514.3227              1517.1066
 Red. masses --      1.1055                 1.0828                 1.0646
 Frc consts  --      1.4921                 1.4630                 1.4436
 IR Inten    --      1.0238                15.7519                 1.8352

                     88                     89                     90
                      A                      A                      A
 Frequencies --   1523.7530              1525.4719              1529.9280
 Red. masses --      1.1126                 1.0784                 1.0644
 Frc consts  --      1.5220                 1.4786                 1.4679
 IR Inten    --      0.4504                 1.7816                 0.3274

                     91                     92                     93
                      A                      A                      A
 Frequencies --   1531.7579              1536.9279              1539.8403
 Red. masses --      1.0779                 1.0682                 1.1122
 Frc consts  --      1.4901                 1.4867                 1.5538
 IR Inten    --     11.1949                 1.0957                15.8764

                     94                     95                     96
                      A                      A                      A
 Frequencies --   1541.6263              1553.3432              1556.8764
 Red. masses --      1.0985                 1.0632                 1.0892
 Frc consts  --      1.5381                 1.5114                 1.5554
 IR Inten    --      4.9472                 3.9862                 3.0284

                     97                     98                     99
                      A                      A                      A
 Frequencies --   1567.4755              1628.5333              3034.3972
 Red. masses --      1.8024                 5.3124                 1.0400
 Frc consts  --      2.6091                 8.3011                 5.6417
 IR Inten    --     27.5143                16.0518                14.3844

                    100                    101                    102
                      A                      A                      A
 Frequencies --   3036.5469              3046.4727              3050.9700
 Red. masses --      1.0368                 1.0408                 1.0418
 Frc consts  --      5.6328                 5.6910                 5.7136
 IR Inten    --     44.1931                 8.9567                69.8638

                    103                    104                    105
                      A                      A                      A
 Frequencies --   3052.8302              3059.5018              3065.9981
 Red. masses --      1.0434                 1.0821                 1.0641
 Frc consts  --      5.7295                 5.9680                 5.8933
 IR Inten    --     35.3811                47.4799                25.8577

                    106                    107                    108
                      A                      A                      A
 Frequencies --   3072.6308              3080.3555              3080.4319
 Red. masses --      1.0729                 1.0755                 1.0987
 Frc consts  --      5.9680                 6.0123                 6.1427
 IR Inten    --     29.5499                39.0887                20.8766

                    109                    110                    111
                      A                      A                      A
 Frequencies --   3092.5470              3094.3455              3097.6890
 Red. masses --      1.0869                 1.0957                 1.1017
 Frc consts  --      6.1243                 6.1813                 6.2285
 IR Inten    --     25.0606                76.0571                 1.8520

                    112                    113                    114
                      A                      A                      A
 Frequencies --   3105.2410              3105.7572              3107.7371
 Red. masses --      1.1024                 1.1026                 1.1007
 Frc consts  --      6.2632                 6.2664                 6.2635
 IR Inten    --     36.9627                56.4902                31.9894

                    115                    116                    117
                      A                      A                      A
 Frequencies --   3123.1502              3143.2791              3146.9028
 Red. masses --      1.0962                 1.0976                 1.0951
 Frc consts  --      6.2995                 6.3895                 6.3893
 IR Inten    --     21.8535                11.0305                39.5316

                    118                    119                    120
                      A                      A                      A
 Frequencies --   3151.7525              3153.5877              3162.9716
 Red. masses --      1.0949                 1.0939                 1.0911
 Frc consts  --      6.4079                 6.4097                 6.4312
 IR Inten    --     22.3801                27.2166                10.8965

                    121                    122                    123
                      A                      A                      A
 Frequencies --   3171.3251              3285.3580              3547.1343
 Red. masses --      1.1032                 1.0972                 1.0737
 Frc consts  --      6.5369                 6.9773                 7.9597
 IR Inten    --      6.4397                 2.2340                 1.3748

 - Thermochemistry -
 -------------------
 Temperature   298.150 Kelvin.  Pressure   1.00000 Atm.
 Atom     1 has atomic number  6 and mass  12.00000

 Molecular mass:   247.20485 amu.
 Principal axes and moments of inertia in atomic units:
                           1         2         3
     Eigenvalues --  2168.817586425.320197064.77962
           X            0.99996  -0.00862  -0.00219
           Y            0.00860   0.99993  -0.00837
           Z            0.00227   0.00835   0.99996
 This molecule is an asymmetric top.
 Rotational symmetry number  1.
 Warning -- assumption of classical behavior for rotation
           may cause significant error
 Rotational temperatures (Kelvin)      0.03994     0.01348     0.01226
 Rotational constants (GHZ):           0.83213     0.28088     0.25546
 Zero-point vibrational energy    1017456.3 (Joules/Mol)
                                  243.17790 (Kcal/Mol)
 Warning -- explicit consideration of  29 degrees of freedom as
           vibrations may cause significant error
 Vibrational temperatures:     45.68    86.53    96.08   130.16   160.09
          (Kelvin)            197.57   229.69   254.60   264.24   308.96
                              321.75   337.36   344.00   370.88   384.95
                              417.04   443.16   472.03   511.30   534.14
                              591.67   619.85   672.85   705.42   713.42
                              785.03   824.00   860.18   872.57   902.65
                              929.10   954.25   977.35  1047.50  1077.48
                             1101.73  1110.22  1204.72  1216.60  1240.22
                             1307.08  1346.30  1380.11  1390.89  1396.00
                             1400.90  1450.13  1467.08  1475.20  1483.37
                             1516.22  1540.82  1551.02  1575.65  1590.30
                             1616.17  1641.69  1662.45  1684.60  1699.29
                             1723.38  1727.76  1770.88  1778.51  1795.88
                             1818.17  1853.37  1858.39  1897.52  1905.41
                             1943.52  1947.19  1965.11  1971.02  1999.66
                             2047.05  2064.52  2065.67  2070.96  2093.22
                             2109.17  2142.39  2153.33  2176.10  2177.64
                             2178.77  2182.78  2192.34  2194.81  2201.23
                             2203.86  2211.30  2215.49  2218.06  2234.91
                             2240.00  2255.25  2343.10  4365.82  4368.91
                             4383.19  4389.67  4392.34  4401.94  4411.29
                             4420.83  4431.94  4432.05  4449.49  4452.07
                             4456.88  4467.75  4468.49  4471.34  4493.52
                             4522.48  4527.69  4534.67  4537.31  4550.81
                             4562.83  4726.90  5103.54

 Zero-point correction=                           0.387529 (Hartree/Particle)
 Thermal correction to Energy=                    0.405725
 Thermal correction to Enthalpy=                  0.406669
 Thermal correction to Gibbs Free Energy=         0.342505
 Sum of electronic and zero-point Energies=           -750.577194
 Sum of electronic and thermal Energies=              -750.558997
 Sum of electronic and thermal Enthalpies=            -750.558053
 Sum of electronic and thermal Free Energies=         -750.622217

                     E (Thermal)             CV                S
                      KCal/Mol        Cal/Mol-Kelvin    Cal/Mol-Kelvin
 Total                  254.596             72.066            135.045
 Electronic               0.000              0.000              0.000
 Translational            0.889              2.981             42.416
 Rotational               0.889              2.981             32.954
 Vibrational            252.819             66.104             59.676
 Vibration     1          0.594              1.983              5.717
 Vibration     2          0.597              1.973              4.453
 Vibration     3          0.598              1.970              4.246
 Vibration     4          0.602              1.956              3.650
 Vibration     5          0.607              1.940              3.247
 Vibration     6          0.614              1.916              2.841
 Vibration     7          0.622              1.892              2.554
 Vibration     8          0.628              1.871              2.360
 Vibration     9          0.631              1.862              2.291
 Vibration    10          0.645              1.819              2.003
 Vibration    11          0.649              1.805              1.930
 Vibration    12          0.654              1.788              1.844
 Vibration    13          0.657              1.781              1.810
 Vibration    14          0.667              1.750              1.677
 Vibration    15          0.673              1.733              1.612
 Vibration    16          0.686              1.693              1.475
 Vibration    17          0.698              1.658              1.373
 Vibration    18          0.711              1.619              1.270
 Vibration    19          0.731              1.564              1.142
 Vibration    20          0.743              1.531              1.075
 Vibration    21          0.775              1.446              0.922
 Vibration    22          0.792              1.403              0.856
 Vibration    23          0.825              1.322              0.744
 Vibration    24          0.846              1.272              0.683
 Vibration    25          0.851              1.259              0.669
 Vibration    26          0.901              1.149              0.553
 Vibration    27          0.929              1.090              0.499
 Vibration    28          0.956              1.036              0.453
 Vibration    29          0.965              1.018              0.439

 Optimization completed.
    -- Stationary point found.
 Normal termination of Gaussian 16 at Fri Dec 11 19:54:08 2020.

 ----------------------------------------------------------------------
 # B3LYP/6-311++G(d,p) empiricaldispersion=gd3bj scf=xqc pop=npa geom=c
 heck
 ----------------------------------------------------------------------

 ---------------------------------------
 CID_104955889_JID_8141_Energie_neutraal
 ---------------------------------------
 Structure from the checkpoint file:  "JID_8141.chk"
 Charge =  0 Multiplicity = 1

 SCF Done:  E(RB3LYP) =  -751.164640644     A.U. after   15 cycles
 Normal termination of Gaussian 16 at Fri Dec 11 20:04:32 2020.

 ----------------------------------------------------------------------
 # B3LYP/6-311++G(d,p) empiricaldispersion=gd3bj scf=xqc pop=npa geom=c
 heck
 ----------------------------------------------------------------------

 -------------------------------------
 CID_104955889_JID_8141_Energie_kation
 -------------------------------------
 Structure from the checkpoint file:  "JID_8141.chk"
 Charge =  1 Multiplicity = 2

 SCF Done:  E(UB3LYP) =  -750.905889334     A.U. after   23 cycles
 Normal termination of Gaussian 16 at Fri Dec 11 20:26:02 2020.
 Gaussian 16:  ES64L-G16RevA.03 25-Dec-2016

 ----------------------------------------------------------------------
 # B3LYP/6-311++G(d,p) empiricaldispersion=gd3bj scf=xqc pop=npa geom=c
 heck
 ----------------------------------------------------------------------

 ------------------------------------
 CID_104955889_JID_8141_Energie_anion
 ------------------------------------
 Structure from the checkpoint file:  "JID_8141.chk"
 Charge = -1 Multiplicity = 2

                         Standard orientation:
 ---------------------------------------------------------------------
 Center     Atomic      Atomic             Coordinates (Angstroms)
 Number     Number       Type             X           Y           Z
 ---------------------------------------------------------------------
      1          6           0        2.243445    2.588899   -0.419222
      2          6           0        2.458797    1.148613   -0.078205
      3          7           0        3.521824    0.481924   -0.536781
      4          7           0        3.411481   -0.760861   -0.021932
      5          6           0        2.303381   -0.903776    0.760325
      6          6           0        1.643146    0.317909    0.745244
      7          7           0        0.497485    0.711286    1.463326
      8          6           0       -0.858486    0.209426    1.197003
      9          6           0       -1.009902   -1.338985    1.174333
     10          6           0       -1.871079   -1.595710   -0.081990
     11          6           0       -0.953639   -1.377549   -1.306490
     12          6           0       -0.769423    0.167936   -1.329198
     13          6           0       -1.592449    0.657427   -0.112531
     14          6           0       -2.801844   -0.348996   -0.124696
     15          6           0       -3.675576   -0.263104   -1.386305
     16          6           0       -3.759274   -0.244401    1.074705
     17          6           0       -1.922635    2.139847   -0.139196
     18          6           0        4.334975   -1.792154   -0.439337
     19          1           0        3.029536    2.926947   -1.099094
     20          1           0        1.273579    2.745023   -0.908883
     21          1           0        2.267540    3.232649    0.470258
     22          1           0        2.094884   -1.827013    1.278402
     23          1           0        0.473990    1.720383    1.562356
     24          1           0       -1.439740    0.610695    2.033372
     25          1           0       -0.047217   -1.844722    1.096089
     26          1           0       -1.487772   -1.699701    2.090207
     27          1           0       -2.385165   -2.562378   -0.075428
     28          1           0       -0.000045   -1.902561   -1.190470
     29          1           0       -1.416041   -1.744906   -2.227876
     30          1           0        0.277569    0.460454   -1.258376
     31          1           0       -1.159776    0.608215   -2.252693
     32          1           0       -4.388568   -1.096184   -1.406047
     33          1           0       -4.259595    0.664862   -1.386346
     34          1           0       -3.108329   -0.294566   -2.318165
     35          1           0       -3.275737   -0.366492    2.045778
     36          1           0       -4.270153    0.725794    1.078262
     37          1           0       -4.533327   -1.017355    0.999401
     38          1           0       -2.464308    2.413871   -1.051600
     39          1           0       -2.538605    2.432246    0.720211
     40          1           0       -1.008435    2.746383   -0.111905
     41          1           0        3.982884   -2.305392   -1.342564
     42          1           0        5.296863   -1.321757   -0.648759
     43          1           0        4.453814   -2.523227    0.364943
 ---------------------------------------------------------------------

 SCF Done:  E(UB3LYP) =  -751.151186816     A.U. after   32 cycles

 The electronic state is 2-A.
 Alpha  occ. eigenvalues --  -14.29018 -14.22895 -14.21689 -10.11610 -10.10544
 Alpha  occ. eigenvalues --  -10.10191 -10.10074 -10.09631 -10.08574 -10.08082
 Alpha  occ. eigenvalues --  -10.08031 -10.07425 -10.06726 -10.06589 -10.06557
 Alpha  occ. eigenvalues --  -10.06350 -10.06330 -10.06214  -0.95239  -0.82790
 Alpha  occ. eigenvalues --   -0.77768  -0.74947  -0.68278  -0.66734  -0.66152
 Alpha  occ. eigenvalues --   -0.65210  -0.63938  -0.58569  -0.58019  -0.56703
 Alpha  occ. eigenvalues --   -0.53957  -0.51903  -0.48298  -0.47282  -0.44451
 Alpha  occ. eigenvalues --   -0.42480  -0.41748  -0.40059  -0.38811  -0.38281
 Alpha  occ. eigenvalues --   -0.37961  -0.37166  -0.35174  -0.34218  -0.33543
 Alpha  occ. eigenvalues --   -0.32732  -0.32196  -0.31521  -0.30699  -0.30173
 Alpha  occ. eigenvalues --   -0.29717  -0.29392  -0.29175  -0.28554  -0.28422
 Alpha  occ. eigenvalues --   -0.27941  -0.26595  -0.24944  -0.24286  -0.23748
 Alpha  occ. eigenvalues --   -0.22816  -0.22220  -0.20879  -0.20087  -0.19527
 Alpha  occ. eigenvalues --   -0.17596  -0.15054  -0.10374   0.04054
 Alpha virt. eigenvalues --    0.05478   0.06396   0.07018   0.07713   0.08194
 Alpha virt. eigenvalues --    0.08385   0.08832   0.08973   0.09869   0.10200
 Alpha virt. eigenvalues --    0.10304   0.10987   0.11340   0.11503   0.11850

  Beta  occ. eigenvalues --  -14.29016 -14.22887 -14.21681 -10.11567 -10.10537
  Beta  occ. eigenvalues --  -10.10180 -10.10073 -10.09630 -10.08572 -10.08081
  Beta  occ. eigenvalues --  -10.08016 -10.07418 -10.06717 -10.06563 -10.06548
  Beta  occ. eigenvalues --  -10.06325 -10.06307 -10.06205  -0.95232  -0.82776
  Beta  occ. eigenvalues --   -0.77756  -0.74931  -0.68264  -0.66709  -0.66130
  Beta  occ. eigenvalues --   -0.65179  -0.63915  -0.58523  -0.57978  -0.56658
  Beta  occ. eigenvalues --   -0.53921  -0.51874  -0.48274  -0.47261  -0.44426
  Beta  occ. eigenvalues --   -0.42444  -0.41710  -0.40026  -0.38780  -0.38248
  Beta  occ. eigenvalues --   -0.37936  -0.37139  -0.35149  -0.34194  -0.33522
  Beta  occ. eigenvalues --   -0.32695  -0.32171  -0.31500  -0.30673  -0.30148
  Beta  occ. eigenvalues --   -0.29691  -0.29370  -0.29157  -0.28529  -0.28399
  Beta  occ. eigenvalues --   -0.27917  -0.26576  -0.24921  -0.24261  -0.23730
  Beta  occ. eigenvalues --   -0.22787  -0.22198  -0.20861  -0.20067  -0.19511
  Beta  occ. eigenvalues --   -0.17583  -0.15041  -0.10362
  Beta virt. eigenvalues --    0.05949   0.06616   0.06857   0.07486   0.08122
  Beta virt. eigenvalues --    0.08629   0.08706   0.09162   0.09253   0.10152
  Beta virt. eigenvalues --    0.10413   0.10708   0.11207   0.11540   0.11717

 Mulliken charges and spin densities:
               1          2
     1  C   -0.069390  -0.755738
     2  C    0.123272  -0.281636
     3  N   -0.262859   0.246283
     4  N    0.127109   0.017758
     5  C   -0.319590   0.016246
     6  C    0.089889  -0.103827
     7  N    0.068956   0.025749
     8  C    0.347679  -0.562229
     9  C   -0.587841  -0.067136
    10  C    0.458551   0.107075
    11  C   -0.506674  -0.269443
    12  C   -0.055519  -0.310913
    13  C   -1.045585   1.342010
    14  C   -1.260477   1.074466
    15  C    0.416121  -0.900941
    16  C    0.269585  -0.817378
    17  C    1.644633  -2.043621
    18  C    0.931100  -1.210496
    19  H    0.113874   0.054456
    20  H   -0.029538   0.162486
    21  H   -0.020352   0.176421
    22  H   -0.365929   0.568312
    23  H    0.080187   0.170175
    24  H    0.012590   0.197744
    25  H   -0.040923   0.096481
    26  H   -0.020210   0.193091
    27  H   -0.227131   0.473551
    28  H    0.074440   0.101063
    29  H    0.008664   0.150406
    30  H    0.408396  -0.251387
    31  H   -0.043916   0.262367
    32  H   -0.098950   0.249669
    33  H   -0.009280   0.156151
    34  H    0.013758   0.125158
    35  H   -0.108975   0.254738
    36  H    0.021639   0.127906
    37  H   -0.122570   0.277063
    38  H   -0.125854   0.280444
    39  H   -0.216380   0.371876
    40  H    0.168097  -0.037052
    41  H   -0.168822   0.342418
    42  H   -0.114674   0.277657
    43  H   -0.557104   0.712574
 Sum of Mulliken charges =  -1.00000   1.00000

 Dipole moment (field-independent basis, Debye):
    X=             -1.1030    Y=              2.5083    Z=             -0.6154  Tot=              2.8083
 Quadrupole moment (field-independent basis, Debye-Ang):
   XX=           -204.6468   YY=           -163.8286   ZZ=           -152.8935
   XY=             11.7961   XZ=              0.1981   YZ=              1.2977

 Summary of Natural Population Analysis:

                                       Natural Population
                Natural  -----------------------------------------------
    Atom  No    Charge         Core      Valence    Rydberg      Total
 -----------------------------------------------------------------------
      C    1   -0.30114      0.99963     2.29650    0.00502     3.30114
      C    2    0.05718      0.99954     1.92979    0.01349     2.94282
      N    3   -0.15925      0.99970     2.64815    0.01140     3.65925
      N    4   -0.10407      0.99967     2.59245    0.01195     3.60407
      C    5   -0.02136      0.99949     2.01081    0.01106     3.02136
      C    6    0.03151      0.99941     1.95694    0.01213     2.96849
      N    7   -0.33093      0.99968     2.81906    0.01219     3.83093
      C    8    0.00045      0.99951     1.98546    0.01458     2.99955
      C    9   -0.19456      0.99961     2.18579    0.00916     3.19456
      C   10   -0.10492      0.99956     2.09302    0.01234     3.10492
      C   11   -0.19117      0.99963     2.18334    0.00821     3.19117
      C   12   -0.19848      0.99959     2.18970    0.00919     3.19848
      C   13   -0.03484      0.99949     2.01903    0.01632     3.03484
      C   14   -0.03612      0.99952     2.02178    0.01482     3.03612
      C   15   -0.28821      0.99961     2.28128    0.00733     3.28821
      C   16   -0.28828      0.99961     2.28135    0.00732     3.28828
      C   17   -0.29033      0.99960     2.28198    0.00874     3.29033
      C   18   -0.17177      0.99964     2.16388    0.00825     3.17177
      H   19    0.11001      0.00000     0.38898    0.00101     0.38999
      H   20    0.10370      0.00000     0.39494    0.00135     0.39630
      H   21    0.10076      0.00000     0.39803    0.00121     0.39924
      H   22    0.10570      0.00000     0.39305    0.00125     0.39430
      H   23    0.18154      0.00000     0.31546    0.00300     0.31846
      H   24    0.09714      0.00000     0.40124    0.00163     0.40286
      H   25    0.10214      0.00000     0.39604    0.00182     0.39786
      H   26    0.10204      0.00000     0.39690    0.00106     0.39796
      H   27    0.10203      0.00000     0.39702    0.00095     0.39797
      H   28    0.10045      0.00000     0.39821    0.00134     0.39955
      H   29    0.09856      0.00000     0.40050    0.00094     0.40144
      H   30    0.10917      0.00000     0.38895    0.00188     0.39083
      H   31    0.09841      0.00000     0.40056    0.00103     0.40159
      H   32    0.10121      0.00000     0.39792    0.00088     0.39879
      H   33    0.10058      0.00000     0.39855    0.00086     0.39942
      H   34    0.10205      0.00000     0.39697    0.00098     0.39795
      H   35    0.10151      0.00000     0.39736    0.00112     0.39849
      H   36    0.10087      0.00000     0.39822    0.00091     0.39913
      H   37    0.10145      0.00000     0.39765    0.00090     0.39855
      H   38    0.10271      0.00000     0.39632    0.00097     0.39729
      H   39    0.10136      0.00000     0.39756    0.00108     0.39864
      H   40    0.09923      0.00000     0.39945    0.00132     0.40077
      H   41    0.09653      0.00000     0.40213    0.00133     0.40347
      H   42    0.10534      0.00000     0.39319    0.00147     0.39466
      H   43    0.10179      0.00000     0.39601    0.00219     0.39821
 =======================================================================
   * Total *   -0.00000     17.99249    49.78152    0.22598    68.00000

 Normal termination of Gaussian 16 at Fri Dec 11 20:55:55 2020.
