 Gaussian 16, Revision A.03,

 -----------------------------------------------------------
 # opt freq B3LYP/6-31G(d) empiricaldispersion=gd3bj scf=xqc
 -----------------------------------------------------------

 -------------------------------
 CID_137380281_JID_3682_neutraal
 -------------------------------
 Symbolic Z-matrix:
 Charge =  0 Multiplicity = 1

 SCF Done:  E(RB3LYP) =  -1002.21471188     A.U. after   15 cycles
 SCF Done:  E(RB3LYP) =  -1002.22125146     A.U. after   13 cycles
 SCF Done:  E(RB3LYP) =  -1002.22241757     A.U. after   12 cycles
 SCF Done:  E(RB3LYP) =  -1002.22262207     A.U. after   11 cycles
 SCF Done:  E(RB3LYP) =  -1002.22271651     A.U. after   11 cycles
 SCF Done:  E(RB3LYP) =  -1002.22274606     A.U. after   10 cycles
 SCF Done:  E(RB3LYP) =  -1002.22279026     A.U. after   11 cycles
 SCF Done:  E(RB3LYP) =  -1002.22281466     A.U. after   11 cycles
 SCF Done:  E(RB3LYP) =  -1002.22284498     A.U. after   11 cycles
 SCF Done:  E(RB3LYP) =  -1002.22286068     A.U. after   10 cycles
 SCF Done:  E(RB3LYP) =  -1002.22286895     A.U. after    8 cycles
 SCF Done:  E(RB3LYP) =  -1002.22286904     A.U. after    7 cycles
 SCF Done:  E(RB3LYP) =  -1002.22286911     A.U. after    7 cycles
 SCF Done:  E(RB3LYP) =  -1002.22286914     A.U. after    7 cycles
 SCF Done:  E(RB3LYP) =  -1002.22286915     A.U. after    7 cycles
 Optimization completed.
    -- Stationary point found.
 Normal termination of Gaussian 16 at Mon Dec 14 13:09:54 2020.

 --------------------------------------------------------------------
 #N Geom=AllCheck Guess=TCheck SCRF=Check GenChk RB3LYP/6-31G(d) Freq
 --------------------------------------------------------------------

 Structure from the checkpoint file:  "JID_3682.chk"
 -------------------------------
 CID_137380281_JID_3682_neutraal
 -------------------------------
 Charge =  0 Multiplicity = 1

 SCF Done:  E(RB3LYP) =  -1002.22286915     A.U. after    1 cycles

  Exact polarizability: 155.977   3.156 114.431   0.006   0.001  68.932
 Approx polarizability: 224.482  17.944 194.044   0.004   0.016 116.936

                      1                      2                      3
                      A                      A                      A
 Frequencies --     10.3264                25.0181                64.6113
 Red. masses --      5.9738                 2.1355                 2.6997
 Frc consts  --      0.0004                 0.0008                 0.0066
 IR Inten    --      0.6832                 2.2386                 0.2001

                      4                      5                      6
                      A                      A                      A
 Frequencies --    112.5094               129.5009               133.4593
 Red. masses --      2.4987                 4.6596                 2.2479
 Frc consts  --      0.0186                 0.0460                 0.0236
 IR Inten    --      0.1269                 0.1609                 0.1925

                      7                      8                      9
                      A                      A                      A
 Frequencies --    188.4363               228.5411               243.6825
 Red. masses --      1.2643                 1.4440                 6.1176
 Frc consts  --      0.0265                 0.0444                 0.2140
 IR Inten    --      0.6763                23.2883                 2.8194

                     10                     11                     12
                      A                      A                      A
 Frequencies --    267.8352               273.7740               306.5787
 Red. masses --      2.3218                 5.0072                 3.6361
 Frc consts  --      0.0981                 0.2211                 0.2014
 IR Inten    --     16.7635                 1.9467                11.7103

                     13                     14                     15
                      A                      A                      A
 Frequencies --    331.9817               383.2111               395.8509
 Red. masses --      5.9327                 3.0887                 3.8201
 Frc consts  --      0.3852                 0.2672                 0.3527
 IR Inten    --      3.0730                 0.1704                 1.2074

                     16                     17                     18
                      A                      A                      A
 Frequencies --    473.3712               478.9832               519.5496
 Red. masses --      7.6147                 5.8429                 4.9723
 Frc consts  --      1.0053                 0.7898                 0.7908
 IR Inten    --      7.9660                 0.0571                 4.5626

                     19                     20                     21
                      A                      A                      A
 Frequencies --    560.9479               561.8805               632.2753
 Red. masses --      4.0840                 5.2488                 5.8217
 Frc consts  --      0.7572                 0.9763                 1.3712
 IR Inten    --     32.4680                93.2909                 0.3776

                     22                     23                     24
                      A                      A                      A
 Frequencies --    686.5481               720.4024               750.2155
 Red. masses --      4.6597                 4.7819                 4.3545
 Frc consts  --      1.2940                 1.4622                 1.4440
 IR Inten    --    132.6813                57.7281                 0.9205

                     25                     26                     27
                      A                      A                      A
 Frequencies --    843.3961               880.3615               891.3832
 Red. masses --      4.0141                 1.5751                 2.1956
 Frc consts  --      1.6823                 0.7193                 1.0278
 IR Inten    --     10.5462                28.7716               126.5923

                     28                     29                     30
                      A                      A                      A
 Frequencies --    910.7035              1001.8570              1032.2992
 Red. masses --      1.2965                 3.2215                 6.9478
 Frc consts  --      0.6336                 1.9051                 4.3622
 IR Inten    --      0.0003                 5.5053                63.2419

                     31                     32                     33
                      A                      A                      A
 Frequencies --   1091.5596              1105.3639              1108.5043
 Red. masses --      1.5483                 3.1742                 1.2517
 Frc consts  --      1.0869                 2.2850                 0.9062
 IR Inten    --     21.9551                23.6684                 3.5228

                     34                     35                     36
                      A                      A                      A
 Frequencies --   1140.0305              1151.5396              1158.6725
 Red. masses --      8.1795                 1.3091                 1.2333
 Frc consts  --      6.2634                 1.0228                 0.9755
 IR Inten    --    175.2354                 0.1088                 0.0003

                     37                     38                     39
                      A                      A                      A
 Frequencies --   1164.0826              1227.6153              1279.0642
 Red. masses --      3.1850                 2.0313                 1.9755
 Frc consts  --      2.5429                 1.8036                 1.9042
 IR Inten    --      8.7923                 6.4474                46.6289

                     40                     41                     42
                      A                      A                      A
 Frequencies --   1311.8955              1357.9852              1396.8751
 Red. masses --      4.4021                10.7816                 2.5019
 Frc consts  --      4.4638                11.7145                 2.8763
 IR Inten    --      7.5388               192.6496                38.2139

                     43                     44                     45
                      A                      A                      A
 Frequencies --   1439.1020              1473.9347              1493.9165
 Red. masses --      2.6964                 1.2243                 1.7059
 Frc consts  --      3.2901                 1.5671                 2.2431
 IR Inten    --     62.9250                14.3161                58.3915

                     46                     47                     48
                      A                      A                      A
 Frequencies --   1510.8072              1520.1310              1525.0851
 Red. masses --      1.0385                 1.0442                 1.7490
 Frc consts  --      1.3966                 1.4217                 2.3968
 IR Inten    --      0.1279                12.6023                 1.7074

                     49                     50                     51
                      A                      A                      A
 Frequencies --   1539.0939              1558.3455              1567.1145
 Red. masses --      1.1965                 1.7806                 1.9352
 Frc consts  --      1.6699                 2.5477                 2.8001
 IR Inten    --      6.5236                12.3094                78.1153

                     52                     53                     54
                      A                      A                      A
 Frequencies --   1621.9630              1636.9665              3027.7670
 Red. masses --      1.1422                 4.1169                 1.0374
 Frc consts  --      1.7704                 6.4997                 5.6031
 IR Inten    --     54.3760               350.3346                62.9883

                     55                     56                     57
                      A                      A                      A
 Frequencies --   3035.6894              3076.9606              3083.1231
 Red. masses --      1.0400                 1.1048                 1.1058
 Frc consts  --      5.6465                 6.1631                 6.1932
 IR Inten    --     37.4193                22.0825                34.3264

                     58                     59                     60
                      A                      A                      A
 Frequencies --   3159.6969              3171.5873              3223.5649
 Red. masses --      1.0985                 1.0960                 1.0899
 Frc consts  --      6.4613                 6.4954                 6.6726
 IR Inten    --      1.5198                28.1743                12.2162

                     61                     62                     63
                      A                      A                      A
 Frequencies --   3272.6943              3495.3928              3604.1098
 Red. masses --      1.0906                 1.0472                 1.0976
 Frc consts  --      6.8820                 7.5379                 8.4005
 IR Inten    --      5.9228                39.7602                38.2416

 - Thermochemistry -
 -------------------
 Temperature   298.150 Kelvin.  Pressure   1.00000 Atm.
 Atom     1 has atomic number  6 and mass  12.00000

 Molecular mass:   202.05245 amu.
 Principal axes and moments of inertia in atomic units:
                           1         2         3
     Eigenvalues --  1253.115454238.787665083.79837
           X            1.00000   0.00155   0.00002
           Y           -0.00155   1.00000  -0.00004
           Z           -0.00002   0.00004   1.00000
 This molecule is an asymmetric top.
 Rotational symmetry number  1.
 Warning -- assumption of classical behavior for rotation
           may cause significant error
 Rotational temperatures (Kelvin)      0.06912     0.02043     0.01704
 Rotational constants (GHZ):           1.44020     0.42577     0.35500
 Zero-point vibrational energy     463970.0 (Joules/Mol)
                                  110.89149 (Kcal/Mol)
 Warning -- explicit consideration of  20 degrees of freedom as
           vibrations may cause significant error
 Vibrational temperatures:     14.86    36.00    92.96   161.88   186.32
          (Kelvin)            192.02   271.12   328.82   350.60   385.36
                              393.90   441.10   477.65   551.36   569.54
                              681.08   689.15   747.52   807.08   808.42
                              909.70   987.79  1036.50  1079.39  1213.46
                             1266.64  1282.50  1310.30  1441.45  1485.25
                             1570.51  1590.37  1594.89  1640.25  1656.81
                             1667.07  1674.86  1766.26  1840.29  1887.53
                             1953.84  2009.79  2070.55  2120.66  2149.41
                             2173.71  2187.13  2194.26  2214.41  2242.11
                             2254.73  2333.64  2355.23  4356.28  4367.68
                             4427.06  4435.93  4546.10  4563.21  4637.99
                             4708.68  5029.09  5185.51

 Zero-point correction=                           0.176717 (Hartree/Particle)
 Thermal correction to Energy=                    0.190246
 Thermal correction to Enthalpy=                  0.191190
 Thermal correction to Gibbs Free Energy=         0.133940
 Sum of electronic and zero-point Energies=          -1002.046152
 Sum of electronic and thermal Energies=             -1002.032623
 Sum of electronic and thermal Enthalpies=           -1002.031679
 Sum of electronic and thermal Free Energies=        -1002.088929

                     E (Thermal)             CV                S
                      KCal/Mol        Cal/Mol-Kelvin    Cal/Mol-Kelvin
 Total                  119.381             48.284            120.493
 Electronic               0.000              0.000              0.000
 Translational            0.889              2.981             41.815
 Rotational               0.889              2.981             31.668
 Vibrational            117.604             42.322             47.010
 Vibration     1          0.593              1.987              7.947
 Vibration     2          0.593              1.985              6.190
 Vibration     3          0.597              1.971              4.311
 Vibration     4          0.607              1.939              3.225
 Vibration     5          0.612              1.924              2.953
 Vibration     6          0.613              1.920              2.896
 Vibration     7          0.633              1.856              2.243
 Vibration     8          0.651              1.797              1.890
 Vibration     9          0.659              1.773              1.776
 Vibration    10          0.673              1.732              1.610
 Vibration    11          0.676              1.722              1.572
 Vibration    12          0.697              1.661              1.381
 Vibration    13          0.714              1.612              1.250
 Vibration    14          0.752              1.506              1.026
 Vibration    15          0.763              1.479              0.978
 Vibration    16          0.830              1.309              0.728
 Vibration    17          0.835              1.297              0.713
 Vibration    18          0.875              1.207              0.611
 Vibration    19          0.917              1.116              0.522
 Vibration    20          0.918              1.114              0.520

                           ! Non-Optimized Parameters !
 Normal termination of Gaussian 16 at Mon Dec 14 13:14:46 2020.

 ----------------------------------------------------------------------
 # B3LYP/6-311++G(d,p) empiricaldispersion=gd3bj scf=xqc pop=npa geom=c
 heck
 ----------------------------------------------------------------------

 ---------------------------------------
 CID_137380281_JID_3682_Energie_neutraal
 ---------------------------------------
 Structure from the checkpoint file:  "JID_3682.chk"
 Charge =  0 Multiplicity = 1

 SCF Done:  E(RB3LYP) =  -1002.42353439     A.U. after   16 cycles
 Normal termination of Gaussian 16 at Mon Dec 14 13:16:40 2020.

 ----------------------------------------------------------------------
 # B3LYP/6-311++G(d,p) empiricaldispersion=gd3bj scf=xqc pop=npa geom=c
 heck
 ----------------------------------------------------------------------

 -------------------------------------
 CID_137380281_JID_3682_Energie_kation
 -------------------------------------
 Structure from the checkpoint file:  "JID_3682.chk"
 Charge =  1 Multiplicity = 2

 SCF Done:  E(UB3LYP) =  -1002.11020446     A.U. after   29 cycles
 Normal termination of Gaussian 16 at Mon Dec 14 13:21:12 2020.
 Gaussian 16:  ES64L-G16RevA.03 25-Dec-2016

 ----------------------------------------------------------------------
 # B3LYP/6-311++G(d,p) empiricaldispersion=gd3bj scf=xqc pop=npa geom=c
 heck
 ----------------------------------------------------------------------

 ------------------------------------
 CID_137380281_JID_3682_Energie_anion
 ------------------------------------
 Structure from the checkpoint file:  "JID_3682.chk"
 Charge = -1 Multiplicity = 2

                         Standard orientation:
 ---------------------------------------------------------------------
 Center     Atomic      Atomic             Coordinates (Angstroms)
 Number     Number       Type             X           Y           Z
 ---------------------------------------------------------------------
      1          6           0       -2.786656   -2.026686   -0.000075
      2          7           0       -2.857196   -0.574056    0.000448
      3          6           0       -4.147210    0.100069   -0.000325
      4          6           0       -1.703351    0.153203    0.000234
      5          6           0       -0.429241   -0.440275    0.000187
      6          6           0        0.652921    0.426591    0.000208
      7          7           0        0.603230    1.755851    0.000189
      8          7           0       -0.603816    2.324394    0.000025
      9          6           0       -1.699325    1.574528    0.000072
     10         16           0        2.360473   -0.174776   -0.000282
     11          8           0        2.968041    0.177842   -1.282805
     12          8           0        2.970049    0.181568    1.280234
     13          7           0        2.137910   -1.865048    0.002116
     14          1           0       -3.797952   -2.433873    0.000552
     15          1           0       -2.264169   -2.403552    0.889010
     16          1           0       -2.265372   -2.403125   -0.890072
     17          1           0       -4.273136    0.730838    0.888944
     18          1           0       -4.273037    0.729304   -0.890716
     19          1           0       -4.938956   -0.649424    0.000312
     20          1           0       -0.267368   -1.508075    0.000190
     21          1           0       -2.625852    2.137844   -0.000006
     22          1           0        2.575222   -2.246843   -0.834392
     23          1           0        2.574609   -2.244530    0.839998
 ---------------------------------------------------------------------

 SCF Done:  E(UB3LYP) =  -1002.42753452     A.U. after   33 cycles
 SCF Done:  E(UB3LYP) =  -1002.42753452     a.u. after    1 cycles

 The electronic state is 2-A.
 Alpha  occ. eigenvalues --  -88.96344 -19.01811 -19.01806 -14.24962 -14.24775
 Alpha  occ. eigenvalues --  -14.22110 -14.21583 -10.12600 -10.12131 -10.11045
 Alpha  occ. eigenvalues --  -10.10651 -10.08712 -10.07178  -8.02549  -5.98874
 Alpha  occ. eigenvalues --   -5.98776  -5.98596  -1.02111  -0.91219  -0.89991
 Alpha  occ. eigenvalues --   -0.86294  -0.81656  -0.72190  -0.70021  -0.64046
 Alpha  occ. eigenvalues --   -0.60370  -0.57601  -0.53658  -0.49022  -0.44157
 Alpha  occ. eigenvalues --   -0.43834  -0.42415  -0.40743  -0.38889  -0.37792
 Alpha  occ. eigenvalues --   -0.37247  -0.35270  -0.35026  -0.31919  -0.31671
 Alpha  occ. eigenvalues --   -0.31376  -0.30941  -0.28483  -0.26180  -0.24252
 Alpha  occ. eigenvalues --   -0.23563  -0.22102  -0.21666  -0.20155  -0.18845
 Alpha  occ. eigenvalues --   -0.18065  -0.12308  -0.11846   0.03552
 Alpha virt. eigenvalues --    0.05533   0.05944   0.07574   0.07712   0.09054
 Alpha virt. eigenvalues --    0.09430   0.10558   0.11446   0.11915   0.12344
 Alpha virt. eigenvalues --    0.13251   0.13573   0.15146   0.15610   0.15765

  Beta  occ. eigenvalues --  -88.96343 -19.01801 -19.01792 -14.24937 -14.24772
  Beta  occ. eigenvalues --  -14.22147 -14.21267 -10.12607 -10.12075 -10.11001
  Beta  occ. eigenvalues --  -10.10600 -10.08610 -10.06972  -8.02547  -5.98871
  Beta  occ. eigenvalues --   -5.98774  -5.98597  -1.02086  -0.91190  -0.89712
  Beta  occ. eigenvalues --   -0.86249  -0.81611  -0.71851  -0.69811  -0.63960
  Beta  occ. eigenvalues --   -0.60283  -0.57425  -0.53334  -0.48924  -0.44075
  Beta  occ. eigenvalues --   -0.43802  -0.42322  -0.40680  -0.38820  -0.37700
  Beta  occ. eigenvalues --   -0.37093  -0.35221  -0.34920  -0.31855  -0.31600
  Beta  occ. eigenvalues --   -0.30840  -0.30762  -0.28402  -0.26147  -0.24179
  Beta  occ. eigenvalues --   -0.23397  -0.21719  -0.21539  -0.20102  -0.18750
  Beta  occ. eigenvalues --   -0.17139  -0.12051  -0.11441
  Beta virt. eigenvalues --    0.06030   0.06730   0.07665   0.07856   0.08347
  Beta virt. eigenvalues --    0.09803   0.09840   0.10808   0.11763   0.12283
  Beta virt. eigenvalues --    0.12432   0.13392   0.13645   0.15383   0.15547

 Mulliken charges and spin densities:
               1          2
     1  C    0.826962  -1.189686
     2  N   -0.254974   0.262045
     3  C    0.459292  -0.779439
     4  C    0.221228   0.138771
     5  C   -0.490155   0.158765
     6  C   -1.259061   0.028692
     7  N    0.193259  -0.022310
     8  N   -0.151734   0.126480
     9  C   -0.166557  -0.002621
    10  S    1.350264  -0.491861
    11  O   -0.184017  -0.005107
    12  O   -0.193648   0.003868
    13  N   -0.462183  -0.046819
    14  H   -0.515066   0.674252
    15  H   -0.323916   0.488989
    16  H   -0.130687   0.288713
    17  H    0.072400   0.082092
    18  H   -0.200071   0.368405
    19  H   -0.439794   0.567265
    20  H    0.274894  -0.010806
    21  H    0.163843   0.027737
    22  H    0.122702   0.147016
    23  H    0.087021   0.185559
 Sum of Mulliken charges =  -1.00000   1.00000

 Dipole moment (field-independent basis, Debye):
    X=              1.7832    Y=             -1.8501    Z=              0.0722  Tot=              2.5706
 Quadrupole moment (field-independent basis, Debye-Ang):
   XX=           -150.6072   YY=           -123.5808   ZZ=           -106.2596
   XY=            -21.0073   XZ=             -2.4169   YZ=              2.5829

 Summary of Natural Population Analysis:

                                       Natural Population
                Natural  -----------------------------------------------
    Atom  No    Charge         Core      Valence    Rydberg      Total
 -----------------------------------------------------------------------
      C    1   -0.17427      0.99964     2.16643    0.00820     3.17427
      N    2   -0.23962      0.99965     2.72907    0.01090     3.73962
      C    3   -0.17329      0.99964     2.16557    0.00808     3.17329
      C    4    0.09741      0.99949     1.89185    0.01125     2.90259
      C    5   -0.11002      0.99946     2.10186    0.00870     3.11002
      C    6   -0.00648      0.99942     1.98433    0.02273     3.00648
      N    7   -0.15352      0.99966     2.63939    0.01447     3.65352
      N    8   -0.07650      0.99973     2.56150    0.01528     3.57650
      C    9    0.00178      0.99958     1.98549    0.01314     2.99822
      S   10    1.08315      4.99928     1.81486    0.10271     6.91685
      O   11   -0.45812      0.99990     3.45230    0.00591     4.45812
      O   12   -0.45779      0.99990     3.45182    0.00607     4.45779
      N   13   -0.52168      0.99979     3.01075    0.01113     4.02168
      H   14    0.10269      0.00000     0.39550    0.00181     0.39731
      H   15    0.09695      0.00000     0.40152    0.00152     0.40305
      H   16    0.09532      0.00000     0.40316    0.00152     0.40468
      H   17    0.09248      0.00000     0.40628    0.00124     0.40752
      H   18    0.09679      0.00000     0.40169    0.00153     0.40321
      H   19    0.10278      0.00000     0.39598    0.00124     0.39722
      H   20    0.11976      0.00000     0.37845    0.00179     0.38024
      H   21    0.09279      0.00000     0.40517    0.00204     0.40721
      H   22    0.19421      0.00000     0.30370    0.00209     0.30579
      H   23    0.19517      0.00000     0.30244    0.00238     0.30483
 =======================================================================
   * Total *   -0.00000     16.99515    35.74911    0.25574    53.00000

 Normal termination of Gaussian 16 at Mon Dec 14 13:26:29 2020.
