 Gaussian 16, Revision A.03,

 -----------------------------------------------------------
 # opt freq B3LYP/6-31G(d) empiricaldispersion=gd3bj scf=xqc
 -----------------------------------------------------------

 -------------------------------
 CID_113645298_JID_8998_neutraal
 -------------------------------
 Symbolic Z-matrix:
 Charge =  0 Multiplicity = 1

 SCF Done:  E(RB3LYP) =  -788.079307592     A.U. after   15 cycles
 SCF Done:  E(RB3LYP) =  -788.084941422     A.U. after   12 cycles
 SCF Done:  E(RB3LYP) =  -788.085406482     A.U. after   12 cycles
 SCF Done:  E(RB3LYP) =  -788.085958718     A.U. after   12 cycles
 SCF Done:  E(RB3LYP) =  -788.086173391     A.U. after   11 cycles
 SCF Done:  E(RB3LYP) =  -788.086269053     A.U. after   11 cycles
 SCF Done:  E(RB3LYP) =  -788.086361071     A.U. after   11 cycles
 SCF Done:  E(RB3LYP) =  -788.086470539     A.U. after   12 cycles
 SCF Done:  E(RB3LYP) =  -788.086621796     A.U. after   13 cycles
 SCF Done:  E(RB3LYP) =  -788.086650074     A.U. after   12 cycles
 SCF Done:  E(RB3LYP) =  -788.086871397     A.U. after   10 cycles
 SCF Done:  E(RB3LYP) =  -788.086873101     A.U. after   10 cycles
 SCF Done:  E(RB3LYP) =  -788.086873147     A.U. after    9 cycles
 SCF Done:  E(RB3LYP) =  -788.086873209     A.U. after    9 cycles
 SCF Done:  E(RB3LYP) =  -788.086873142     A.U. after    8 cycles
 Optimization completed.
    -- Stationary point found.
 Normal termination of Gaussian 16 at Fri Dec 11 23:33:17 2020.

 --------------------------------------------------------------------
 #N Geom=AllCheck Guess=TCheck SCRF=Check GenChk RB3LYP/6-31G(d) Freq
 --------------------------------------------------------------------

 Structure from the checkpoint file:  "JID_8998.chk"
 -------------------------------
 CID_113645298_JID_8998_neutraal
 -------------------------------
 Charge =  0 Multiplicity = 1

 SCF Done:  E(RB3LYP) =  -788.086873142     A.U. after    1 cycles

  Exact polarizability: 197.615  -4.938 150.087  -5.031  -1.968 142.266
 Approx polarizability: 241.867 -15.763 225.870  -9.057 -14.691 225.597

                      1                      2                      3
                      A                      A                      A
 Frequencies --     11.0901                24.3084                47.5409
 Red. masses --      3.7047                 4.6926                 3.6013
 Frc consts  --      0.0003                 0.0016                 0.0048
 IR Inten    --      0.0745                 0.1856                 0.1226

                      4                      5                      6
                      A                      A                      A
 Frequencies --     56.7502                79.2461                90.4764
 Red. masses --      2.5001                 3.7743                 2.4495
 Frc consts  --      0.0047                 0.0140                 0.0118
 IR Inten    --      0.0409                 0.0734                 0.2151

                      7                      8                      9
                      A                      A                      A
 Frequencies --    120.5804               161.0383               194.7715
 Red. masses --      3.5806                 3.5517                 2.5994
 Frc consts  --      0.0307                 0.0543                 0.0581
 IR Inten    --      0.2052                 1.9956                 0.9736

                     10                     11                     12
                      A                      A                      A
 Frequencies --    218.3690               230.9797               237.6371
 Red. masses --      1.0424                 1.9301                 2.6185
 Frc consts  --      0.0293                 0.0607                 0.0871
 IR Inten    --      0.0352                 0.3095                 0.3541

                     13                     14                     15
                      A                      A                      A
 Frequencies --    256.0139               263.1466               280.4644
 Red. masses --      1.1105                 1.9503                 2.2297
 Frc consts  --      0.0429                 0.0796                 0.1033
 IR Inten    --      0.3813                 4.0523                 2.6696

                     16                     17                     18
                      A                      A                      A
 Frequencies --    288.9920               304.4662               310.2597
 Red. masses --      1.2085                 2.1720                 3.0587
 Frc consts  --      0.0595                 0.1186                 0.1735
 IR Inten    --     50.9896                 8.6048                 0.8074

                     19                     20                     21
                      A                      A                      A
 Frequencies --    329.0651               357.3438               370.5835
 Red. masses --      3.0584                 2.4890                 2.6219
 Frc consts  --      0.1951                 0.1873                 0.2121
 IR Inten    --      1.6419                 2.8163                 3.9981

                     22                     23                     24
                      A                      A                      A
 Frequencies --    395.4055               421.8436               423.5031
 Red. masses --      2.6280                 2.2175                 2.0492
 Frc consts  --      0.2421                 0.2325                 0.2165
 IR Inten    --      0.6489                 0.9731                 2.2955

                     25                     26                     27
                      A                      A                      A
 Frequencies --    470.3475               486.4074               513.8883
 Red. masses --      2.5761                 3.1362                 3.1508
 Frc consts  --      0.3358                 0.4372                 0.4902
 IR Inten    --      1.2039                 1.8488                 0.6641

                     28                     29                     30
                      A                      A                      A
 Frequencies --    519.6540               575.0057               657.4465
 Red. masses --      4.5965                 3.3219                 2.2030
 Frc consts  --      0.7313                 0.6471                 0.5610
 IR Inten    --      0.2951                 6.3660                 1.9471

                     31                     32                     33
                      A                      A                      A
 Frequencies --    687.4353               764.1920               776.1659
 Red. masses --      4.8910                 3.5383                 2.2109
 Frc consts  --      1.3618                 1.2175                 0.7848
 IR Inten    --      1.4482                 2.7668                 7.3035

                     34                     35                     36
                      A                      A                      A
 Frequencies --    786.0362               803.2779               822.1789
 Red. masses --      2.3308                 2.5274                 2.4655
 Frc consts  --      0.8485                 0.9608                 0.9820
 IR Inten    --      1.9518                 9.9826                 8.2808

                     37                     38                     39
                      A                      A                      A
 Frequencies --    829.2577               871.1636               893.5334
 Red. masses --      2.2645                 1.6524                 2.1212
 Frc consts  --      0.9175                 0.7389                 0.9978
 IR Inten    --     18.2068                 4.2412                 7.8391

                     40                     41                     42
                      A                      A                      A
 Frequencies --    900.9551               913.3619               922.2829
 Red. masses --      2.7774                 1.8258                 3.2902
 Frc consts  --      1.3283                 0.8974                 1.6489
 IR Inten    --     18.3152                 3.5385                 8.3174

                     43                     44                     45
                      A                      A                      A
 Frequencies --    933.7440               948.1709               974.3416
 Red. masses --      1.7901                 1.7593                 1.6255
 Frc consts  --      0.9196                 0.9319                 0.9092
 IR Inten    --    101.2134                 0.5816                10.0541

                     46                     47                     48
                      A                      A                      A
 Frequencies --    992.6832               993.7674              1012.1916
 Red. masses --      1.2452                 1.8851                 1.8870
 Frc consts  --      0.7230                 1.0969                 1.1391
 IR Inten    --      1.6137                12.3443                 0.8666

                     49                     50                     51
                      A                      A                      A
 Frequencies --   1019.6918              1030.8776              1038.2421
 Red. masses --      2.6844                 2.2432                 2.2324
 Frc consts  --      1.6445                 1.4045                 1.4178
 IR Inten    --      4.6190                 2.0651                 4.3963

                     52                     53                     54
                      A                      A                      A
 Frequencies --   1058.4608              1064.7982              1080.6795
 Red. masses --      2.8672                 3.8370                 1.6691
 Frc consts  --      1.8926                 2.5632                 1.1485
 IR Inten    --      1.9349                 1.9895                 2.1245

                     55                     56                     57
                      A                      A                      A
 Frequencies --   1112.8837              1122.5139              1131.1127
 Red. masses --      2.4430                 2.0647                 1.8399
 Frc consts  --      1.7827                 1.5328                 1.3870
 IR Inten    --     10.5953                 7.2687                 6.9008

                     58                     59                     60
                      A                      A                      A
 Frequencies --   1141.9593              1157.8056              1167.0470
 Red. masses --      1.3631                 2.0793                 1.4990
 Frc consts  --      1.0473                 1.6423                 1.2029
 IR Inten    --      1.8039                 1.5093                 2.8843

                     61                     62                     63
                      A                      A                      A
 Frequencies --   1183.3224              1219.7224              1232.9080
 Red. masses --      1.8344                 1.5988                 1.9736
 Frc consts  --      1.5134                 1.4014                 1.7675
 IR Inten    --     14.4229                 0.6981                 5.4353

                     64                     65                     66
                      A                      A                      A
 Frequencies --   1245.1976              1276.2896              1291.6498
 Red. masses --      1.7336                 1.8328                 1.6634
 Frc consts  --      1.5837                 1.7590                 1.6351
 IR Inten    --     29.9222                12.1010                17.8674

                     67                     68                     69
                      A                      A                      A
 Frequencies --   1312.4958              1319.2698              1326.5121
 Red. masses --      1.5403                 1.2247                 1.2423
 Frc consts  --      1.5634                 1.2559                 1.2880
 IR Inten    --     49.5753                 8.0680                 6.6278

                     70                     71                     72
                      A                      A                      A
 Frequencies --   1342.7004              1353.5961              1368.3813
 Red. masses --      1.5579                 1.6667                 1.3946
 Frc consts  --      1.6548                 1.7992                 1.5386
 IR Inten    --      9.6358                 6.2333                 2.5126

                     73                     74                     75
                      A                      A                      A
 Frequencies --   1381.5965              1387.5322              1394.9613
 Red. masses --      1.4333                 1.4446                 1.5306
 Frc consts  --      1.6120                 1.6387                 1.7548
 IR Inten    --      7.1392                 0.4187                 0.4420

                     76                     77                     78
                      A                      A                      A
 Frequencies --   1405.4447              1410.9085              1413.2213
 Red. masses --      1.5286                 1.5321                 1.4516
 Frc consts  --      1.7790                 1.7970                 1.7081
 IR Inten    --      0.9728                 6.0600                 6.3112

                     79                     80                     81
                      A                      A                      A
 Frequencies --   1415.2427              1441.1570              1442.8730
 Red. masses --      1.3685                 1.2995                 2.2733
 Frc consts  --      1.6149                 1.5902                 2.7884
 IR Inten    --      0.2131                 3.8236                25.6072

                     82                     83                     84
                      A                      A                      A
 Frequencies --   1444.6579              1449.8460              1503.2735
 Red. masses --      1.2218                 1.3131                 1.1096
 Frc consts  --      1.5023                 1.6262                 1.4774
 IR Inten    --      1.7164                 4.2023                 1.7001

                     85                     86                     87
                      A                      A                      A
 Frequencies --   1504.2156              1510.6150              1513.3357
 Red. masses --      1.0854                 1.1013                 1.0730
 Frc consts  --      1.4469                 1.4806                 1.4478
 IR Inten    --      3.4573                 3.6185                 0.3617

                     88                     89                     90
                      A                      A                      A
 Frequencies --   1513.5528              1526.8854              1527.6718
 Red. masses --      1.0777                 1.0419                 1.0776
 Frc consts  --      1.4546                 1.4312                 1.4817
 IR Inten    --      7.1165                 6.9153                18.4666

                     91                     92                     93
                      A                      A                      A
 Frequencies --   1530.5539              1532.0837              1534.2092
 Red. masses --      1.0604                 1.0707                 1.0773
 Frc consts  --      1.4636                 1.4808                 1.4940
 IR Inten    --      2.4385                 9.2078                 2.8504

                     94                     95                     96
                      A                      A                      A
 Frequencies --   1535.5444              1542.7741              1559.9266
 Red. masses --      1.0608                 1.0477                 7.7859
 Frc consts  --      1.4736                 1.4692                11.1626
 IR Inten    --      8.1922                 2.0816                 7.8915

                     97                     98                     99
                      A                      A                      A
 Frequencies --   1628.5903              1686.9439              3012.8854
 Red. masses --     10.3572                 1.0974                 1.0770
 Frc consts  --     16.1851                 1.8400                 5.7599
 IR Inten    --    104.1941                33.3340                11.0859

                    100                    101                    102
                      A                      A                      A
 Frequencies --   3022.9144              3024.5957              3026.6403
 Red. masses --      1.0686                 1.0701                 1.0661
 Frc consts  --      5.7535                 5.7679                 5.7541
 IR Inten    --     15.7285                19.0122                13.7404

                    103                    104                    105
                      A                      A                      A
 Frequencies --   3036.5160              3040.0593              3042.5267
 Red. masses --      1.0733                 1.0679                 1.0615
 Frc consts  --      5.8308                 5.8147                 5.7894
 IR Inten    --     92.8348                11.2789                24.3514

                    106                    107                    108
                      A                      A                      A
 Frequencies --   3045.8728              3049.4815              3053.9919
 Red. masses --      1.0495                 1.0379                 1.0458
 Frc consts  --      5.7367                 5.6866                 5.7467
 IR Inten    --     19.4486                31.3728                23.0973

                    109                    110                    111
                      A                      A                      A
 Frequencies --   3060.6323              3070.3888              3070.9912
 Red. masses --      1.0610                 1.0990                 1.0940
 Frc consts  --      5.8556                 6.1045                 6.0791
 IR Inten    --     15.0421                24.1000                61.2176

                    112                    113                    114
                      A                      A                      A
 Frequencies --   3080.7956              3101.3170              3104.5729
 Red. masses --      1.1030                 1.0950                 1.1016
 Frc consts  --      6.1682                 6.2054                 6.2556
 IR Inten    --     64.4059                23.0218                10.5320

                    115                    116                    117
                      A                      A                      A
 Frequencies --   3111.4236              3111.9421              3114.1818
 Red. masses --      1.1018                 1.0929                 1.1012
 Frc consts  --      6.2847                 6.2358                 6.2923
 IR Inten    --     12.7385                11.8835                64.7382

                    118                    119                    120
                      A                      A                      A
 Frequencies --   3120.9551              3122.0557              3132.0544
 Red. masses --      1.1023                 1.0962                 1.0994
 Frc consts  --      6.3257                 6.2951                 6.3543
 IR Inten    --     38.4710                45.4491                31.2598

                    121                    122                    123
                      A                      A                      A
 Frequencies --   3147.0002              3442.5507              3532.0139
 Red. masses --      1.0999                 1.0491                 1.0921
 Frc consts  --      6.4178                 7.3252                 8.0271
 IR Inten    --     33.6349                 1.7587                 1.1477

 - Thermochemistry -
 -------------------
 Temperature   298.150 Kelvin.  Pressure   1.00000 Atm.
 Atom     1 has atomic number  6 and mass  12.00000

 Molecular mass:   251.19976 amu.
 Principal axes and moments of inertia in atomic units:
                           1         2         3
     Eigenvalues --  2038.059988818.341759153.31824
           X            0.99998   0.00621  -0.00040
           Y           -0.00618   0.99918   0.04011
           Z            0.00065  -0.04010   0.99920
 This molecule is an asymmetric top.
 Rotational symmetry number  1.
 Warning -- assumption of classical behavior for rotation
           may cause significant error
 Rotational temperatures (Kelvin)      0.04250     0.00982     0.00946
 Rotational constants (GHZ):           0.88552     0.20466     0.19717
 Zero-point vibrational energy    1014047.2 (Joules/Mol)
                                  242.36311 (Kcal/Mol)
 Warning -- explicit consideration of  29 degrees of freedom as
           vibrations may cause significant error
 Vibrational temperatures:     15.96    34.97    68.40    81.65   114.02
          (Kelvin)            130.18   173.49   231.70   280.23   314.18
                              332.33   341.91   368.35   378.61   403.53
                              415.80   438.06   446.39   473.45   514.14
                              533.19   568.90   606.94   609.33   676.73
                              699.83   739.37   747.67   827.30   945.92
                              989.07  1099.50  1116.73  1130.93  1155.74
                             1182.93  1193.12  1253.41  1285.60  1296.27
                             1314.12  1326.96  1343.45  1364.21  1401.86
                             1428.25  1429.81  1456.32  1467.11  1483.20
                             1493.80  1522.89  1532.01  1554.86  1601.19
                             1615.05  1627.42  1643.02  1665.82  1679.12
                             1702.54  1754.91  1773.88  1791.56  1836.30
                             1858.40  1888.39  1898.14  1908.55  1931.85
                             1947.52  1968.80  1987.81  1996.35  2007.04
                             2022.12  2029.98  2033.31  2036.22  2073.50
                             2075.97  2078.54  2086.01  2162.88  2164.23
                             2173.44  2177.35  2177.66  2196.85  2197.98
                             2202.13  2204.33  2207.38  2209.31  2219.71
                             2244.39  2343.18  2427.14  4334.87  4349.30
                             4351.72  4354.66  4368.87  4373.97  4377.52
                             4382.33  4387.52  4394.01  4403.57  4417.60
                             4418.47  4432.58  4462.10  4466.79  4476.64
                             4477.39  4480.61  4490.36  4491.94  4506.33
                             4527.83  4953.06  5081.78

 Zero-point correction=                           0.386230 (Hartree/Particle)
 Thermal correction to Energy=                    0.405031
 Thermal correction to Enthalpy=                  0.405975
 Thermal correction to Gibbs Free Energy=         0.337694
 Sum of electronic and zero-point Energies=           -787.700643
 Sum of electronic and thermal Energies=              -787.681843
 Sum of electronic and thermal Enthalpies=            -787.680898
 Sum of electronic and thermal Free Energies=         -787.749179

                     E (Thermal)             CV                S
                      KCal/Mol        Cal/Mol-Kelvin    Cal/Mol-Kelvin
 Total                  254.161             72.267            143.709
 Electronic               0.000              0.000              0.000
 Translational            0.889              2.981             42.464
 Rotational               0.889              2.981             33.464
 Vibrational            252.383             66.305             67.782
 Vibration     1          0.593              1.987              7.805
 Vibration     2          0.593              1.985              6.247
 Vibration     3          0.595              1.979              4.917
 Vibration     4          0.596              1.975              4.567
 Vibration     5          0.600              1.963              3.909
 Vibration     6          0.602              1.956              3.650
 Vibration     7          0.609              1.932              3.091
 Vibration     8          0.622              1.890              2.538
 Vibration     9          0.635              1.847              2.182
 Vibration    10          0.646              1.813              1.973
 Vibration    11          0.653              1.794              1.871
 Vibration    12          0.656              1.783              1.821
 Vibration    13          0.666              1.753              1.689
 Vibration    14          0.670              1.740              1.641
 Vibration    15          0.680              1.710              1.531
 Vibration    16          0.686              1.694              1.480
 Vibration    17          0.695              1.665              1.392
 Vibration    18          0.699              1.654              1.361
 Vibration    19          0.712              1.617              1.265
 Vibration    20          0.733              1.560              1.134
 Vibration    21          0.743              1.533              1.077
 Vibration    22          0.762              1.480              0.980
 Vibration    23          0.784              1.423              0.886
 Vibration    24          0.786              1.419              0.880
 Vibration    25          0.827              1.316              0.737
 Vibration    26          0.842              1.280              0.693
 Vibration    27          0.869              1.219              0.624
 Vibration    28          0.875              1.206              0.611
 Vibration    29          0.931              1.085              0.495

 Optimization completed.
    -- Stationary point found.
 Normal termination of Gaussian 16 at Fri Dec 11 23:53:13 2020.

 ----------------------------------------------------------------------
 # B3LYP/6-311++G(d,p) empiricaldispersion=gd3bj scf=xqc pop=npa geom=c
 heck
 ----------------------------------------------------------------------

 ---------------------------------------
 CID_113645298_JID_8998_Energie_neutraal
 ---------------------------------------
 Structure from the checkpoint file:  "JID_8998.chk"
 Charge =  0 Multiplicity = 1

 SCF Done:  E(RB3LYP) =  -788.305189930     A.U. after   15 cycles
 Normal termination of Gaussian 16 at Sat Dec 12 00:01:49 2020.

 ----------------------------------------------------------------------
 # B3LYP/6-311++G(d,p) empiricaldispersion=gd3bj scf=xqc pop=npa geom=c
 heck
 ----------------------------------------------------------------------

 -------------------------------------
 CID_113645298_JID_8998_Energie_kation
 -------------------------------------
 Structure from the checkpoint file:  "JID_8998.chk"
 Charge =  1 Multiplicity = 2

 SCF Done:  E(UB3LYP) =  -787.981173508     A.U. after   28 cycles
 Normal termination of Gaussian 16 at Sat Dec 12 00:23:11 2020.
 Gaussian 16:  ES64L-G16RevA.03 25-Dec-2016

 ----------------------------------------------------------------------
 # B3LYP/6-311++G(d,p) empiricaldispersion=gd3bj scf=xqc pop=npa geom=c
 heck
 ----------------------------------------------------------------------

 ------------------------------------
 CID_113645298_JID_8998_Energie_anion
 ------------------------------------
 Structure from the checkpoint file:  "JID_8998.chk"
 Charge = -1 Multiplicity = 2

                         Standard orientation:
 ---------------------------------------------------------------------
 Center     Atomic      Atomic             Coordinates (Angstroms)
 Number     Number       Type             X           Y           Z
 ---------------------------------------------------------------------
      1          6           0        4.750339    1.673667    0.734103
      2          6           0        3.851561    0.435374    0.781680
      3          6           0        3.647848   -0.246035   -0.582488
      4          6           0        4.954016   -0.788153   -1.172171
      5          6           0        2.615599   -1.392408   -0.474823
      6          6           0        1.277369   -0.906779   -0.036354
      7          7           0        0.515436   -0.013472   -0.601211
      8          6           0       -0.564903    0.060314    0.260812
      9          7           0       -0.479141   -0.732244    1.297828
     10          8           0        0.755401   -1.390152    1.104302
     11          6           0       -1.672495    1.067750    0.040481
     12          6           0       -2.121645    1.040862   -1.439572
     13          6           0       -2.974293   -0.181715   -1.789033
     14          6           0       -4.221877   -0.229187   -0.899805
     15          6           0       -3.863894   -0.286972    0.598048
     16          6           0       -2.884495    0.851003    0.972176
     17          6           0       -3.408258   -1.694770    1.009984
     18          7           0       -1.051616    2.361827    0.412152
     19          1           0        5.777388    1.425169    0.446505
     20          1           0        4.791683    2.161426    1.713770
     21          1           0        4.369054    2.406885    0.012910
     22          1           0        4.266445   -0.298309    1.488016
     23          1           0        2.872827    0.727542    1.182879
     24          1           0        3.229337    0.497142   -1.274901
     25          1           0        5.413314   -1.520432   -0.495754
     26          1           0        4.778505   -1.283670   -2.133944
     27          1           0        5.680190    0.012493   -1.340329
     28          1           0        2.505310   -1.875843   -1.452869
     29          1           0        2.962715   -2.153563    0.232191
     30          1           0       -2.717531    1.949422   -1.609534
     31          1           0       -1.237494    1.105631   -2.082248
     32          1           0       -2.379602   -1.096157   -1.663452
     33          1           0       -3.262408   -0.144263   -2.846600
     34          1           0       -4.850659   -1.089358   -1.161983
     35          1           0       -4.822320    0.671021   -1.096208
     36          1           0       -4.782722   -0.082944    1.165449
     37          1           0       -2.528782    0.734877    2.000124
     38          1           0       -3.448905    1.793792    0.942346
     39          1           0       -3.091180   -1.718928    2.056719
     40          1           0       -4.236791   -2.402205    0.882567
     41          1           0       -2.565726   -2.055582    0.415475
     42          1           0       -0.249413    2.520843   -0.198850
     43          1           0       -1.718429    3.105758    0.203696
 ---------------------------------------------------------------------

 SCF Done:  E(UB3LYP) =  -788.292973645     A.U. after   33 cycles
 SCF Done:  E(UB3LYP) =  -788.292973645     a.u. after    1 cycles

 The electronic state is 2-A.
 Alpha  occ. eigenvalues --  -19.12355 -14.26858 -14.22400 -14.20650 -10.18222
 Alpha  occ. eigenvalues --  -10.14484 -10.12927 -10.10063 -10.09351 -10.08218
 Alpha  occ. eigenvalues --  -10.07961 -10.07409 -10.07354 -10.07193 -10.07130
 Alpha  occ. eigenvalues --  -10.07054 -10.07041 -10.06105  -1.06945  -0.85112
 Alpha  occ. eigenvalues --   -0.81036  -0.78122  -0.73316  -0.72952  -0.66802
 Alpha  occ. eigenvalues --   -0.66037  -0.63990  -0.62103  -0.58936  -0.56138
 Alpha  occ. eigenvalues --   -0.55265  -0.52628  -0.50750  -0.48936  -0.47522
 Alpha  occ. eigenvalues --   -0.44901  -0.41467  -0.40600  -0.39255  -0.38407
 Alpha  occ. eigenvalues --   -0.38074  -0.36392  -0.36269  -0.35039  -0.34490
 Alpha  occ. eigenvalues --   -0.33702  -0.33303  -0.31854  -0.31761  -0.31058
 Alpha  occ. eigenvalues --   -0.30054  -0.29865  -0.29036  -0.27719  -0.27288
 Alpha  occ. eigenvalues --   -0.26598  -0.25983  -0.25471  -0.25088  -0.24632
 Alpha  occ. eigenvalues --   -0.24217  -0.23707  -0.23370  -0.22860  -0.21997
 Alpha  occ. eigenvalues --   -0.21409  -0.20220  -0.19015  -0.15766   0.04016
 Alpha virt. eigenvalues --    0.05302   0.06027   0.06850   0.07068   0.07477
 Alpha virt. eigenvalues --    0.07819   0.07881   0.09252   0.09510   0.09735
 Alpha virt. eigenvalues --    0.10087   0.10300   0.10574   0.10887   0.11657

  Beta  occ. eigenvalues --  -19.12309 -14.26817 -14.22398 -14.20633 -10.18155
  Beta  occ. eigenvalues --  -10.14476 -10.12929 -10.10053 -10.09341 -10.08214
  Beta  occ. eigenvalues --  -10.07949 -10.07398 -10.07333 -10.07179 -10.07112
  Beta  occ. eigenvalues --  -10.07037 -10.07000 -10.06099  -1.06869  -0.85075
  Beta  occ. eigenvalues --   -0.81000  -0.78049  -0.73289  -0.72922  -0.66777
  Beta  occ. eigenvalues --   -0.66000  -0.63959  -0.62034  -0.58912  -0.56098
  Beta  occ. eigenvalues --   -0.55196  -0.52578  -0.50700  -0.48895  -0.47459
  Beta  occ. eigenvalues --   -0.44858  -0.41367  -0.40520  -0.39164  -0.38378
  Beta  occ. eigenvalues --   -0.38037  -0.36356  -0.36245  -0.34979  -0.34460
  Beta  occ. eigenvalues --   -0.33657  -0.33262  -0.31826  -0.31741  -0.31027
  Beta  occ. eigenvalues --   -0.30013  -0.29830  -0.28988  -0.27686  -0.27258
  Beta  occ. eigenvalues --   -0.26573  -0.25949  -0.25420  -0.25058  -0.24570
  Beta  occ. eigenvalues --   -0.24176  -0.23657  -0.23291  -0.22817  -0.21975
  Beta  occ. eigenvalues --   -0.21376  -0.20191  -0.18799  -0.15744
  Beta virt. eigenvalues --    0.05930   0.06186   0.06575   0.07248   0.07501
  Beta virt. eigenvalues --    0.07869   0.08120   0.08262   0.09558   0.09711
  Beta virt. eigenvalues --    0.09934   0.10250   0.10616   0.10730   0.11085

 Mulliken charges and spin densities:
               1          2
     1  C    0.286184  -0.975512
     2  C   -0.441301   0.330799
     3  C   -0.700114   1.264519
     4  C    1.017272  -1.774805
     5  C   -0.522912   0.076480
     6  C    0.014500  -0.327580
     7  N    0.090063   0.115606
     8  C    0.860060  -1.666020
     9  N   -0.365121   0.085210
    10  O    0.338337  -0.009498
    11  C    0.333424   0.347920
    12  C   -0.389042  -0.153701
    13  C   -0.084692  -0.037951
    14  C    0.314286  -0.960207
    15  C    0.049889   0.294802
    16  C   -0.703199  -0.001548
    17  C   -0.184058  -0.476256
    18  N   -0.209390  -0.035337
    19  H   -0.026687   0.166720
    20  H    0.013530   0.119420
    21  H   -0.116910   0.264304
    22  H   -0.077539   0.216220
    23  H    0.278316  -0.082929
    24  H    0.217867  -0.032462
    25  H   -0.120488   0.267094
    26  H   -0.346675   0.485258
    27  H   -0.298594   0.439404
    28  H   -0.185050   0.397367
    29  H    0.169712   0.014681
    30  H   -0.313166   0.472755
    31  H   -0.006514   0.187358
    32  H    0.060473   0.066676
    33  H   -0.329759   0.522525
    34  H    0.012566   0.149489
    35  H   -0.194950   0.323814
    36  H   -0.049779   0.247820
    37  H    0.114496   0.101084
    38  H   -0.094031   0.230059
    39  H    0.148617   0.005299
    40  H    0.041407   0.082076
    41  H    0.109448   0.057320
    42  H    0.211689   0.029293
    43  H    0.077834   0.172431
 Sum of Mulliken charges =  -1.00000   1.00000

 Dipole moment (field-independent basis, Debye):
    X=             -1.4734    Y=             -0.8493    Z=              2.6579  Tot=              3.1554
 Quadrupole moment (field-independent basis, Debye-Ang):
   XX=           -221.9100   YY=           -150.3281   ZZ=           -157.8017
   XY=              8.2426   XZ=              2.7659   YZ=             -1.7229

 Summary of Natural Population Analysis:

                                       Natural Population
                Natural  -----------------------------------------------
    Atom  No    Charge         Core      Valence    Rydberg      Total
 -----------------------------------------------------------------------
      C    1   -0.28361      0.99967     2.27980    0.00414     3.28361
      C    2   -0.19000      0.99962     2.18326    0.00712     3.19000
      C    3   -0.10692      0.99960     2.09700    0.01032     3.10692
      C    4   -0.28595      0.99965     2.28011    0.00619     3.28595
      C    5   -0.21934      0.99956     2.21030    0.00948     3.21934
      C    6    0.30280      0.99961     1.67687    0.02071     2.69720
      N    7   -0.27823      0.99966     2.77016    0.00841     3.77823
      C    8    0.18640      0.99957     1.79342    0.02060     2.81360
      N    9   -0.08531      0.99965     2.57395    0.01170     3.58531
      O   10   -0.16658      0.99985     3.15951    0.00723     4.16658
      C   11    0.03860      0.99950     1.94791    0.01400     2.96140
      C   12   -0.19489      0.99959     2.18417    0.01112     3.19489
      C   13   -0.19458      0.99962     2.18582    0.00914     3.19458
      C   14   -0.18743      0.99961     2.17868    0.00914     3.18743
      C   15   -0.11135      0.99960     2.10154    0.01021     3.11135
      C   16   -0.18843      0.99958     2.17681    0.01204     3.18843
      C   17   -0.28454      0.99964     2.27980    0.00510     3.28454
      N   18   -0.41465      0.99976     2.90530    0.00959     3.91465
      H   19    0.09679      0.00000     0.40211    0.00110     0.40321
      H   20    0.09840      0.00000     0.40072    0.00088     0.40160
      H   21    0.09716      0.00000     0.40177    0.00107     0.40284
      H   22    0.09322      0.00000     0.40566    0.00113     0.40678
      H   23    0.09972      0.00000     0.39884    0.00143     0.40028
      H   24    0.10005      0.00000     0.39806    0.00188     0.39995
      H   25    0.09653      0.00000     0.40227    0.00120     0.40347
      H   26    0.10274      0.00000     0.39578    0.00148     0.39726
      H   27    0.10195      0.00000     0.39699    0.00106     0.39805
      H   28    0.11824      0.00000     0.38049    0.00127     0.38176
      H   29    0.10924      0.00000     0.38942    0.00134     0.39076
      H   30    0.09645      0.00000     0.40165    0.00189     0.40355
      H   31    0.10986      0.00000     0.38852    0.00162     0.39014
      H   32    0.09554      0.00000     0.40311    0.00136     0.40446
      H   33    0.10132      0.00000     0.39764    0.00104     0.39868
      H   34    0.09779      0.00000     0.40126    0.00095     0.40221
      H   35    0.09692      0.00000     0.40168    0.00140     0.40308
      H   36    0.09473      0.00000     0.40369    0.00158     0.40527
      H   37    0.11093      0.00000     0.38782    0.00125     0.38907
      H   38    0.09925      0.00000     0.39960    0.00115     0.40075
      H   39    0.10272      0.00000     0.39636    0.00092     0.39728
      H   40    0.09354      0.00000     0.40562    0.00084     0.40646
      H   41    0.09964      0.00000     0.39928    0.00107     0.40036
      H   42    0.17805      0.00000     0.32006    0.00188     0.32195
      H   43    0.17319      0.00000     0.32527    0.00153     0.32681
 =======================================================================
   * Total *   -0.00000     17.99334    50.78809    0.21857    69.00000

 Normal termination of Gaussian 16 at Sat Dec 12 00:47:59 2020.
