 Gaussian 16, Revision A.03,

 -----------------------------------------------------------
 # opt freq B3LYP/6-31G(d) empiricaldispersion=gd3bj scf=xqc
 -----------------------------------------------------------

 ------------------------------
 CID_65099887_JID_1639_neutraal
 ------------------------------
 Symbolic Z-matrix:
 Charge =  0 Multiplicity = 1

 SCF Done:  E(RB3LYP) =  -820.971789992     A.U. after   14 cycles
 SCF Done:  E(RB3LYP) =  -820.976261563     A.U. after   12 cycles
 SCF Done:  E(RB3LYP) =  -820.976601514     A.U. after   12 cycles
 SCF Done:  E(RB3LYP) =  -820.977699515     A.U. after   12 cycles
 SCF Done:  E(RB3LYP) =  -820.978637092     A.U. after   12 cycles
 SCF Done:  E(RB3LYP) =  -820.979035411     A.U. after   12 cycles
 SCF Done:  E(RB3LYP) =  -820.979400875     A.U. after   12 cycles
 SCF Done:  E(RB3LYP) =  -820.979540483     A.U. after   11 cycles
 SCF Done:  E(RB3LYP) =  -820.979576172     A.U. after   11 cycles
 SCF Done:  E(RB3LYP) =  -820.979581886     A.U. after    9 cycles
 SCF Done:  E(RB3LYP) =  -820.979583611     A.U. after    8 cycles
 SCF Done:  E(RB3LYP) =  -820.979584185     A.U. after    8 cycles
 SCF Done:  E(RB3LYP) =  -820.979584384     A.U. after    7 cycles
 SCF Done:  E(RB3LYP) =  -820.979584465     A.U. after    7 cycles
 Optimization completed.
    -- Stationary point found.
 Normal termination of Gaussian 16 at Tue Dec  8 20:37:40 2020.

 --------------------------------------------------------------------
 #N Geom=AllCheck Guess=TCheck SCRF=Check GenChk RB3LYP/6-31G(d) Freq
 --------------------------------------------------------------------

 Structure from the checkpoint file:  "JID_1639.chk"
 ------------------------------
 CID_65099887_JID_1639_neutraal
 ------------------------------
 Charge =  0 Multiplicity = 1

 SCF Done:  E(RB3LYP) =  -820.979584465     A.U. after    1 cycles

  Exact polarizability: 134.169 -13.676 103.384 -12.713 -11.168  90.845
 Approx polarizability: 196.782 -23.990 150.637 -32.842 -23.952 159.358

                      1                      2                      3
                      A                      A                      A
 Frequencies --     44.0893                56.7361               102.9417
 Red. masses --      3.0363                 5.8463                 3.1115
 Frc consts  --      0.0035                 0.0111                 0.0194
 IR Inten    --      0.2166                 0.3882                 0.6837

                      4                      5                      6
                      A                      A                      A
 Frequencies --    141.3359               172.9035               186.0713
 Red. masses --      2.0276                 1.7491                 2.8183
 Frc consts  --      0.0239                 0.0308                 0.0575
 IR Inten    --      1.7707                 1.8535                 0.7995

                      7                      8                      9
                      A                      A                      A
 Frequencies --    232.3256               255.3303               296.6263
 Red. masses --      2.2173                 2.6130                 1.1802
 Frc consts  --      0.0705                 0.1004                 0.0612
 IR Inten    --      0.2326                 1.4206                 2.7602

                     10                     11                     12
                      A                      A                      A
 Frequencies --    331.1197               384.9767               428.6435
 Red. masses --      3.4627                 2.6346                 2.1844
 Frc consts  --      0.2237                 0.2301                 0.2365
 IR Inten    --      3.7753                 4.5145                 3.6702

                     13                     14                     15
                      A                      A                      A
 Frequencies --    453.6873               467.1459               527.3308
 Red. masses --      3.8341                 4.0022                 2.3566
 Frc consts  --      0.4650                 0.5146                 0.3861
 IR Inten    --      1.0257                 1.3171                 4.5581

                     16                     17                     18
                      A                      A                      A
 Frequencies --    568.8124               635.9705               654.9974
 Red. masses --      3.5017                 1.2541                 2.6870
 Frc consts  --      0.6675                 0.2989                 0.6792
 IR Inten    --      1.8697                 5.2973                 8.8972

                     19                     20                     21
                      A                      A                      A
 Frequencies --    658.7923               753.6422               763.7510
 Red. masses --      3.7237                 1.5148                 1.6435
 Frc consts  --      0.9522                 0.5069                 0.5648
 IR Inten    --      2.7418               144.5304                27.1273

                     22                     23                     24
                      A                      A                      A
 Frequencies --    817.3572               847.9981               861.2356
 Red. masses --      4.0487                 2.4047                 3.0009
 Frc consts  --      1.5936                 1.0188                 1.3114
 IR Inten    --     26.2197                13.3519                28.5817

                     25                     26                     27
                      A                      A                      A
 Frequencies --    876.5452               885.2183               941.7518
 Red. masses --      1.3108                 3.2275                 2.9653
 Frc consts  --      0.5934                 1.4901                 1.5495
 IR Inten    --      0.1452                11.9924                 4.5697

                     28                     29                     30
                      A                      A                      A
 Frequencies --   1001.7880              1023.9996              1064.6415
 Red. masses --      2.2976                 1.6457                 1.9821
 Frc consts  --      1.3586                 1.0167                 1.3236
 IR Inten    --     24.6121                 5.7735                 2.4339

                     31                     32                     33
                      A                      A                      A
 Frequencies --   1112.9095              1127.5467              1161.5774
 Red. masses --      1.6673                 1.2313                 1.3353
 Frc consts  --      1.2167                 0.9223                 1.0615
 IR Inten    --     31.2691                11.6418                10.8958

                     34                     35                     36
                      A                      A                      A
 Frequencies --   1167.6649              1180.0239              1205.4155
 Red. masses --      1.4067                 1.7360                 2.2722
 Frc consts  --      1.1300                 1.4243                 1.9453
 IR Inten    --      9.2123                42.2223                 5.3233

                     37                     38                     39
                      A                      A                      A
 Frequencies --   1219.1282              1269.3726              1286.7380
 Red. masses --      1.6729                 1.6219                 2.0641
 Frc consts  --      1.4649                 1.5397                 2.0135
 IR Inten    --     17.5676                29.2277                 3.3719

                     40                     41                     42
                      A                      A                      A
 Frequencies --   1332.9632              1364.7069              1398.3478
 Red. masses --      1.3091                 1.6499                 1.2874
 Frc consts  --      1.3705                 1.8104                 1.4832
 IR Inten    --      3.4971                 7.8475                19.2727

                     43                     44                     45
                      A                      A                      A
 Frequencies --   1411.0326              1441.9759              1473.4900
 Red. masses --      1.2988                 3.8577                 1.3850
 Frc consts  --      1.5236                 4.7260                 1.7717
 IR Inten    --      1.8864                31.5291                11.1767

                     46                     47                     48
                      A                      A                      A
 Frequencies --   1482.5548              1494.5954              1505.0576
 Red. masses --      1.1933                 2.1325                 1.1492
 Frc consts  --      1.5454                 2.8067                 1.5337
 IR Inten    --      6.1521                28.1002                 3.4434

                     49                     50                     51
                      A                      A                      A
 Frequencies --   1509.6427              1517.8684              1523.6305
 Red. masses --      1.0822                 1.1076                 1.1377
 Frc consts  --      1.4531                 1.5035                 1.5561
 IR Inten    --      1.6753                10.0812                 2.3670

                     52                     53                     54
                      A                      A                      A
 Frequencies --   1528.5929              1550.3975              1551.3691
 Red. masses --      1.1600                 1.0911                 1.0659
 Frc consts  --      1.5970                 1.5452                 1.5114
 IR Inten    --     14.2364                 8.3042                 3.6038

                     55                     56                     57
                      A                      A                      A
 Frequencies --   1611.9729              2976.1837              2985.6185
 Red. masses --      5.1901                 1.0585                 1.0546
 Frc consts  --      7.9458                 5.5239                 5.5385
 IR Inten    --    124.4041                40.6020                75.7631

                     58                     59                     60
                      A                      A                      A
 Frequencies --   3032.7003              3050.4869              3069.5695
 Red. masses --      1.0621                 1.0680                 1.0800
 Frc consts  --      5.7551                 5.8556                 5.9957
 IR Inten    --     26.8340                81.5990                54.0181

                     61                     62                     63
                      A                      A                      A
 Frequencies --   3073.2022              3085.2966              3118.5997
 Red. masses --      1.1030                 1.0748                 1.1011
 Frc consts  --      6.1375                 6.0277                 6.3096
 IR Inten    --     42.2692                35.4060                26.9277

                     64                     65                     66
                      A                      A                      A
 Frequencies --   3124.7685              3132.7953              3232.4553
 Red. masses --      1.0947                 1.1041                 1.0898
 Frc consts  --      6.2977                 6.3845                 6.7093
 IR Inten    --     28.5096                24.5573                 4.5557

                     67                     68                     69
                      A                      A                      A
 Frequencies --   3272.3017              3288.0248              3511.5228
 Red. masses --      1.0973                 1.0927                 1.0738
 Frc consts  --      6.9227                 6.9600                 7.8015
 IR Inten    --      0.9966                 4.0157                 3.8302

 - Thermochemistry -
 -------------------
 Temperature   298.150 Kelvin.  Pressure   1.00000 Atm.
 Atom     1 has atomic number  6 and mass  12.00000

 Molecular mass:   170.08777 amu.
 Principal axes and moments of inertia in atomic units:
                           1         2         3
     Eigenvalues --  1296.377192527.678573150.88176
           X            0.99999   0.00027   0.00376
           Y           -0.00012   0.99922  -0.03959
           Z           -0.00376   0.03959   0.99921
 This molecule is an asymmetric top.
 Rotational symmetry number  1.
 Warning -- assumption of classical behavior for rotation
           may cause significant error
 Rotational temperatures (Kelvin)      0.06681     0.03427     0.02749
 Rotational constants (GHZ):           1.39214     0.71399     0.57277
 Zero-point vibrational energy     567148.7 (Joules/Mol)
                                  135.55180 (Kcal/Mol)
 Warning -- explicit consideration of  16 degrees of freedom as
           vibrations may cause significant error
 Vibrational temperatures:     63.43    81.63   148.11   203.35   248.77
          (Kelvin)            267.72   334.26   367.36   426.78   476.41
                              553.90   616.72   652.75   672.12   758.71
                              818.39   915.02   942.40   947.86  1084.32
                             1098.87  1175.99  1220.08  1239.13  1261.15
                             1273.63  1354.97  1441.35  1473.31  1531.78
                             1601.23  1622.29  1671.25  1680.01  1697.79
                             1734.32  1754.05  1826.34  1851.33  1917.84
                             1963.51  2011.91  2030.16  2074.68  2120.02
                             2133.07  2150.39  2165.44  2172.04  2183.87
                             2192.16  2199.30  2230.68  2232.07  2319.27
                             4282.06  4295.64  4363.38  4388.97  4416.43
                             4421.65  4439.05  4486.97  4495.84  4507.39
                             4650.78  4708.11  4730.73  5052.30

 Zero-point correction=                           0.216016 (Hartree/Particle)
 Thermal correction to Energy=                    0.227686
 Thermal correction to Enthalpy=                  0.228630
 Thermal correction to Gibbs Free Energy=         0.177949
 Sum of electronic and zero-point Energies=           -820.763569
 Sum of electronic and thermal Energies=              -820.751899
 Sum of electronic and thermal Enthalpies=            -820.750955
 Sum of electronic and thermal Free Energies=         -820.801636

                     E (Thermal)             CV                S
                      KCal/Mol        Cal/Mol-Kelvin    Cal/Mol-Kelvin
 Total                  142.875             43.975            106.667
 Electronic               0.000              0.000              0.000
 Translational            0.889              2.981             41.301
 Rotational               0.889              2.981             30.713
 Vibrational            141.097             38.014             34.653
 Vibration     1          0.595              1.980              5.066
 Vibration     2          0.596              1.975              4.568
 Vibration     3          0.605              1.947              3.398
 Vibration     4          0.615              1.912              2.786
 Vibration     5          0.626              1.876              2.404
 Vibration     6          0.632              1.859              2.267
 Vibration     7          0.653              1.792              1.861
 Vibration     8          0.666              1.754              1.693
 Vibration     9          0.690              1.680              1.436
 Vibration    10          0.713              1.613              1.255
 Vibration    11          0.754              1.502              1.020
 Vibration    12          0.790              1.408              0.863
 Vibration    13          0.812              1.353              0.785
 Vibration    14          0.824              1.323              0.746
 Vibration    15          0.882              1.190              0.593
 Vibration    16          0.925              1.099              0.507

 Optimization completed.
    -- Stationary point found.
 Normal termination of Gaussian 16 at Tue Dec  8 20:43:51 2020.

 ----------------------------------------------------------------------
 # B3LYP/6-311++G(d,p) empiricaldispersion=gd3bj scf=xqc pop=npa geom=c
 heck
 ----------------------------------------------------------------------

 --------------------------------------
 CID_65099887_JID_1639_Energie_neutraal
 --------------------------------------
 Structure from the checkpoint file:  "JID_1639.chk"
 Charge =  0 Multiplicity = 1

 SCF Done:  E(RB3LYP) =  -821.126206806     A.U. after   15 cycles
 Normal termination of Gaussian 16 at Tue Dec  8 20:47:01 2020.

 ----------------------------------------------------------------------
 # B3LYP/6-311++G(d,p) empiricaldispersion=gd3bj scf=xqc pop=npa geom=c
 heck
 ----------------------------------------------------------------------

 ------------------------------------
 CID_65099887_JID_1639_Energie_kation
 ------------------------------------
 Structure from the checkpoint file:  "JID_1639.chk"
 Charge =  1 Multiplicity = 2

 SCF Done:  E(UB3LYP) =  -820.866754278     A.U. after   22 cycles
 Normal termination of Gaussian 16 at Tue Dec  8 20:53:34 2020.
 Gaussian 16:  ES64L-G16RevA.03 25-Dec-2016

 ----------------------------------------------------------------------
 # B3LYP/6-311++G(d,p) empiricaldispersion=gd3bj scf=xqc pop=npa geom=c
 heck
 ----------------------------------------------------------------------

 -----------------------------------
 CID_65099887_JID_1639_Energie_anion
 -----------------------------------
 Structure from the checkpoint file:  "JID_1639.chk"
 Charge = -1 Multiplicity = 2

                         Standard orientation:
 ---------------------------------------------------------------------
 Center     Atomic      Atomic             Coordinates (Angstroms)
 Number     Number       Type             X           Y           Z
 ---------------------------------------------------------------------
      1          6           0       -1.571687   -2.398150   -0.260119
      2          7           0       -1.814540   -1.172598   -1.009846
      3          6           0       -2.593608   -0.165768   -0.301491
      4          6           0       -1.912792    0.522483    0.902278
      5          7           0       -0.714072    1.293648    0.562099
      6          6           0       -0.946188    2.433895   -0.305073
      7          6           0        0.479413    0.593522    0.349251
      8          6           0        1.380021    0.839159   -0.666802
      9         16           0        2.794598   -0.170034   -0.547577
     10          6           0        2.165604   -0.946403    0.869986
     11          6           0        0.952933   -0.442723    1.235139
     12          1           0       -2.533177   -2.873529   -0.030520
     13          1           0       -1.019629   -2.271951    0.686666
     14          1           0       -0.997792   -3.090110   -0.884723
     15          1           0       -0.927909   -0.773429   -1.309712
     16          1           0       -2.892573    0.602730   -1.025730
     17          1           0       -3.522349   -0.637166    0.048773
     18          1           0       -2.627566    1.209621    1.373872
     19          1           0       -1.645146   -0.219464    1.658752
     20          1           0       -0.093927    3.117814   -0.239310
     21          1           0       -1.086579    2.166639   -1.366780
     22          1           0       -1.842688    2.961648    0.033413
     23          1           0        1.297921    1.550109   -1.474505
     24          1           0        2.738942   -1.715648    1.368788
     25          1           0        0.417001   -0.770173    2.117471
 ---------------------------------------------------------------------

 SCF Done:  E(UB3LYP) =  -821.110804859     A.U. after   33 cycles
 SCF Done:  E(UB3LYP) =  -821.110804859     a.u. after    1 cycles

 The electronic state is 2-A.
 Alpha  occ. eigenvalues --  -88.77511 -14.22546 -14.19252 -10.11376 -10.10139
 Alpha  occ. eigenvalues --  -10.09465 -10.09099 -10.08733 -10.08668 -10.08064
 Alpha  occ. eigenvalues --  -10.07685  -7.86113  -5.82407  -5.82048  -5.81698
 Alpha  occ. eigenvalues --   -0.84942  -0.79680  -0.77066  -0.64902  -0.63903
 Alpha  occ. eigenvalues --   -0.61897  -0.58508  -0.55003  -0.50106  -0.47007
 Alpha  occ. eigenvalues --   -0.43845  -0.42611  -0.39501  -0.37123  -0.35690
 Alpha  occ. eigenvalues --   -0.33894  -0.33737  -0.31523  -0.30159  -0.29280
 Alpha  occ. eigenvalues --   -0.28957  -0.28189  -0.28045  -0.27738  -0.25994
 Alpha  occ. eigenvalues --   -0.25128  -0.24272  -0.18626  -0.14643  -0.12969
 Alpha  occ. eigenvalues --   -0.09312   0.04543
 Alpha virt. eigenvalues --    0.06479   0.07336   0.08105   0.08234   0.08645
 Alpha virt. eigenvalues --    0.09685   0.10168   0.10403   0.11440   0.11685
 Alpha virt. eigenvalues --    0.12206   0.12929   0.13238   0.13717   0.14014

  Beta  occ. eigenvalues --  -88.77510 -14.22544 -14.19248 -10.11376 -10.10124
  Beta  occ. eigenvalues --  -10.09438 -10.09051 -10.08713 -10.08655 -10.08039
  Beta  occ. eigenvalues --  -10.07669  -7.86111  -5.82406  -5.82046  -5.81696
  Beta  occ. eigenvalues --   -0.84926  -0.79664  -0.77047  -0.64868  -0.63870
  Beta  occ. eigenvalues --   -0.61856  -0.58455  -0.54951  -0.50051  -0.46962
  Beta  occ. eigenvalues --   -0.43802  -0.42566  -0.39470  -0.37082  -0.35647
  Beta  occ. eigenvalues --   -0.33858  -0.33699  -0.31482  -0.30131  -0.29234
  Beta  occ. eigenvalues --   -0.28924  -0.28148  -0.28019  -0.27707  -0.25964
  Beta  occ. eigenvalues --   -0.25106  -0.24246  -0.18611  -0.14627  -0.12956
  Beta  occ. eigenvalues --   -0.09294
  Beta virt. eigenvalues --    0.06939   0.07598   0.08120   0.08245   0.08835
  Beta virt. eigenvalues --    0.09318   0.10122   0.10745   0.10836   0.11651
  Beta virt. eigenvalues --    0.12116   0.12652   0.13270   0.13638   0.14179

 Mulliken charges and spin densities:
               1          2
     1  C    0.450017  -0.863333
     2  N   -0.181209   0.063224
     3  C    0.423969  -1.012661
     4  C   -0.166833   0.024132
     5  N    0.199845  -0.005285
     6  C    1.459498  -1.813421
     7  C    0.717708  -1.803807
     8  C   -0.420393   1.077745
     9  S    0.269320  -0.649985
    10  C    1.486566  -1.851410
    11  C   -1.688927   1.841589
    12  H   -0.201145   0.344456
    13  H   -0.047007   0.119524
    14  H   -0.060089   0.212145
    15  H    0.209478   0.067087
    16  H   -0.094060   0.279960
    17  H   -0.256669   0.392224
    18  H   -0.693429   0.886569
    19  H   -0.138962   0.267036
    20  H   -0.163929   0.317236
    21  H   -0.135190   0.286662
    22  H   -0.482497   0.630057
    23  H   -0.306085   0.564561
    24  H   -0.549571   0.802234
    25  H   -0.630405   0.823462
 Sum of Mulliken charges =  -1.00000   1.00000

 Dipole moment (field-independent basis, Debye):
    X=              3.6885    Y=             -1.0155    Z=             -2.0663  Tot=              4.3481
 Quadrupole moment (field-independent basis, Debye-Ang):
   XX=           -131.3402   YY=           -127.7119   ZZ=           -114.0999
   XY=              7.2684   XZ=             -0.8337   YZ=              4.4712

 Summary of Natural Population Analysis:

                                       Natural Population
                Natural  -----------------------------------------------
    Atom  No    Charge         Core      Valence    Rydberg      Total
 -----------------------------------------------------------------------
      C    1   -0.17925      0.99965     2.17151    0.00808     3.17925
      N    2   -0.34161      0.99976     2.83049    0.01135     3.84161
      C    3   -0.09579      0.99962     2.08420    0.01197     3.09579
      C    4   -0.08993      0.99960     2.07823    0.01210     3.08993
      N    5   -0.25797      0.99967     2.74438    0.01392     3.75797
      C    6   -0.18019      0.99964     2.17093    0.00962     3.18019
      C    7    0.06139      0.99944     1.92463    0.01454     2.93861
      C    8   -0.23747      0.99948     2.22686    0.01114     3.23747
      S    9    0.18835      4.99946     2.78991    0.02227     7.81165
      C   10   -0.18810      0.99953     2.17566    0.01290     3.18810
      C   11   -0.13269      0.99948     2.12181    0.01140     3.13269
      H   12    0.08909      0.00000     0.40979    0.00112     0.41091
      H   13    0.08241      0.00000     0.41573    0.00186     0.41759
      H   14    0.09356      0.00000     0.40543    0.00100     0.40644
      H   15    0.17629      0.00000     0.31932    0.00439     0.32371
      H   16    0.09428      0.00000     0.40421    0.00151     0.40572
      H   17    0.09355      0.00000     0.40506    0.00139     0.40645
      H   18    0.09961      0.00000     0.39826    0.00213     0.40039
      H   19    0.09796      0.00000     0.39999    0.00205     0.40204
      H   20    0.09994      0.00000     0.39858    0.00148     0.40006
      H   21    0.08565      0.00000     0.41247    0.00188     0.41435
      H   22    0.10242      0.00000     0.39592    0.00166     0.39758
      H   23    0.11445      0.00000     0.38433    0.00123     0.38555
      H   24    0.11156      0.00000     0.38682    0.00162     0.38844
      H   25    0.11248      0.00000     0.38566    0.00186     0.38752
 =======================================================================
   * Total *    0.00000     14.99533    30.84020    0.16447    46.00000

 Normal termination of Gaussian 16 at Tue Dec  8 21:05:18 2020.
