 Gaussian 16, Revision A.03,

 -----------------------------------------------------------
 # opt freq B3LYP/6-31G(d) empiricaldispersion=gd3bj scf=xqc
 -----------------------------------------------------------

 -------------------------------
 CID_151039973_JID_1533_neutraal
 -------------------------------
 Symbolic Z-matrix:
 Charge =  0 Multiplicity = 1

 SCF Done:  E(RB3LYP) =  -924.842715621     A.U. after   15 cycles
 SCF Done:  E(RB3LYP) =  -924.847502826     A.U. after   13 cycles
 SCF Done:  E(RB3LYP) =  -924.848275702     A.U. after   12 cycles
 SCF Done:  E(RB3LYP) =  -924.848375819     A.U. after   12 cycles
 SCF Done:  E(RB3LYP) =  -924.848496476     A.U. after   11 cycles
 SCF Done:  E(RB3LYP) =  -924.848541449     A.U. after   12 cycles
 SCF Done:  E(RB3LYP) =  -924.848538228     A.U. after   11 cycles
 SCF Done:  E(RB3LYP) =  -924.848565642     A.U. after   11 cycles
 SCF Done:  E(RB3LYP) =  -924.848570520     A.U. after    9 cycles
 SCF Done:  E(RB3LYP) =  -924.848571721     A.U. after    8 cycles
 SCF Done:  E(RB3LYP) =  -924.848571934     A.U. after    8 cycles
 Optimization completed.
    -- Stationary point found.
 Normal termination of Gaussian 16 at Tue Dec  8 20:17:44 2020.

 --------------------------------------------------------------------
 #N Geom=AllCheck Guess=TCheck SCRF=Check GenChk RB3LYP/6-31G(d) Freq
 --------------------------------------------------------------------

 Structure from the checkpoint file:  "JID_1533.chk"
 -------------------------------
 CID_151039973_JID_1533_neutraal
 -------------------------------
 Charge =  0 Multiplicity = 1

 SCF Done:  E(RB3LYP) =  -924.848571934     A.U. after    1 cycles

  Exact polarizability: 113.347 -10.875  77.250  10.214   5.957  73.071
 Approx polarizability: 154.605 -21.113 127.341  21.825  20.572 126.913

                      1                      2                      3
                      A                      A                      A
 Frequencies --     31.7993                43.9802                56.0800
 Red. masses --      7.0778                 6.6073                 7.9963
 Frc consts  --      0.0042                 0.0075                 0.0148
 IR Inten    --      1.4891                 1.2736                 1.4823

                      4                      5                      6
                      A                      A                      A
 Frequencies --    119.9499               139.0787               252.2520
 Red. masses --      4.4234                 7.1287                 3.9156
 Frc consts  --      0.0375                 0.0812                 0.1468
 IR Inten    --      1.4465                 1.0670                 3.4479

                      7                      8                      9
                      A                      A                      A
 Frequencies --    260.6565               300.1709               362.8205
 Red. masses --      5.4983                 3.5637                 1.1204
 Frc consts  --      0.2201                 0.1892                 0.0869
 IR Inten    --      4.2751                 0.4018               123.3318

                     10                     11                     12
                      A                      A                      A
 Frequencies --    386.9505               409.4401               483.9447
 Red. masses --      3.7380                 1.5410                 4.3452
 Frc consts  --      0.3298                 0.1522                 0.5996
 IR Inten    --      4.7401                29.5058                27.9808

                     13                     14                     15
                      A                      A                      A
 Frequencies --    496.4707               511.2200               553.5172
 Red. masses --      2.1171                 4.4990                 1.7980
 Frc consts  --      0.3074                 0.6928                 0.3246
 IR Inten    --     44.0913                23.6074                54.8016

                     16                     17                     18
                      A                      A                      A
 Frequencies --    598.7539               659.6360               720.9904
 Red. masses --      2.8524                 5.0498                 2.5159
 Frc consts  --      0.6025                 1.2946                 0.7706
 IR Inten    --     66.4995                 3.0221                49.1232

                     19                     20                     21
                      A                      A                      A
 Frequencies --    747.4789               790.2666               936.9188
 Red. masses --     10.8319                 1.9962                 1.9518
 Frc consts  --      3.5658                 0.7345                 1.0095
 IR Inten    --      0.1461                 7.0605                32.0268

                     22                     23                     24
                      A                      A                      A
 Frequencies --    977.0594              1020.7134              1057.3967
 Red. masses --      2.1497                 9.1049                 6.5952
 Frc consts  --      1.2091                 5.5890                 4.3447
 IR Inten    --     40.3017                12.3343                 7.4252

                     25                     26                     27
                      A                      A                      A
 Frequencies --   1060.7258              1081.6755              1100.3615
 Red. masses --      3.2668                 2.5539                 2.6965
 Frc consts  --      2.1656                 1.7606                 1.9236
 IR Inten    --    108.0507                76.3184               107.7986

                     28                     29                     30
                      A                      A                      A
 Frequencies --   1143.0203              1173.9825              1179.7731
 Red. masses --      4.9571                 1.8980                 1.9397
 Frc consts  --      3.8158                 1.5412                 1.5907
 IR Inten    --      8.9278                35.2920                54.8336

                     31                     32                     33
                      A                      A                      A
 Frequencies --   1226.8825              1257.6485              1290.3608
 Red. masses --      1.2077                 8.1818                 1.4092
 Frc consts  --      1.0710                 7.6246                 1.3824
 IR Inten    --      1.7971                 5.0901                28.8673

                     34                     35                     36
                      A                      A                      A
 Frequencies --   1300.2003              1335.8386              1358.6144
 Red. masses --      3.0234                 1.4098                 1.3048
 Frc consts  --      3.0114                 1.4822                 1.4191
 IR Inten    --     26.5683                23.4499                19.9154

                     37                     38                     39
                      A                      A                      A
 Frequencies --   1377.1420              1413.7442              1449.9269
 Red. masses --      1.3684                 4.7853                 1.2153
 Frc consts  --      1.5290                 5.6351                 1.5053
 IR Inten    --      9.9457                95.1831                37.9679

                     40                     41                     42
                      A                      A                      A
 Frequencies --   1474.6416              1484.8671              1506.6826
 Red. masses --      1.3695                 1.2283                 2.3036
 Frc consts  --      1.7546                 1.5957                 3.0811
 IR Inten    --     40.6123                14.8205                21.0195

                     43                     44                     45
                      A                      A                      A
 Frequencies --   1514.4981              3037.9702              3071.4828
 Red. masses --      1.1007                 1.0715                 1.0853
 Frc consts  --      1.4874                 5.8266                 6.0327
 IR Inten    --      5.0108                12.5885                46.5730

                     46                     47                     48
                      A                      A                      A
 Frequencies --   3102.6038              3131.3896              3163.2125
 Red. masses --      1.0604                 1.0915                 1.1069
 Frc consts  --      6.0140                 6.3056                 6.5253
 IR Inten    --      5.5958                11.0667                 1.8677

                     49                     50                     51
                      A                      A                      A
 Frequencies --   3648.3539              3701.7504              3734.8086
 Red. masses --      1.0833                 1.0650                 1.0656
 Frc consts  --      8.4952                 8.5983                 8.7579
 IR Inten    --    120.2382                13.2708                19.7474

 - Thermochemistry -
 -------------------
 Temperature   298.150 Kelvin.  Pressure   1.00000 Atm.
 Atom     1 has atomic number  6 and mass  12.00000

 Molecular mass:   176.03680 amu.
 Principal axes and moments of inertia in atomic units:
                           1         2         3
     Eigenvalues --   881.888733774.326484124.87897
           X            0.99999   0.00158   0.00497
           Y           -0.00136   0.99905  -0.04352
           Z           -0.00503   0.04351   0.99904
 This molecule is an asymmetric top.
 Rotational symmetry number  1.
 Warning -- assumption of classical behavior for rotation
           may cause significant error
 Rotational temperatures (Kelvin)      0.09821     0.02295     0.02100
 Rotational constants (GHZ):           2.04645     0.47816     0.43753
 Zero-point vibrational energy     378257.4 (Joules/Mol)
                                   90.40569 (Kcal/Mol)
 Warning -- explicit consideration of  16 degrees of freedom as
           vibrations may cause significant error
 Vibrational temperatures:     45.75    63.28    80.69   172.58   200.10
          (Kelvin)            362.93   375.03   431.88   522.02   556.74
                              589.09   696.29   714.31   735.53   796.39
                              861.47   949.07  1037.34  1075.46  1137.02
                             1348.02  1405.77  1468.58  1521.36  1526.15
                             1556.29  1583.17  1644.55  1689.10  1697.43
                             1765.21  1809.48  1856.54  1870.70  1921.97
                             1954.74  1981.40  2034.06  2086.12  2121.68
                             2136.39  2167.78  2179.02  4370.96  4419.18
                             4463.95  4505.37  4551.16  5249.17  5325.99
                             5373.56

 Zero-point correction=                           0.144071 (Hartree/Particle)
 Thermal correction to Energy=                    0.154989
 Thermal correction to Enthalpy=                  0.155933
 Thermal correction to Gibbs Free Energy=         0.105271
 Sum of electronic and zero-point Energies=           -924.704501
 Sum of electronic and thermal Energies=              -924.693583
 Sum of electronic and thermal Enthalpies=            -924.692639
 Sum of electronic and thermal Free Energies=         -924.743301

                     E (Thermal)             CV                S
                      KCal/Mol        Cal/Mol-Kelvin    Cal/Mol-Kelvin
 Total                   97.257             39.089            106.627
 Electronic               0.000              0.000              0.000
 Translational            0.889              2.981             41.404
 Rotational               0.889              2.981             30.996
 Vibrational             95.480             33.128             34.226
 Vibration     1          0.594              1.983              5.714
 Vibration     2          0.595              1.980              5.071
 Vibration     3          0.596              1.975              4.591
 Vibration     4          0.609              1.933              3.101
 Vibration     5          0.615              1.914              2.817
 Vibration     6          0.664              1.759              1.715
 Vibration     7          0.669              1.745              1.657
 Vibration     8          0.693              1.673              1.416
 Vibration     9          0.737              1.549              1.110
 Vibration    10          0.755              1.498              1.012
 Vibration    11          0.774              1.450              0.929
 Vibration    12          0.840              1.286              0.700
 Vibration    13          0.852              1.258              0.667
 Vibration    14          0.866              1.225              0.631
 Vibration    15          0.909              1.132              0.537
 Vibration    16          0.957              1.034              0.452

                           ! Non-Optimized Parameters !
 Normal termination of Gaussian 16 at Tue Dec  8 20:21:24 2020.

 ----------------------------------------------------------------------
 # B3LYP/6-311++G(d,p) empiricaldispersion=gd3bj scf=xqc pop=npa geom=c
 heck
 ----------------------------------------------------------------------

 ---------------------------------------
 CID_151039973_JID_1533_Energie_neutraal
 ---------------------------------------
 Structure from the checkpoint file:  "JID_1533.chk"
 Charge =  0 Multiplicity = 1

 SCF Done:  E(RB3LYP) =  -925.045930493     A.U. after   14 cycles
 Normal termination of Gaussian 16 at Tue Dec  8 20:22:56 2020.

 ----------------------------------------------------------------------
 # B3LYP/6-311++G(d,p) empiricaldispersion=gd3bj scf=xqc pop=npa geom=c
 heck
 ----------------------------------------------------------------------

 -------------------------------------
 CID_151039973_JID_1533_Energie_kation
 -------------------------------------
 Structure from the checkpoint file:  "JID_1533.chk"
 Charge =  1 Multiplicity = 2

 SCF Done:  E(UB3LYP) =  -924.724550213     A.U. after   20 cycles
 Normal termination of Gaussian 16 at Tue Dec  8 20:26:56 2020.
 Gaussian 16:  ES64L-G16RevA.03 25-Dec-2016

 ----------------------------------------------------------------------
 # B3LYP/6-311++G(d,p) empiricaldispersion=gd3bj scf=xqc pop=npa geom=c
 heck
 ----------------------------------------------------------------------

 ------------------------------------
 CID_151039973_JID_1533_Energie_anion
 ------------------------------------
 Structure from the checkpoint file:  "JID_1533.chk"
 Charge = -1 Multiplicity = 2

                         Standard orientation:
 ---------------------------------------------------------------------
 Center     Atomic      Atomic             Coordinates (Angstroms)
 Number     Number       Type             X           Y           Z
 ---------------------------------------------------------------------
      1          6           0        1.485332    0.519027    0.712631
      2          6           0        0.778390   -0.784326    1.074074
      3         16           0       -0.310506   -1.458396   -0.251081
      4          6           0       -1.657015   -0.340269   -0.120019
      5          7           0       -2.685547   -0.361356   -0.970812
      6          7           0       -3.437249    0.618015   -0.467650
      7          7           0       -2.939394    1.219659    0.600944
      8          7           0       -1.797354    0.618455    0.842350
      9          6           0        2.500153    0.363364   -0.413456
     10          8           0        3.087061    1.630872   -0.605390
     11          8           0        3.478656   -0.621557   -0.132063
     12          1           0        2.019870    0.883760    1.601824
     13          1           0        0.757422    1.290376    0.447857
     14          1           0        1.507392   -1.582145    1.237906
     15          1           0        0.172635   -0.664851    1.973640
     16          1           0       -4.323538    0.886318   -0.875106
     17          1           0        2.014037    0.001684   -1.327532
     18          1           0        3.707553    1.543336   -1.346914
     19          1           0        3.962634   -0.308849    0.652040
 ---------------------------------------------------------------------

 SCF Done:  E(UB3LYP) =  -925.035356467     A.U. after   33 cycles
 SCF Done:  E(UB3LYP) =  -925.036917153     a.u. after    7 cycles

 The electronic state is 2-A.
 Alpha  occ. eigenvalues --  -88.76093 -19.03344 -19.03117 -14.31394 -14.27156
 Alpha  occ. eigenvalues --  -14.24600 -14.23346 -10.17078 -10.14876 -10.10764
 Alpha  occ. eigenvalues --  -10.07405  -7.84718  -5.81125  -5.80716  -5.80100
 Alpha  occ. eigenvalues --   -1.03697  -0.97059  -0.90130  -0.83814  -0.78504
 Alpha  occ. eigenvalues --   -0.71398  -0.64651  -0.57440  -0.57203  -0.52262
 Alpha  occ. eigenvalues --   -0.49417  -0.45615  -0.44300  -0.39232  -0.38731
 Alpha  occ. eigenvalues --   -0.38400  -0.33113  -0.32628  -0.32156  -0.30084
 Alpha  occ. eigenvalues --   -0.28337  -0.26110  -0.24082  -0.23103  -0.22402
 Alpha  occ. eigenvalues --   -0.21959  -0.21717  -0.21037  -0.18885  -0.18709
 Alpha  occ. eigenvalues --   -0.13134   0.04464
 Alpha virt. eigenvalues --    0.05795   0.06877   0.07364   0.09562   0.10118
 Alpha virt. eigenvalues --    0.11073   0.12275   0.12750   0.13167   0.13342
 Alpha virt. eigenvalues --    0.13812   0.15564   0.16580   0.17296   0.17432

  Beta  occ. eigenvalues --  -88.76094 -19.03308 -19.03075 -14.31180 -14.26912
  Beta  occ. eigenvalues --  -14.24487 -14.23314 -10.17073 -10.14897 -10.10758
  Beta  occ. eigenvalues --  -10.07389  -7.84719  -5.81125  -5.80716  -5.80103
  Beta  occ. eigenvalues --   -1.03426  -0.96989  -0.90040  -0.83532  -0.78293
  Beta  occ. eigenvalues --   -0.71347  -0.64597  -0.57340  -0.56908  -0.52185
  Beta  occ. eigenvalues --   -0.49321  -0.45464  -0.44190  -0.38966  -0.38371
  Beta  occ. eigenvalues --   -0.38275  -0.33058  -0.32576  -0.32101  -0.30052
  Beta  occ. eigenvalues --   -0.28176  -0.26045  -0.24031  -0.22988  -0.22170
  Beta  occ. eigenvalues --   -0.21756  -0.20992  -0.20842  -0.18795  -0.18568
  Beta  occ. eigenvalues --   -0.12872
  Beta virt. eigenvalues --    0.07077   0.08097   0.08256   0.08571   0.09748
  Beta virt. eigenvalues --    0.10352   0.11161   0.12292   0.12831   0.13304
  Beta virt. eigenvalues --    0.13446   0.13860   0.15407   0.16519   0.17393

 Mulliken charges and spin densities:
               1          2
     1  C   -0.766900   0.622378
     2  C   -0.087574  -0.151250
     3  S    0.525607  -0.173342
     4  C   -0.591526  -0.111285
     5  N   -0.044719   0.037549
     6  N    0.241286  -0.290922
     7  N    0.136159   0.117932
     8  N   -0.210264  -0.057417
     9  C    1.032691  -1.623155
    10  O   -0.311661   0.064974
    11  O   -0.236735  -0.001128
    12  H   -0.181236   0.363105
    13  H    0.141307   0.038584
    14  H    0.113002   0.109847
    15  H    0.179529   0.031704
    16  H   -0.601664   0.968702
    17  H    0.039208   0.136177
    18  H   -0.126086   0.390319
    19  H   -0.250426   0.527229
 Sum of Mulliken charges =  -1.00000   1.00000

 Dipole moment (field-independent basis, Debye):
    X=              1.4102    Y=             -2.7003    Z=              1.2840  Tot=              3.3059
 Quadrupole moment (field-independent basis, Debye-Ang):
   XX=           -160.3604   YY=            -99.1036   ZZ=            -93.8454
   XY=              5.6297   XZ=             -6.9129   YZ=             -1.3117

 Summary of Natural Population Analysis:

                                       Natural Population
                Natural  -----------------------------------------------
    Atom  No    Charge         Core      Valence    Rydberg      Total
 -----------------------------------------------------------------------
      C    1   -0.21745      0.99959     2.20616    0.01170     3.21745
      C    2   -0.24834      0.99958     2.23707    0.01169     3.24834
      S    3    0.12602      4.99952     2.85543    0.01902     7.87398
      C    4    0.06480      0.99963     1.91419    0.02138     2.93520
      N    5   -0.14782      0.99968     2.63474    0.01340     3.64782
      N    6   -0.05366      0.99975     2.53649    0.01742     3.55366
      N    7   -0.00123      0.99979     2.48379    0.01765     3.50123
      N    8   -0.17484      0.99970     2.66094    0.01420     3.67484
      C    9    0.20788      0.99962     1.77347    0.01903     2.79212
      O   10   -0.37073      0.99989     3.36496    0.00588     4.37073
      O   11   -0.37556      0.99990     3.36868    0.00699     4.37556
      H   12    0.10342      0.00000     0.39524    0.00134     0.39658
      H   13    0.11615      0.00000     0.38235    0.00150     0.38385
      H   14    0.11177      0.00000     0.38701    0.00122     0.38823
      H   15    0.11335      0.00000     0.38522    0.00143     0.38665
      H   16    0.20689      0.00000     0.27056    0.02256     0.29311
      H   17    0.07587      0.00000     0.42232    0.00182     0.42413
      H   18    0.23314      0.00000     0.26176    0.00510     0.26686
      H   19    0.23035      0.00000     0.26033    0.00931     0.26965
 =======================================================================
   * Total *    0.00000     14.99664    30.80071    0.20266    46.00000

 Normal termination of Gaussian 16 at Tue Dec  8 20:59:46 2020.
