 Gaussian 16, Revision A.03,

 -----------------------------------------------------------
 # opt freq B3LYP/6-31G(d) empiricaldispersion=gd3bj scf=xqc
 -----------------------------------------------------------

 -------------------------------
 CID_113891451_JID_8368_neutraal
 -------------------------------
 Symbolic Z-matrix:
 Charge =  0 Multiplicity = 1

 SCF Done:  E(RB3LYP) =  -842.647894371     A.U. after   15 cycles
 SCF Done:  E(RB3LYP) =  -842.653098956     A.U. after   12 cycles
 SCF Done:  E(RB3LYP) =  -842.654283566     A.U. after   12 cycles
 SCF Done:  E(RB3LYP) =  -842.655986329     A.U. after   12 cycles
 SCF Done:  E(RB3LYP) =  -842.656936678     A.U. after   12 cycles
 SCF Done:  E(RB3LYP) =  -842.657645734     A.U. after   12 cycles
 SCF Done:  E(RB3LYP) =  -842.657734225     A.U. after   13 cycles
 SCF Done:  E(RB3LYP) =  -842.658687406     A.U. after   12 cycles
 SCF Done:  E(RB3LYP) =  -842.659364959     A.U. after   13 cycles
 SCF Done:  E(RB3LYP) =  -842.659765691     A.U. after   12 cycles
 SCF Done:  E(RB3LYP) =  -842.660165357     A.U. after   10 cycles
 SCF Done:  E(RB3LYP) =  -842.660169421     A.U. after    9 cycles
 SCF Done:  E(RB3LYP) =  -842.660169790     A.U. after    8 cycles
 SCF Done:  E(RB3LYP) =  -842.660169894     A.U. after    7 cycles
 SCF Done:  E(RB3LYP) =  -842.660169894     A.U. after    6 cycles
 Optimization completed.
    -- Stationary point found.
 Normal termination of Gaussian 16 at Fri Dec 11 20:25:18 2020.

 --------------------------------------------------------------------
 #N Geom=AllCheck Guess=TCheck SCRF=Check GenChk RB3LYP/6-31G(d) Freq
 --------------------------------------------------------------------

 Structure from the checkpoint file:  "JID_8368.chk"
 -------------------------------
 CID_113891451_JID_8368_neutraal
 -------------------------------
 Charge =  0 Multiplicity = 1

 SCF Done:  E(RB3LYP) =  -842.660169894     A.U. after    1 cycles

  Exact polarizability: 203.266   4.117 123.073  -1.289   0.063 147.777
 Approx polarizability: 269.140   5.354 163.293  -3.841  -4.898 264.141

                      1                      2                      3
                      A                      A                      A
 Frequencies --     21.6618                36.9404                47.8053
 Red. masses --      5.2770                10.0350                 3.2853
 Frc consts  --      0.0015                 0.0081                 0.0044
 IR Inten    --      0.4671                 1.0268                 0.7858

                      4                      5                      6
                      A                      A                      A
 Frequencies --     61.5007                67.0936                83.9518
 Red. masses --      3.6056                 3.9809                 3.9238
 Frc consts  --      0.0080                 0.0106                 0.0163
 IR Inten    --      0.1729                 0.0989                 0.1463

                      7                      8                      9
                      A                      A                      A
 Frequencies --    110.0949               147.6478               155.3524
 Red. masses --      3.6251                 5.0335                 5.4588
 Frc consts  --      0.0259                 0.0647                 0.0776
 IR Inten    --      1.1054                10.3199                 1.6511

                     10                     11                     12
                      A                      A                      A
 Frequencies --    165.3685               209.9958               225.9611
 Red. masses --      4.7145                 3.1460                 1.3373
 Frc consts  --      0.0760                 0.0817                 0.0402
 IR Inten    --      5.4332                 7.4588                 3.1727

                     13                     14                     15
                      A                      A                      A
 Frequencies --    232.1470               281.7065               290.1758
 Red. masses --      2.1172                 1.9337                 1.5576
 Frc consts  --      0.0672                 0.0904                 0.0773
 IR Inten    --      4.7686                32.1177                 8.5299

                     16                     17                     18
                      A                      A                      A
 Frequencies --    308.6667               331.6218               348.7301
 Red. masses --      1.4246                 2.1093                 2.1968
 Frc consts  --      0.0800                 0.1367                 0.1574
 IR Inten    --    106.8544                 1.8560                 0.8647

                     19                     20                     21
                      A                      A                      A
 Frequencies --    382.9462               403.6581               406.6380
 Red. masses --      2.2839                 5.7816                 2.3985
 Frc consts  --      0.1973                 0.5550                 0.2337
 IR Inten    --      3.5443                 2.9400                 0.9494

                     22                     23                     24
                      A                      A                      A
 Frequencies --    433.2587               440.4386               478.1765
 Red. masses --      3.4772                 2.4476                 2.8857
 Frc consts  --      0.3846                 0.2797                 0.3888
 IR Inten    --      0.2703                 5.0885                 2.7121

                     25                     26                     27
                      A                      A                      A
 Frequencies --    483.2882               510.9533               536.4740
 Red. masses --      2.9153                 3.1616                 2.4844
 Frc consts  --      0.4012                 0.4863                 0.4213
 IR Inten    --      1.0252                 7.1979                 4.1544

                     28                     29                     30
                      A                      A                      A
 Frequencies --    566.6727               624.0505               638.9873
 Red. masses --      3.6390                 1.8927                 2.6598
 Frc consts  --      0.6885                 0.4343                 0.6399
 IR Inten    --      3.1313                51.0145                36.2680

                     31                     32                     33
                      A                      A                      A
 Frequencies --    646.0181               732.2280               743.5631
 Red. masses --      4.5136                 4.1735                 2.8218
 Frc consts  --      1.1099                 1.3184                 0.9192
 IR Inten    --     71.4856                28.0161                10.4243

                     34                     35                     36
                      A                      A                      A
 Frequencies --    769.8556               777.0703               821.6805
 Red. masses --      2.3566                 2.1047                 2.0268
 Frc consts  --      0.8229                 0.7488                 0.8062
 IR Inten    --      1.9901                40.9953                 1.7276

                     37                     38                     39
                      A                      A                      A
 Frequencies --    847.1810               857.4976               896.9511
 Red. masses --      2.1947                 3.0293                 3.4602
 Frc consts  --      0.9280                 1.3124                 1.6402
 IR Inten    --      7.5994                 8.1545                 1.3596

                     40                     41                     42
                      A                      A                      A
 Frequencies --    930.0569               946.3777               949.6806
 Red. masses --      2.3627                 1.2174                 1.3625
 Frc consts  --      1.2041                 0.6424                 0.7240
 IR Inten    --      5.9456                 0.8075                 2.9173

                     43                     44                     45
                      A                      A                      A
 Frequencies --    964.7225               972.7139               998.1786
 Red. masses --      1.7483                 1.7390                 1.9493
 Frc consts  --      0.9587                 0.9694                 1.1443
 IR Inten    --     14.3561                23.3364                28.4047

                     46                     47                     48
                      A                      A                      A
 Frequencies --   1015.9112              1020.6560              1063.6703
 Red. masses --      6.0332                 1.3644                 2.0733
 Frc consts  --      3.6687                 0.8374                 1.3821
 IR Inten    --      2.6943                 4.0114                18.8538

                     49                     50                     51
                      A                      A                      A
 Frequencies --   1068.8777              1099.5406              1110.8912
 Red. masses --      2.2696                 1.9475                 1.5716
 Frc consts  --      1.5277                 1.3872                 1.1427
 IR Inten    --     16.6733                 1.6014                31.6710

                     52                     53                     54
                      A                      A                      A
 Frequencies --   1125.0385              1125.5111              1158.3044
 Red. masses --      2.6667                 2.1582                 3.1226
 Frc consts  --      1.9887                 1.6108                 2.4684
 IR Inten    --     20.9402                 9.3648               247.5296

                     55                     56                     57
                      A                      A                      A
 Frequencies --   1178.9420              1189.9993              1205.0110
 Red. masses --      1.6806                 1.3259                 1.6307
 Frc consts  --      1.3762                 1.1063                 1.3951
 IR Inten    --     16.0979                26.2137                35.6050

                     58                     59                     60
                      A                      A                      A
 Frequencies --   1214.6021              1217.7669              1239.6797
 Red. masses --      1.9397                 1.9047                 1.4469
 Frc consts  --      1.6860                 1.6642                 1.3101
 IR Inten    --     87.7034                20.2595                36.3261

                     61                     62                     63
                      A                      A                      A
 Frequencies --   1269.0564              1275.6967              1304.5774
 Red. masses --      1.2548                 2.7004                 1.4663
 Frc consts  --      1.1907                 2.5893                 1.4703
 IR Inten    --     22.4298                10.3117                16.5562

                     64                     65                     66
                      A                      A                      A
 Frequencies --   1325.0894              1338.9170              1353.6186
 Red. masses --      1.5435                 2.4841                 1.2663
 Frc consts  --      1.5967                 2.6238                 1.3670
 IR Inten    --     25.3591                24.8926                37.6252

                     67                     68                     69
                      A                      A                      A
 Frequencies --   1379.2008              1385.2848              1389.0697
 Red. masses --      1.3622                 2.5140                 1.2863
 Frc consts  --      1.5266                 2.8425                 1.4624
 IR Inten    --     15.2580                69.6474                24.8713

                     70                     71                     72
                      A                      A                      A
 Frequencies --   1412.4238              1419.6916              1431.7854
 Red. masses --      1.4723                 1.3022                 1.3281
 Frc consts  --      1.7306                 1.5463                 1.6041
 IR Inten    --     17.7664                17.0650                 6.0837

                     73                     74                     75
                      A                      A                      A
 Frequencies --   1434.8276              1452.6242              1473.5457
 Red. masses --      1.4135                 1.2454                 1.4394
 Frc consts  --      1.7146                 1.5484                 1.8414
 IR Inten    --     13.9073                13.7018                 7.9770

                     76                     77                     78
                      A                      A                      A
 Frequencies --   1483.5971              1492.1143              1497.2859
 Red. masses --      3.2290                 2.2541                 1.1363
 Frc consts  --      4.1874                 2.9569                 1.5008
 IR Inten    --      9.8277                33.0675                 2.9408

                     79                     80                     81
                      A                      A                      A
 Frequencies --   1511.5184              1521.3685              1524.4502
 Red. masses --      1.0624                 1.0472                 1.0820
 Frc consts  --      1.4301                 1.4280                 1.4815
 IR Inten    --      0.4182                 0.7630                 1.2575

                     82                     83                     84
                      A                      A                      A
 Frequencies --   1537.0928              1546.0014              1551.6807
 Red. masses --      1.0713                 1.0618                 1.0674
 Frc consts  --      1.4913                 1.4953                 1.5142
 IR Inten    --      6.4824                 1.8659                22.2214

                     85                     86                     87
                      A                      A                      A
 Frequencies --   1557.6056              1629.5466              1644.1608
 Red. masses --      1.0819                 5.9980                 6.0865
 Frc consts  --      1.5466                 9.3840                 9.6942
 IR Inten    --      5.0939                 5.6311                54.8650

                     88                     89                     90
                      A                      A                      A
 Frequencies --   1849.2091              2919.9285              3003.9166
 Red. masses --     10.2078                 1.0819                 1.0678
 Frc consts  --     20.5663                 5.4349                 5.6767
 IR Inten    --    252.9092                73.0229                76.1562

                     91                     92                     93
                      A                      A                      A
 Frequencies --   3005.4093              3037.2252              3040.9022
 Red. masses --      1.0662                 1.0700                 1.0705
 Frc consts  --      5.6740                 5.8153                 5.8323
 IR Inten    --     15.5889                34.9039                 3.2633

                     94                     95                     96
                      A                      A                      A
 Frequencies --   3052.1631              3052.5441              3064.9808
 Red. masses --      1.0815                 1.0424                 1.0370
 Frc consts  --      5.9359                 5.7227                 5.7398
 IR Inten    --     56.8927                41.3136                17.0427

                     97                     98                     99
                      A                      A                      A
 Frequencies --   3086.2677              3089.4730              3105.8476
 Red. masses --      1.0907                 1.1022                 1.0965
 Frc consts  --      6.1211                 6.1985                 6.2321
 IR Inten    --      3.8393                58.6378                35.9945

                    100                    101                    102
                      A                      A                      A
 Frequencies --   3118.5292              3128.8406              3130.6216
 Red. masses --      1.1025                 1.1012                 1.0993
 Frc consts  --      6.3174                 6.3519                 6.3481
 IR Inten    --     10.4759                69.3018                39.6455

                    103                    104                    105
                      A                      A                      A
 Frequencies --   3147.0445              3197.0509              3233.3599
 Red. masses --      1.1016                 1.0897                 1.0921
 Frc consts  --      6.4282                 6.5622                 6.7272
 IR Inten    --     17.4102                13.0744                 2.8817

                    106                    107                    108
                      A                      A                      A
 Frequencies --   3247.3035              3702.0189              3755.9476
 Red. masses --      1.0933                 1.0642                 1.0665
 Frc consts  --      6.7924                 8.5932                 8.8644
 IR Inten    --      1.9332                73.7126                16.0061

 - Thermochemistry -
 -------------------
 Temperature   298.150 Kelvin.  Pressure   1.00000 Atm.
 Atom     1 has atomic number  6 and mass  12.00000

 Molecular mass:   252.14739 amu.
 Principal axes and moments of inertia in atomic units:
                           1         2         3
     Eigenvalues --  2806.417427988.169949027.22020
           X            0.99997   0.00621   0.00393
           Y           -0.00626   0.99989   0.01357
           Z           -0.00384  -0.01359   0.99990
 This molecule is an asymmetric top.
 Rotational symmetry number  1.
 Warning -- assumption of classical behavior for rotation
           may cause significant error
 Rotational temperatures (Kelvin)      0.03086     0.01084     0.00959
 Rotational constants (GHZ):           0.64308     0.22593     0.19992
 Zero-point vibrational energy     855512.7 (Joules/Mol)
                                  204.47245 (Kcal/Mol)
 Warning -- explicit consideration of  28 degrees of freedom as
           vibrations may cause significant error
 Vibrational temperatures:     31.17    53.15    68.78    88.49    96.53
          (Kelvin)            120.79   158.40   212.43   223.52   237.93
                              302.14   325.11   334.01   405.31   417.50
                              444.10   477.13   501.74   550.97   580.77
                              585.06   623.36   633.69   687.99   695.34
                              735.15   771.87   815.32   897.87   919.36
                              929.48  1053.51  1069.82  1107.65  1118.03
                             1182.21  1218.90  1233.75  1290.51  1338.14
                             1361.63  1366.38  1388.02  1399.52  1436.16
                             1461.67  1468.50  1530.38  1537.88  1581.99
                             1598.32  1618.68  1619.36  1666.54  1696.23
                             1712.14  1733.74  1747.54  1752.09  1783.62
                             1825.89  1835.44  1877.00  1906.51  1926.40
                             1947.56  1984.36  1993.12  1998.56  2032.16
                             2042.62  2060.02  2064.40  2090.00  2120.10
                             2134.57  2146.82  2154.26  2174.74  2188.91
                             2193.34  2211.53  2224.35  2232.52  2241.05
                             2344.55  2365.58  2660.60  4201.13  4321.97
                             4324.11  4369.89  4375.18  4391.38  4391.93
                             4409.82  4440.45  4445.06  4468.62  4486.87
                             4501.70  4504.27  4527.90  4599.84  4652.08
                             4672.15  5326.38  5403.97

 Zero-point correction=                           0.325848 (Hartree/Particle)
 Thermal correction to Energy=                    0.344257
 Thermal correction to Enthalpy=                  0.345201
 Thermal correction to Gibbs Free Energy=         0.277951
 Sum of electronic and zero-point Energies=           -842.334322
 Sum of electronic and thermal Energies=              -842.315913
 Sum of electronic and thermal Enthalpies=            -842.314969
 Sum of electronic and thermal Free Energies=         -842.382219

                     E (Thermal)             CV                S
                      KCal/Mol        Cal/Mol-Kelvin    Cal/Mol-Kelvin
 Total                  216.025             69.371            141.540
 Electronic               0.000              0.000              0.000
 Translational            0.889              2.981             42.475
 Rotational               0.889              2.981             33.670
 Vibrational            214.247             63.409             65.395
 Vibration     1          0.593              1.985              6.476
 Vibration     2          0.594              1.982              5.417
 Vibration     3          0.595              1.978              4.906
 Vibration     4          0.597              1.973              4.408
 Vibration     5          0.598              1.970              4.237
 Vibration     6          0.601              1.960              3.796
 Vibration     7          0.606              1.941              3.267
 Vibration     8          0.617              1.905              2.702
 Vibration     9          0.620              1.897              2.606
 Vibration    10          0.624              1.885              2.487
 Vibration    11          0.642              1.826              2.044
 Vibration    12          0.650              1.801              1.911
 Vibration    13          0.653              1.792              1.862
 Vibration    14          0.681              1.707              1.523
 Vibration    15          0.686              1.692              1.473
 Vibration    16          0.698              1.657              1.369
 Vibration    17          0.714              1.612              1.252
 Vibration    18          0.726              1.578              1.172
 Vibration    19          0.752              1.507              1.028
 Vibration    20          0.769              1.462              0.949
 Vibration    21          0.771              1.456              0.939
 Vibration    22          0.794              1.398              0.848
 Vibration    23          0.800              1.382              0.825
 Vibration    24          0.835              1.298              0.715
 Vibration    25          0.839              1.287              0.701
 Vibration    26          0.866              1.226              0.631
 Vibration    27          0.891              1.169              0.573
 Vibration    28          0.923              1.103              0.511

 Optimization completed.
    -- Stationary point found.
 Normal termination of Gaussian 16 at Fri Dec 11 20:42:39 2020.

 ----------------------------------------------------------------------
 # B3LYP/6-311++G(d,p) empiricaldispersion=gd3bj scf=xqc pop=npa geom=c
 heck
 ----------------------------------------------------------------------

 ---------------------------------------
 CID_113891451_JID_8368_Energie_neutraal
 ---------------------------------------
 Structure from the checkpoint file:  "JID_8368.chk"
 Charge =  0 Multiplicity = 1

 SCF Done:  E(RB3LYP) =  -842.913005313     A.U. after   15 cycles
 Normal termination of Gaussian 16 at Fri Dec 11 20:50:01 2020.

 ----------------------------------------------------------------------
 # B3LYP/6-311++G(d,p) empiricaldispersion=gd3bj scf=xqc pop=npa geom=c
 heck
 ----------------------------------------------------------------------

 -------------------------------------
 CID_113891451_JID_8368_Energie_kation
 -------------------------------------
 Structure from the checkpoint file:  "JID_8368.chk"
 Charge =  1 Multiplicity = 2

 SCF Done:  E(UB3LYP) =  -842.624793402     A.U. after   23 cycles
 Normal termination of Gaussian 16 at Fri Dec 11 21:05:18 2020.
 Gaussian 16:  ES64L-G16RevA.03 25-Dec-2016

 ----------------------------------------------------------------------
 # B3LYP/6-311++G(d,p) empiricaldispersion=gd3bj scf=xqc pop=npa geom=c
 heck
 ----------------------------------------------------------------------

 ------------------------------------
 CID_113891451_JID_8368_Energie_anion
 ------------------------------------
 Structure from the checkpoint file:  "JID_8368.chk"
 Charge = -1 Multiplicity = 2

                         Standard orientation:
 ---------------------------------------------------------------------
 Center     Atomic      Atomic             Coordinates (Angstroms)
 Number     Number       Type             X           Y           Z
 ---------------------------------------------------------------------
      1          6           0       -0.837873   -2.748730   -0.360044
      2          6           0       -2.142524   -1.960085   -0.517463
      3          6           0       -3.160713   -2.488719    0.501225
      4          7           0       -1.972375   -0.500349   -0.341448
      5          6           0       -3.167119    0.258046   -0.755333
      6          6           0       -3.615803    1.287473    0.288399
      7          6           0       -2.578696    2.355809    0.605672
      8          8           0       -2.247339    3.034327   -0.607395
      9          6           0       -0.754758    0.058141   -0.928392
     10          6           0        0.456833    0.009707   -0.017982
     11          7           0        1.644142    0.083363   -0.625028
     12          6           0        2.747745    0.099789    0.135924
     13          6           0        2.723049    0.043128    1.531974
     14          6           0        1.479509   -0.036821    2.158811
     15          6           0        0.330116   -0.055429    1.378093
     16          6           0        4.041279    0.176898   -0.619041
     17          8           0        4.157227    0.220047   -1.821244
     18          8           0        5.116638    0.194895    0.217672
     19          1           0       -0.428178   -2.640365    0.649102
     20          1           0       -0.067637   -2.448858   -1.074880
     21          1           0       -1.046999   -3.810620   -0.527258
     22          1           0       -2.525749   -2.163577   -1.536871
     23          1           0       -2.776504   -2.341984    1.517046
     24          1           0       -4.128621   -1.983596    0.432952
     25          1           0       -3.334205   -3.559432    0.346560
     26          1           0       -2.993708    0.764100   -1.714546
     27          1           0       -3.994162   -0.436407   -0.926433
     28          1           0       -4.528613    1.779637   -0.072461
     29          1           0       -3.865724    0.767438    1.221829
     30          1           0       -2.990049    3.060103    1.345325
     31          1           0       -1.687388    1.890397    1.049155
     32          1           0       -1.540397    3.667598   -0.412343
     33          1           0       -0.481797   -0.399162   -1.892449
     34          1           0       -0.945532    1.114821   -1.144871
     35          1           0        3.646131    0.055243    2.097720
     36          1           0        1.413252   -0.089186    3.242012
     37          1           0       -0.661046   -0.140645    1.807900
     38          1           0        5.896081    0.244013   -0.365481
 ---------------------------------------------------------------------

 SCF Done:  E(UB3LYP) =  -842.922224056     A.U. after   33 cycles
 SCF Done:  E(UB3LYP) =  -842.922224056     a.u. after    1 cycles

 The electronic state is 2-A.
 Alpha  occ. eigenvalues --  -19.02990 -19.02003 -18.94398 -14.19610 -14.14347
 Alpha  occ. eigenvalues --  -10.12681 -10.11513 -10.10430 -10.09180 -10.07173
 Alpha  occ. eigenvalues --  -10.06889 -10.06811 -10.06373 -10.05393 -10.04428
 Alpha  occ. eigenvalues --  -10.03654 -10.02983 -10.01697  -0.95476  -0.92857
 Alpha  occ. eigenvalues --   -0.86059  -0.81912  -0.78943  -0.68967  -0.66739
 Alpha  occ. eigenvalues --   -0.65321  -0.63386  -0.59518  -0.57540  -0.54764
 Alpha  occ. eigenvalues --   -0.51936  -0.49101  -0.47285  -0.45703  -0.44326
 Alpha  occ. eigenvalues --   -0.42611  -0.39334  -0.38283  -0.36530  -0.35963
 Alpha  occ. eigenvalues --   -0.34872  -0.34564  -0.32918  -0.32504  -0.32075
 Alpha  occ. eigenvalues --   -0.30546  -0.30297  -0.30000  -0.29408  -0.28730
 Alpha  occ. eigenvalues --   -0.28129  -0.27724  -0.26970  -0.25434  -0.24835
 Alpha  occ. eigenvalues --   -0.24740  -0.24552  -0.23513  -0.23422  -0.22816
 Alpha  occ. eigenvalues --   -0.21454  -0.18430  -0.17977  -0.14461  -0.12458
 Alpha  occ. eigenvalues --   -0.11966  -0.10948  -0.10410   0.04487
 Alpha virt. eigenvalues --    0.06240   0.07126   0.08346   0.08463   0.09225
 Alpha virt. eigenvalues --    0.09448   0.09922   0.10383   0.10988   0.11510
 Alpha virt. eigenvalues --    0.11731   0.12514   0.12816   0.13478   0.13741

  Beta  occ. eigenvalues --  -19.02983 -19.01933 -18.94105 -14.19611 -14.14020
  Beta  occ. eigenvalues --  -10.12457 -10.11487 -10.10428 -10.09180 -10.07169
  Beta  occ. eigenvalues --  -10.06886 -10.06809 -10.06470 -10.05389 -10.04168
  Beta  occ. eigenvalues --  -10.03576 -10.02954 -10.01392  -0.95189  -0.92840
  Beta  occ. eigenvalues --   -0.85619  -0.81890  -0.78438  -0.68956  -0.66692
  Beta  occ. eigenvalues --   -0.64865  -0.63082  -0.59405  -0.57438  -0.54664
  Beta  occ. eigenvalues --   -0.51260  -0.49074  -0.47223  -0.45553  -0.44109
  Beta  occ. eigenvalues --   -0.42550  -0.39290  -0.38210  -0.36503  -0.35901
  Beta  occ. eigenvalues --   -0.34844  -0.34323  -0.32673  -0.32304  -0.31957
  Beta  occ. eigenvalues --   -0.30336  -0.29950  -0.29427  -0.29124  -0.28617
  Beta  occ. eigenvalues --   -0.28086  -0.27684  -0.26815  -0.25283  -0.24744
  Beta  occ. eigenvalues --   -0.24610  -0.24343  -0.23451  -0.23350  -0.22172
  Beta  occ. eigenvalues --   -0.21327  -0.18364  -0.16768  -0.12921  -0.12147
  Beta  occ. eigenvalues --   -0.11397  -0.10205  -0.09929
  Beta virt. eigenvalues --    0.06366   0.07225   0.08309   0.08396   0.09194
  Beta virt. eigenvalues --    0.09525   0.09844   0.10321   0.10503   0.10951
  Beta virt. eigenvalues --    0.11598   0.11779   0.12434   0.12849   0.13435

 Mulliken charges and spin densities:
               1          2
     1  C   -0.569255  -0.019258
     2  C   -0.143873   0.018513
     3  C   -0.398380  -0.036932
     4  N    0.496816  -0.007150
     5  C   -0.338329  -0.018901
     6  C   -0.241111  -0.011774
     7  C    0.000856  -0.401442
     8  O   -0.226229  -0.005727
     9  C   -0.392993   0.015102
    10  C   -0.818398  -0.076700
    11  N    0.172427   0.154757
    12  C   -0.396560   0.149769
    13  C    0.055091   0.089832
    14  C   -1.175543   0.053815
    15  C    0.504534   0.236444
    16  C    0.516285   0.122967
    17  O   -0.402863   0.105065
    18  O   -0.224069   0.014799
    19  H    0.184264  -0.000857
    20  H    0.196737   0.006497
    21  H    0.121340   0.000310
    22  H    0.107599  -0.000113
    23  H    0.132102   0.015442
    24  H    0.085915   0.036184
    25  H    0.107505   0.006639
    26  H    0.160871   0.015337
    27  H    0.116142  -0.000080
    28  H    0.085494   0.061580
    29  H    0.081293   0.036994
    30  H   -0.290485   0.454764
    31  H    0.164390  -0.021356
    32  H    0.186829   0.065940
    33  H    0.172900   0.010140
    34  H    0.259303  -0.066855
    35  H    0.178862   0.001703
    36  H    0.080440   0.025539
    37  H    0.192542  -0.029815
    38  H    0.257551  -0.001171
 Sum of Mulliken charges =  -1.00000   1.00000

 Dipole moment (field-independent basis, Debye):
    X=             -6.1845    Y=             -2.0586    Z=              2.0932  Tot=              6.8460
 Quadrupole moment (field-independent basis, Debye-Ang):
   XX=           -162.3616   YY=           -127.1242   ZZ=           -133.3146
   XY=              7.3018   XZ=             10.8382   YZ=              1.2335

 Summary of Natural Population Analysis:

                                       Natural Population
                Natural  -----------------------------------------------
    Atom  No    Charge         Core      Valence    Rydberg      Total
 -----------------------------------------------------------------------
      C    1   -0.29264      0.99965     2.28789    0.00511     3.29264
      C    2    0.00304      0.99961     1.98823    0.00912     2.99696
      C    3   -0.28694      0.99965     2.28170    0.00559     3.28694
      N    4   -0.29459      0.99969     2.78111    0.01380     3.79459
      C    5   -0.08108      0.99961     2.07172    0.00975     3.08108
      C    6   -0.20182      0.99962     2.19125    0.01095     3.20182
      C    7   -0.01815      0.99959     2.00649    0.01208     3.01815
      O    8   -0.37608      0.99989     3.36975    0.00644     4.37608
      C    9   -0.10409      0.99957     2.09344    0.01108     3.10409
      C   10    0.07777      0.99953     1.90618    0.01653     2.92223
      N   11   -0.18197      0.99965     2.67121    0.01111     3.68197
      C   12    0.08612      0.99948     1.90085    0.01355     2.91388
      C   13   -0.10604      0.99954     2.09863    0.00788     3.10604
      C   14   -0.08283      0.99957     2.07473    0.00853     3.08283
      C   15   -0.07914      0.99950     2.06990    0.00974     3.07914
      C   16    0.41636      0.99969     1.55960    0.02435     2.58364
      O   17   -0.28759      0.99987     3.28103    0.00669     4.28759
      O   18   -0.35879      0.99988     3.35144    0.00748     4.35879
      H   19    0.10761      0.00000     0.39134    0.00105     0.39239
      H   20    0.11083      0.00000     0.38837    0.00080     0.38917
      H   21    0.09354      0.00000     0.40568    0.00078     0.40646
      H   22    0.07233      0.00000     0.42601    0.00166     0.42767
      H   23    0.10068      0.00000     0.39795    0.00136     0.39932
      H   24    0.09521      0.00000     0.40363    0.00116     0.40479
      H   25    0.09374      0.00000     0.40526    0.00100     0.40626
      H   26    0.09307      0.00000     0.40572    0.00121     0.40693
      H   27    0.09013      0.00000     0.40851    0.00136     0.40987
      H   28    0.09337      0.00000     0.40559    0.00104     0.40663
      H   29    0.09917      0.00000     0.39950    0.00133     0.40083
      H   30    0.07530      0.00000     0.42324    0.00145     0.42470
      H   31    0.09201      0.00000     0.40629    0.00170     0.40799
      H   32    0.23075      0.00000     0.26679    0.00246     0.26925
      H   33    0.09403      0.00000     0.40488    0.00110     0.40597
      H   34    0.11087      0.00000     0.38737    0.00176     0.38913
      H   35    0.10301      0.00000     0.39596    0.00102     0.39699
      H   36    0.08862      0.00000     0.41000    0.00139     0.41138
      H   37    0.09710      0.00000     0.40057    0.00233     0.40290
      H   38    0.22710      0.00000     0.26728    0.00562     0.27290
 =======================================================================
   * Total *   -0.00000     17.99358    49.78508    0.22134    68.00000

 Normal termination of Gaussian 16 at Fri Dec 11 21:26:57 2020.
