 Gaussian 16, Revision A.03,

 -----------------------------------------------------------
 # opt freq B3LYP/6-31G(d) empiricaldispersion=gd3bj scf=xqc
 -----------------------------------------------------------

 ------------------------------
 CID_54445489_JID_3850_neutraal
 ------------------------------
 Symbolic Z-matrix:
 Charge =  0 Multiplicity = 1

 SCF Done:  E(RB3LYP) =  -555.806180028     A.U. after   14 cycles
 SCF Done:  E(RB3LYP) =  -555.807680936     A.U. after   12 cycles
 SCF Done:  E(RB3LYP) =  -555.807846220     A.U. after   11 cycles
 SCF Done:  E(RB3LYP) =  -555.807924786     A.U. after   11 cycles
 SCF Done:  E(RB3LYP) =  -555.807960137     A.U. after   10 cycles
 SCF Done:  E(RB3LYP) =  -555.807975550     A.U. after   10 cycles
 SCF Done:  E(RB3LYP) =  -555.807978349     A.U. after    8 cycles
 SCF Done:  E(RB3LYP) =  -555.807980489     A.U. after    8 cycles
 SCF Done:  E(RB3LYP) =  -555.807981191     A.U. after    8 cycles
 SCF Done:  E(RB3LYP) =  -555.807981306     A.U. after    7 cycles
 Optimization completed.
    -- Stationary point found.
 Normal termination of Gaussian 16 at Sun Dec 13 20:03:54 2020.

 --------------------------------------------------------------------
 #N Geom=AllCheck Guess=TCheck SCRF=Check GenChk RB3LYP/6-31G(d) Freq
 --------------------------------------------------------------------

 Structure from the checkpoint file:  "JID_3850.chk"
 ------------------------------
 CID_54445489_JID_3850_neutraal
 ------------------------------
 Charge =  0 Multiplicity = 1

 SCF Done:  E(RB3LYP) =  -555.807981306     A.U. after    1 cycles

  Exact polarizability: 202.830  -1.328 124.963  -0.437  -3.924  52.806
 Approx polarizability: 297.960  -8.839 216.635  -1.571  -8.628  82.103

                      1                      2                      3
                      A                      A                      A
 Frequencies --     57.5659                79.1543               117.0570
 Red. masses --      3.4910                 5.1424                 4.2954
 Frc consts  --      0.0068                 0.0190                 0.0347
 IR Inten    --      2.6145                 0.2582                 1.1658

                      4                      5                      6
                      A                      A                      A
 Frequencies --    161.0129               177.3795               235.9376
 Red. masses --      1.0789                 2.9631                 4.4463
 Frc consts  --      0.0165                 0.0549                 0.1458
 IR Inten    --      2.3034                 0.0734                 6.0346

                      7                      8                      9
                      A                      A                      A
 Frequencies --    291.5117               306.2885               326.4979
 Red. masses --      3.4444                 1.1683                 5.0065
 Frc consts  --      0.1725                 0.0646                 0.3144
 IR Inten    --      1.6973                92.1623                 2.2567

                     10                     11                     12
                      A                      A                      A
 Frequencies --    356.2092               393.8280               447.2269
 Red. masses --      5.2619                 5.0998                 3.0957
 Frc consts  --      0.3934                 0.4660                 0.3648
 IR Inten    --      5.9578                 3.5297                 1.1977

                     13                     14                     15
                      A                      A                      A
 Frequencies --    472.4829               501.2923               563.6975
 Red. masses --      1.6446                 2.7332                 4.0613
 Frc consts  --      0.2163                 0.4047                 0.7603
 IR Inten    --     57.6304                17.4428                 0.9253

                     16                     17                     18
                      A                      A                      A
 Frequencies --    587.7170               626.2580               651.3717
 Red. masses --      3.2904                 3.0307                 6.7396
 Frc consts  --      0.6696                 0.7003                 1.6848
 IR Inten    --      2.6076                 0.9244                11.7273

                     19                     20                     21
                      A                      A                      A
 Frequencies --    681.0293               703.8197               723.8643
 Red. masses --      2.2169                 1.5948                 3.6119
 Frc consts  --      0.6058                 0.4655                 1.1151
 IR Inten    --      4.5545                43.1631                 3.8465

                     22                     23                     24
                      A                      A                      A
 Frequencies --    780.6569               793.4568               837.6326
 Red. masses --      3.7758                 1.3985                 1.4544
 Frc consts  --      1.3558                 0.5188                 0.6012
 IR Inten    --     19.7480                40.8581                19.1739

                     25                     26                     27
                      A                      A                      A
 Frequencies --    860.3960               876.9285               900.1560
 Red. masses --      1.2853                 5.6201                 1.3770
 Frc consts  --      0.5606                 2.5464                 0.6574
 IR Inten    --      0.1702                 0.1449                10.8175

                     28                     29                     30
                      A                      A                      A
 Frequencies --    906.6069               939.9264               971.4618
 Red. masses --      5.4704                 1.2843                 3.0837
 Frc consts  --      2.6492                 0.6685                 1.7146
 IR Inten    --      5.5762                 0.2183                 7.1213

                     31                     32                     33
                      A                      A                      A
 Frequencies --   1014.9067              1064.0048              1071.1759
 Red. masses --      1.5660                 1.3510                 1.4644
 Frc consts  --      0.9504                 0.9012                 0.9900
 IR Inten    --      6.6320                23.1194                 1.8719

                     34                     35                     36
                      A                      A                      A
 Frequencies --   1086.8644              1140.9150              1144.1222
 Red. masses --      1.6171                 1.7012                 1.6897
 Frc consts  --      1.1255                 1.3047                 1.3032
 IR Inten    --     16.5959                38.5746                 1.2222

                     37                     38                     39
                      A                      A                      A
 Frequencies --   1159.9463              1197.5822              1243.9209
 Red. masses --      1.9277                 1.4495                 2.3693
 Frc consts  --      1.5282                 1.2249                 2.1601
 IR Inten    --      0.9113                48.8368               138.7533

                     40                     41                     42
                      A                      A                      A
 Frequencies --   1282.8518              1302.1670              1329.3967
 Red. masses --      1.6347                 2.2697                 1.7478
 Frc consts  --      1.5851                 2.2676                 1.8199
 IR Inten    --     38.4073                83.7096                 5.3585

                     43                     44                     45
                      A                      A                      A
 Frequencies --   1346.6450              1387.8508              1437.4905
 Red. masses --      4.9686                 2.1642                 2.2126
 Frc consts  --      5.3087                 2.4561                 2.6938
 IR Inten    --     10.3418                22.8925                 7.8287

                     46                     47                     48
                      A                      A                      A
 Frequencies --   1444.1557              1459.6240              1490.8469
 Red. masses --      1.5150                 3.0346                 3.4826
 Frc consts  --      1.8616                 3.8092                 4.5606
 IR Inten    --      0.6663                 4.9205                 1.5340

                     49                     50                     51
                      A                      A                      A
 Frequencies --   1502.4912              1520.4143              1530.6180
 Red. masses --      4.0152                 1.0430                 1.3511
 Frc consts  --      5.3405                 1.4205                 1.8650
 IR Inten    --      6.9954                 6.6130                46.5463

                     52                     53                     54
                      A                      A                      A
 Frequencies --   1556.6384              1622.6950              1651.0194
 Red. masses --      2.2865                 4.1945                 5.4093
 Frc consts  --      3.2644                 6.5074                 8.6876
 IR Inten    --    161.7574                15.4605                 3.8219

                     55                     56                     57
                      A                      A                      A
 Frequencies --   1682.4427              3019.4726              3062.7030
 Red. masses --      6.1228                 1.0418                 1.1010
 Frc consts  --     10.2114                 5.5962                 6.0849
 IR Inten    --      2.3526                39.1703                24.6291

                     58                     59                     60
                      A                      A                      A
 Frequencies --   3134.4110              3184.2343              3191.2066
 Red. masses --      1.0952                 1.0881                 1.0898
 Frc consts  --      6.3394                 6.5001                 6.5389
 IR Inten    --      9.2253                15.3446                 9.5725

                     61                     62                     63
                      A                      A                      A
 Frequencies --   3215.7677              3252.2052              3264.8775
 Red. masses --      1.0933                 1.0896                 1.0958
 Frc consts  --      6.6612                 6.7903                 6.8819
 IR Inten    --     10.6760                 8.3897                 6.0559

                     64                     65                     66
                      A                      A                      A
 Frequencies --   3283.4377              3666.7878              3767.8098
 Red. masses --      1.1031                 1.0798                 1.0654
 Frc consts  --      7.0071                 8.5543                 8.9110
 IR Inten    --      4.8386                37.7542                58.3455

 - Thermochemistry -
 -------------------
 Temperature   298.150 Kelvin.  Pressure   1.00000 Atm.
 Atom     1 has atomic number  6 and mass  12.00000

 Molecular mass:   173.08406 amu.
 Principal axes and moments of inertia in atomic units:
                           1         2         3
     Eigenvalues --   805.666824245.091854976.29326
           X            0.99989   0.01507   0.00098
           Y           -0.01507   0.99988  -0.00278
           Z           -0.00102   0.00276   1.00000
 This molecule is an asymmetric top.
 Rotational symmetry number  1.
 Warning -- assumption of classical behavior for rotation
           may cause significant error
 Rotational temperatures (Kelvin)      0.10751     0.02040     0.01741
 Rotational constants (GHZ):           2.24006     0.42514     0.36267
 Zero-point vibrational energy     514646.2 (Joules/Mol)
                                  123.00339 (Kcal/Mol)
 Warning -- explicit consideration of  16 degrees of freedom as
           vibrations may cause significant error
 Vibrational temperatures:     82.82   113.89   168.42   231.66   255.21
          (Kelvin)            339.46   419.42   440.68   469.76   512.51
                              566.63   643.46   679.80   721.25   811.03
                              845.59   901.05   937.18   979.85  1012.64
                             1041.48  1123.19  1141.61  1205.17  1237.92
                             1261.70  1295.12  1304.41  1352.34  1397.72
                             1460.22  1530.87  1541.18  1563.76  1641.52
                             1646.14  1668.90  1723.05  1789.72  1845.74
                             1873.53  1912.71  1937.52  1996.81  2068.23
                             2077.82  2100.07  2145.00  2161.75  2187.54
                             2202.22  2239.66  2334.70  2375.45  2420.66
                             4344.35  4406.55  4509.72  4581.40  4591.43
                             4626.77  4679.20  4697.43  4724.13  5275.69
                             5421.04

 Zero-point correction=                           0.196018 (Hartree/Particle)
 Thermal correction to Energy=                    0.207332
 Thermal correction to Enthalpy=                  0.208277
 Thermal correction to Gibbs Free Energy=         0.158769
 Sum of electronic and zero-point Energies=           -555.611963
 Sum of electronic and thermal Energies=              -555.600649
 Sum of electronic and thermal Enthalpies=            -555.599705
 Sum of electronic and thermal Free Energies=         -555.649212

                     E (Thermal)             CV                S
                      KCal/Mol        Cal/Mol-Kelvin    Cal/Mol-Kelvin
 Total                  130.103             44.545            104.198
 Electronic               0.000              0.000              0.000
 Translational            0.889              2.981             41.353
 Rotational               0.889              2.981             31.210
 Vibrational            128.326             38.584             31.635
 Vibration     1          0.596              1.974              4.539
 Vibration     2          0.600              1.963              3.912
 Vibration     3          0.608              1.935              3.148
 Vibration     4          0.622              1.890              2.538
 Vibration     5          0.628              1.870              2.356
 Vibration     6          0.655              1.786              1.833
 Vibration     7          0.687              1.690              1.465
 Vibration     8          0.697              1.662              1.382
 Vibration     9          0.710              1.623              1.277
 Vibration    10          0.732              1.563              1.139
 Vibration    11          0.761              1.483              0.986
 Vibration    12          0.806              1.367              0.804
 Vibration    13          0.829              1.311              0.731
 Vibration    14          0.857              1.247              0.655
 Vibration    15          0.919              1.110              0.517
 Vibration    16          0.945              1.058              0.471

 Optimization completed.
    -- Stationary point found.
 Normal termination of Gaussian 16 at Sun Dec 13 20:09:36 2020.

 ----------------------------------------------------------------------
 # B3LYP/6-311++G(d,p) empiricaldispersion=gd3bj scf=xqc pop=npa geom=c
 heck
 ----------------------------------------------------------------------

 --------------------------------------
 CID_54445489_JID_3850_Energie_neutraal
 --------------------------------------
 Structure from the checkpoint file:  "JID_3850.chk"
 Charge =  0 Multiplicity = 1

 SCF Done:  E(RB3LYP) =  -555.966290249     A.U. after   15 cycles
 Normal termination of Gaussian 16 at Sun Dec 13 20:12:08 2020.

 ----------------------------------------------------------------------
 # B3LYP/6-311++G(d,p) empiricaldispersion=gd3bj scf=xqc pop=npa geom=c
 heck
 ----------------------------------------------------------------------

 ------------------------------------
 CID_54445489_JID_3850_Energie_kation
 ------------------------------------
 Structure from the checkpoint file:  "JID_3850.chk"
 Charge =  1 Multiplicity = 2

 SCF Done:  E(UB3LYP) =  -555.709273304     A.U. after   21 cycles
 Normal termination of Gaussian 16 at Sun Dec 13 20:17:08 2020.
 Gaussian 16:  ES64L-G16RevA.03 25-Dec-2016

 ----------------------------------------------------------------------
 # B3LYP/6-311++G(d,p) empiricaldispersion=gd3bj scf=xqc pop=npa geom=c
 heck
 ----------------------------------------------------------------------

 -----------------------------------
 CID_54445489_JID_3850_Energie_anion
 -----------------------------------
 Structure from the checkpoint file:  "JID_3850.chk"
 Charge = -1 Multiplicity = 2

                         Standard orientation:
 ---------------------------------------------------------------------
 Center     Atomic      Atomic             Coordinates (Angstroms)
 Number     Number       Type             X           Y           Z
 ---------------------------------------------------------------------
      1          6           0        2.913671    1.933858    0.226227
      2          6           0        1.983068    0.754707    0.080383
      3          6           0        2.501354   -0.546164   -0.050571
      4          6           0        1.644183   -1.639504   -0.179172
      5          6           0        0.267459   -1.448503   -0.183654
      6          6           0       -0.286371   -0.164790   -0.044273
      7          6           0        0.598711    0.916846    0.089047
      8          6           0       -1.729897    0.055997   -0.038220
      9          6           0       -2.488350    1.161809   -0.395301
     10          6           0       -3.858988    0.837099   -0.201862
     11          6           0       -3.912985   -0.457161    0.271698
     12          7           0       -2.622513   -0.924334    0.353402
     13          8           0        3.847529   -0.801327   -0.057854
     14          1           0        3.555778    1.846053    1.114405
     15          1           0        3.571544    2.050768   -0.647059
     16          1           0        2.348856    2.864067    0.328712
     17          1           0        2.075332   -2.629054   -0.291201
     18          1           0       -0.382496   -2.306990   -0.330869
     19          1           0        0.190484    1.915028    0.221382
     20          1           0       -2.093507    2.085799   -0.794696
     21          1           0       -4.709435    1.474983   -0.399724
     22          1           0       -4.750265   -1.078801    0.552909
     23          1           0       -2.349626   -1.801321    0.769041
     24          1           0        4.329560    0.035256    0.020310
 ---------------------------------------------------------------------

 SCF Done:  E(UB3LYP) =  -555.954918105     A.U. after   33 cycles
 SCF Done:  E(UB3LYP) =  -555.954918105     a.u. after    1 cycles

 The electronic state is 2-A.
 Alpha  occ. eigenvalues --  -19.05599 -14.25861 -10.13587 -10.10360 -10.09684
 Alpha  occ. eigenvalues --  -10.08754 -10.08708 -10.08009 -10.07778 -10.07578
 Alpha  occ. eigenvalues --  -10.07549 -10.06368 -10.06058  -0.96610  -0.88203
 Alpha  occ. eigenvalues --   -0.76380  -0.68695  -0.68098  -0.66862  -0.61107
 Alpha  occ. eigenvalues --   -0.59642  -0.51998  -0.51649  -0.49442  -0.47247
 Alpha  occ. eigenvalues --   -0.44787  -0.43754  -0.39059  -0.35774  -0.34216
 Alpha  occ. eigenvalues --   -0.33961  -0.33806  -0.32329  -0.31787  -0.31340
 Alpha  occ. eigenvalues --   -0.29919  -0.29624  -0.29431  -0.28302  -0.26738
 Alpha  occ. eigenvalues --   -0.24564  -0.24378  -0.15967  -0.15504  -0.15243
 Alpha  occ. eigenvalues --   -0.09741   0.04096
 Alpha virt. eigenvalues --    0.05370   0.07415   0.07473   0.07819   0.08020
 Alpha virt. eigenvalues --    0.08602   0.09850   0.10140   0.10484   0.11369
 Alpha virt. eigenvalues --    0.11980   0.12539   0.13245   0.14299   0.14818

  Beta  occ. eigenvalues --  -19.05564 -14.25829 -10.13585 -10.10361 -10.09666
  Beta  occ. eigenvalues --  -10.08751 -10.08708 -10.07996 -10.07770 -10.07572
  Beta  occ. eigenvalues --  -10.07480 -10.06367 -10.06051  -0.96543  -0.88166
  Beta  occ. eigenvalues --   -0.76362  -0.68661  -0.68060  -0.66837  -0.61072
  Beta  occ. eigenvalues --   -0.59565  -0.51957  -0.51608  -0.49376  -0.47222
  Beta  occ. eigenvalues --   -0.44726  -0.43707  -0.39034  -0.35733  -0.34181
  Beta  occ. eigenvalues --   -0.33912  -0.33770  -0.32281  -0.31761  -0.31307
  Beta  occ. eigenvalues --   -0.29869  -0.29581  -0.29407  -0.28277  -0.26705
  Beta  occ. eigenvalues --   -0.24543  -0.24351  -0.15950  -0.15490  -0.15219
  Beta  occ. eigenvalues --   -0.09727
  Beta virt. eigenvalues --    0.06529   0.06977   0.07456   0.07813   0.07989
  Beta virt. eigenvalues --    0.08601   0.08994   0.10605   0.10770   0.10903
  Beta virt. eigenvalues --    0.11748   0.12358   0.12806   0.13312   0.14470

 Mulliken charges and spin densities:
               1          2
     1  C    2.908418  -3.413766
     2  C   -2.245089   3.156646
     3  C   -0.760433  -0.034712
     4  C    0.700304  -1.119443
     5  C   -0.062565  -0.202200
     6  C    1.623554  -0.635047
     7  C   -0.572516  -0.216355
     8  C    0.476911  -1.271421
     9  C   -0.432797   0.927300
    10  C    0.663221  -1.287022
    11  C   -0.082105   0.133059
    12  N   -0.045886   0.100804
    13  O   -0.267820   0.030033
    14  H   -0.374920   0.538678
    15  H   -0.426486   0.595162
    16  H   -0.542229   0.722499
    17  H    0.015530   0.158451
    18  H   -0.289789   0.421842
    19  H    0.191763  -0.117053
    20  H   -0.109338   0.271022
    21  H    0.059807   0.073211
    22  H   -0.916936   1.089218
    23  H   -0.260659   0.536635
    24  H   -0.249940   0.542461
 Sum of Mulliken charges =  -1.00000   1.00000

 Dipole moment (field-independent basis, Debye):
    X=             -2.1470    Y=             -0.0925    Z=             -1.0937  Tot=              2.4113
 Quadrupole moment (field-independent basis, Debye-Ang):
   XX=           -170.1228   YY=           -117.9457   ZZ=           -103.7940
   XY=            -20.9762   XZ=              3.6367   YZ=              2.0988

 Summary of Natural Population Analysis:

                                       Natural Population
                Natural  -----------------------------------------------
    Atom  No    Charge         Core      Valence    Rydberg      Total
 -----------------------------------------------------------------------
      C    1   -0.30401      0.99964     2.29708    0.00729     3.30401
      C    2   -0.04564      0.99948     2.03584    0.01032     3.04564
      C    3    0.15729      0.99933     1.82957    0.01381     2.84271
      C    4   -0.11914      0.99952     2.11026    0.00937     3.11914
      C    5   -0.09247      0.99954     2.08426    0.00867     3.09247
      C    6   -0.04861      0.99949     2.04015    0.00897     3.04861
      C    7   -0.08024      0.99950     2.07299    0.00775     3.08024
      C    8    0.06261      0.99952     1.92344    0.01444     2.93739
      C    9   -0.13883      0.99952     2.13170    0.00761     3.13883
      C   10   -0.14793      0.99957     2.13957    0.00879     3.14793
      C   11   -0.02084      0.99958     2.00726    0.01401     3.02084
      N   12   -0.26246      0.99966     2.75217    0.01062     3.76246
      O   13   -0.34217      0.99988     3.33555    0.00675     4.34217
      H   14    0.10569      0.00000     0.39223    0.00208     0.39431
      H   15    0.10683      0.00000     0.39037    0.00280     0.39317
      H   16    0.10986      0.00000     0.38869    0.00145     0.39014
      H   17    0.10505      0.00000     0.39401    0.00093     0.39495
      H   18    0.09951      0.00000     0.39891    0.00158     0.40049
      H   19    0.10113      0.00000     0.39738    0.00149     0.39887
      H   20    0.10423      0.00000     0.39491    0.00086     0.39577
      H   21    0.10204      0.00000     0.39731    0.00064     0.39796
      H   22    0.10151      0.00000     0.39657    0.00192     0.39849
      H   23    0.20524      0.00000     0.28813    0.00663     0.29476
      H   24    0.24134      0.00000     0.25346    0.00520     0.25866
 =======================================================================
   * Total *    0.00000     12.99423    32.85180    0.15396    46.00000

 Normal termination of Gaussian 16 at Sun Dec 13 20:24:58 2020.
