 Gaussian 16, Revision A.03,

 -----------------------------------------------------------
 # opt freq B3LYP/6-31G(d) empiricaldispersion=gd3bj scf=xqc
 -----------------------------------------------------------

 -------------------------------
 CID_136444526_JID_5872_neutraal
 -------------------------------
 Symbolic Z-matrix:
 Charge =  0 Multiplicity = 1

 SCF Done:  E(RB3LYP) =  -1350.73083587     A.U. after   16 cycles
 SCF Done:  E(RB3LYP) =  -1350.74127318     A.U. after   12 cycles
 SCF Done:  E(RB3LYP) =  -1350.74252755     A.U. after   12 cycles
 SCF Done:  E(RB3LYP) =  -1350.74372791     A.U. after   13 cycles
 SCF Done:  E(RB3LYP) =  -1350.74595525     A.U. after   13 cycles
 SCF Done:  E(RB3LYP) =  -1350.74829371     A.U. after   13 cycles
 SCF Done:  E(RB3LYP) =  -1350.75378828     A.U. after   13 cycles
 SCF Done:  E(RB3LYP) =  -1350.75515059     A.U. after   13 cycles
 SCF Done:  E(RB3LYP) =  -1350.75523294     A.U. after   12 cycles
 SCF Done:  E(RB3LYP) =  -1350.75546720     A.U. after   12 cycles
 SCF Done:  E(RB3LYP) =  -1350.75555042     A.U. after    8 cycles
 SCF Done:  E(RB3LYP) =  -1350.75555080     A.U. after    8 cycles
 SCF Done:  E(RB3LYP) =  -1350.75555094     A.U. after    7 cycles
 SCF Done:  E(RB3LYP) =  -1350.75555100     A.U. after    7 cycles
 SCF Done:  E(RB3LYP) =  -1350.75555105     A.U. after    7 cycles
 Optimization completed.
    -- Stationary point found.
 Normal termination of Gaussian 16 at Thu Dec 10 17:27:27 2020.

 --------------------------------------------------------------------
 #N Geom=AllCheck Guess=TCheck SCRF=Check GenChk RB3LYP/6-31G(d) Freq
 --------------------------------------------------------------------

 Structure from the checkpoint file:  "JID_5872.chk"
 -------------------------------
 CID_136444526_JID_5872_neutraal
 -------------------------------
 Charge =  0 Multiplicity = 1

 SCF Done:  E(RB3LYP) =  -1350.75555105     A.U. after    1 cycles

  Exact polarizability: 227.273  -5.753 165.374  -1.567  -2.851  97.117
 Approx polarizability: 323.501  -3.405 265.258  -1.101 -10.246 150.789

                      1                      2                      3
                      A                      A                      A
 Frequencies --     37.5658                48.2967                62.9019
 Red. masses --      3.8958                 2.7867                 2.4270
 Frc consts  --      0.0032                 0.0038                 0.0057
 IR Inten    --      0.2699                 0.1928                 0.0017

                      4                      5                      6
                      A                      A                      A
 Frequencies --     91.5105               100.0309               122.1840
 Red. masses --      1.9283                 1.5503                 3.5984
 Frc consts  --      0.0095                 0.0091                 0.0317
 IR Inten    --      0.4668                 0.0434                 0.4682

                      7                      8                      9
                      A                      A                      A
 Frequencies --    134.8166               168.6167               196.3973
 Red. masses --      4.5842                 5.7787                 1.0718
 Frc consts  --      0.0491                 0.0968                 0.0244
 IR Inten    --      0.0486                 0.7108                 1.6682

                     10                     11                     12
                      A                      A                      A
 Frequencies --    224.7977               240.3233               244.3186
 Red. masses --      3.4291                 2.6037                 2.0922
 Frc consts  --      0.1021                 0.0886                 0.0736
 IR Inten    --      0.4468                 2.0635                 0.7561

                     13                     14                     15
                      A                      A                      A
 Frequencies --    272.4218               289.7990               314.8848
 Red. masses --      2.3529                 3.5012                 3.8745
 Frc consts  --      0.1029                 0.1732                 0.2263
 IR Inten    --      0.6401                 0.8861                 2.0967

                     16                     17                     18
                      A                      A                      A
 Frequencies --    358.8758               386.1997               391.8976
 Red. masses --      6.1987                 2.9949                 1.7300
 Frc consts  --      0.4704                 0.2632                 0.1565
 IR Inten    --      0.5528                15.0643                26.2898

                     19                     20                     21
                      A                      A                      A
 Frequencies --    417.3706               443.7384               463.0967
 Red. masses --      2.5495                 4.2377                 4.3099
 Frc consts  --      0.2617                 0.4916                 0.5446
 IR Inten    --      1.9600                13.1167                29.5660

                     22                     23                     24
                      A                      A                      A
 Frequencies --    488.8219               498.6067               541.8751
 Red. masses --      4.0389                 2.8807                 4.2311
 Frc consts  --      0.5686                 0.4220                 0.7320
 IR Inten    --     23.9234                 9.2398                39.1324

                     25                     26                     27
                      A                      A                      A
 Frequencies --    601.2100               647.3946               656.3008
 Red. masses --      4.5857                 4.2386                 3.4561
 Frc consts  --      0.9766                 1.0467                 0.8771
 IR Inten    --     19.1329                12.6983                16.2038

                     28                     29                     30
                      A                      A                      A
 Frequencies --    677.6027               715.0911               754.4894
 Red. masses --      5.6137                11.2177                 5.4421
 Frc consts  --      1.5186                 3.3797                 1.8253
 IR Inten    --      3.2763                36.3869                12.8129

                     31                     32                     33
                      A                      A                      A
 Frequencies --    770.2520               810.9570               818.6144
 Red. masses --      1.7177                 1.6380                 1.4429
 Frc consts  --      0.6004                 0.6347                 0.5697
 IR Inten    --     12.3719                17.7803                12.9079

                     34                     35                     36
                      A                      A                      A
 Frequencies --    852.6238               921.9431               954.2468
 Red. masses --      2.0816                 3.0822                 2.1563
 Frc consts  --      0.8916                 1.5435                 1.1568
 IR Inten    --     12.8993                15.9663                19.8875

                     37                     38                     39
                      A                      A                      A
 Frequencies --    988.9740              1012.3137              1016.4776
 Red. masses --      1.2000                 2.0084                 1.6496
 Frc consts  --      0.6915                 1.2126                 1.0042
 IR Inten    --      1.1358                 8.8299                 0.8846

                     40                     41                     42
                      A                      A                      A
 Frequencies --   1053.0035              1061.0619              1070.3940
 Red. masses --      4.6795                 4.1395                 1.3898
 Frc consts  --      3.0571                 2.7458                 0.9382
 IR Inten    --     14.1840                13.1854                 1.4441

                     43                     44                     45
                      A                      A                      A
 Frequencies --   1101.9523              1156.2297              1157.6025
 Red. masses --      4.1339                 2.2386                 2.3253
 Frc consts  --      2.9576                 1.7633                 1.8359
 IR Inten    --     11.0453                 4.8816                 1.2425

                     46                     47                     48
                      A                      A                      A
 Frequencies --   1177.2229              1193.9784              1239.6605
 Red. masses --      2.2842                 1.9806                 1.8124
 Frc consts  --      1.8651                 1.6636                 1.6410
 IR Inten    --     40.1490                 6.7812                41.3015

                     49                     50                     51
                      A                      A                      A
 Frequencies --   1306.2876              1322.7018              1353.7982
 Red. masses --      1.4220                 2.2874                 1.4550
 Frc consts  --      1.4297                 2.3578                 1.5712
 IR Inten    --     22.1594                85.0463                11.1564

                     52                     53                     54
                      A                      A                      A
 Frequencies --   1366.6083              1379.3602              1404.3884
 Red. masses --      1.6034                 1.7871                 1.3951
 Frc consts  --      1.7643                 2.0033                 1.6212
 IR Inten    --      2.6433                27.1344                 5.4843

                     55                     56                     57
                      A                      A                      A
 Frequencies --   1414.3188              1436.8156              1443.5178
 Red. masses --      1.3012                 1.2605                 1.2172
 Frc consts  --      1.5335                 1.5332                 1.4943
 IR Inten    --     17.5056                 9.8745                 3.9302

                     58                     59                     60
                      A                      A                      A
 Frequencies --   1444.1060              1506.6416              1508.2581
 Red. masses --      1.2367                 1.0843                 1.6641
 Frc consts  --      1.5195                 1.4502                 2.2305
 IR Inten    --      1.9156                 8.8391                12.9661

                     61                     62                     63
                      A                      A                      A
 Frequencies --   1512.1840              1519.9044              1523.9839
 Red. masses --      1.0934                 1.2951                 1.1292
 Frc consts  --      1.4731                 1.7628                 1.5453
 IR Inten    --      0.3327                 7.2207                 4.1201

                     64                     65                     66
                      A                      A                      A
 Frequencies --   1531.0743              1538.0309              1540.1061
 Red. masses --      1.1098                 1.6492                 1.1065
 Frc consts  --      1.5328                 2.2986                 1.5464
 IR Inten    --     20.4663                35.5562                 3.1851

                     67                     68                     69
                      A                      A                      A
 Frequencies --   1545.0361              1634.5697              1748.9601
 Red. masses --      1.5117                 6.1311                 6.5094
 Frc consts  --      2.1262                 9.6515                11.7314
 IR Inten    --     14.0467                78.4972               724.1546

                     70                     71                     72
                      A                      A                      A
 Frequencies --   3020.7060              3037.7625              3046.5077
 Red. masses --      1.0811                 1.0665                 1.0363
 Frc consts  --      5.8121                 5.7983                 5.6667
 IR Inten    --     13.5478                56.4773                43.8867

                     73                     74                     75
                      A                      A                      A
 Frequencies --   3047.8019              3053.1364              3079.5932
 Red. masses --      1.0365                 1.0387                 1.0972
 Frc consts  --      5.6730                 5.7045                 6.1308
 IR Inten    --     42.5849                21.8610                11.3045

                     76                     77                     78
                      A                      A                      A
 Frequencies --   3099.5713              3113.1375              3114.2128
 Red. masses --      1.1018                 1.1016                 1.1001
 Frc consts  --      6.2369                 6.2903                 6.2862
 IR Inten    --     14.2669                19.3631                92.1255

                     79                     80                     81
                      A                      A                      A
 Frequencies --   3119.9916              3130.0605              3135.5725
 Red. masses --      1.1008                 1.1011                 1.1025
 Frc consts  --      6.3134                 6.3559                 6.3863
 IR Inten    --     47.2436                11.4604                22.0905

                     82                     83                     84
                      A                      A                      A
 Frequencies --   3208.7895              3566.7674              3681.8380
 Red. masses --      1.0930                 1.0752                 1.0762
 Frc consts  --      6.6306                 8.0589                 8.5958
 IR Inten    --      7.2872                40.0722                36.1722

 - Thermochemistry -
 -------------------
 Temperature   298.150 Kelvin.  Pressure   1.00000 Atm.
 Atom     1 has atomic number  6 and mass  12.00000

 Molecular mass:   241.07074 amu.
 Principal axes and moments of inertia in atomic units:
                           1         2         3
     Eigenvalues --  2177.993316553.326338166.80698
           X            1.00000  -0.00063  -0.00252
           Y            0.00064   1.00000   0.00275
           Z            0.00252  -0.00275   0.99999
 This molecule is an asymmetric top.
 Rotational symmetry number  1.
 Warning -- assumption of classical behavior for rotation
           may cause significant error
 Rotational temperatures (Kelvin)      0.03977     0.01322     0.01061
 Rotational constants (GHZ):           0.82863     0.27539     0.22098
 Zero-point vibrational energy     642305.2 (Joules/Mol)
                                  153.51463 (Kcal/Mol)
 Warning -- explicit consideration of  25 degrees of freedom as
           vibrations may cause significant error
 Vibrational temperatures:     54.05    69.49    90.50   131.66   143.92
          (Kelvin)            175.80   193.97   242.60   282.57   323.43
                              345.77   351.52   391.95   416.96   453.05
                              516.34   555.66   563.85   600.50   638.44
                              666.29   703.31   717.38   779.64   865.01
                              931.46   944.27   974.92  1028.86  1085.54
                             1108.22  1166.79  1177.80  1226.74  1326.47
                             1372.95  1422.91  1456.49  1462.48  1515.04
                             1526.63  1540.06  1585.46  1663.56  1665.53
                             1693.76  1717.87  1783.59  1879.46  1903.07
                             1947.81  1966.24  1984.59  2020.60  2034.89
                             2067.26  2076.90  2077.75  2167.72  2170.05
                             2175.70  2186.80  2192.67  2202.87  2212.88
                             2215.87  2222.96  2351.78  2516.36  4346.12
                             4370.66  4383.25  4385.11  4392.78  4430.85
                             4459.59  4479.11  4480.66  4488.97  4503.46
                             4511.39  4616.73  5131.78  5297.34

 Zero-point correction=                           0.244641 (Hartree/Particle)
 Thermal correction to Energy=                    0.260852
 Thermal correction to Enthalpy=                  0.261796
 Thermal correction to Gibbs Free Energy=         0.200360
 Sum of electronic and zero-point Energies=          -1350.510910
 Sum of electronic and thermal Energies=             -1350.494700
 Sum of electronic and thermal Enthalpies=           -1350.493755
 Sum of electronic and thermal Free Energies=        -1350.555191

                     E (Thermal)             CV                S
                      KCal/Mol        Cal/Mol-Kelvin    Cal/Mol-Kelvin
 Total                  163.687             60.090            129.302
 Electronic               0.000              0.000              0.000
 Translational            0.889              2.981             42.341
 Rotational               0.889              2.981             33.122
 Vibrational            161.909             54.129             53.840
 Vibration     1          0.594              1.982              5.383
 Vibration     2          0.595              1.978              4.886
 Vibration     3          0.597              1.972              4.364
 Vibration     4          0.602              1.955              3.628
 Vibration     5          0.604              1.949              3.454
 Vibration     6          0.610              1.931              3.066
 Vibration     7          0.613              1.919              2.876
 Vibration     8          0.625              1.881              2.451
 Vibration     9          0.636              1.845              2.167
 Vibration    10          0.649              1.803              1.920
 Vibration    11          0.657              1.779              1.800
 Vibration    12          0.660              1.772              1.771
 Vibration    13          0.675              1.724              1.581
 Vibration    14          0.686              1.693              1.475
 Vibration    15          0.702              1.645              1.337
 Vibration    16          0.734              1.557              1.127
 Vibration    17          0.755              1.500              1.015
 Vibration    18          0.759              1.487              0.993
 Vibration    19          0.780              1.433              0.901
 Vibration    20          0.803              1.375              0.815
 Vibration    21          0.821              1.332              0.757
 Vibration    22          0.845              1.275              0.687
 Vibration    23          0.854              1.253              0.662
 Vibration    24          0.897              1.157              0.561
 Vibration    25          0.959              1.029              0.448

                           ! Non-Optimized Parameters !
 Normal termination of Gaussian 16 at Thu Dec 10 17:36:34 2020.

 ----------------------------------------------------------------------
 # B3LYP/6-311++G(d,p) empiricaldispersion=gd3bj scf=xqc pop=npa geom=c
 heck
 ----------------------------------------------------------------------

 ---------------------------------------
 CID_136444526_JID_5872_Energie_neutraal
 ---------------------------------------
 Structure from the checkpoint file:  "JID_5872.chk"
 Charge =  0 Multiplicity = 1

 SCF Done:  E(RB3LYP) =  -1350.96263005     A.U. after   17 cycles
 Normal termination of Gaussian 16 at Thu Dec 10 17:40:58 2020.

 ----------------------------------------------------------------------
 # B3LYP/6-311++G(d,p) empiricaldispersion=gd3bj scf=xqc pop=npa geom=c
 heck
 ----------------------------------------------------------------------

 -------------------------------------
 CID_136444526_JID_5872_Energie_kation
 -------------------------------------
 Structure from the checkpoint file:  "JID_5872.chk"
 Charge =  1 Multiplicity = 2

 SCF Done:  E(UB3LYP) =  -1350.69688172     A.U. after   26 cycles
 Normal termination of Gaussian 16 at Thu Dec 10 17:51:46 2020.
 Gaussian 16:  ES64L-G16RevA.03 25-Dec-2016

 ----------------------------------------------------------------------
 # B3LYP/6-311++G(d,p) empiricaldispersion=gd3bj scf=xqc pop=npa geom=c
 heck
 ----------------------------------------------------------------------

 ------------------------------------
 CID_136444526_JID_5872_Energie_anion
 ------------------------------------
 Structure from the checkpoint file:  "JID_5872.chk"
 Charge = -1 Multiplicity = 2

                         Standard orientation:
 ---------------------------------------------------------------------
 Center     Atomic      Atomic             Coordinates (Angstroms)
 Number     Number       Type             X           Y           Z
 ---------------------------------------------------------------------
      1          6           0       -4.582107   -1.990951   -0.598003
      2          6           0       -3.348366   -1.099671   -0.761987
      3          6           0       -3.403383    0.191926    0.082562
      4          6           0       -3.435836   -0.062015    1.600591
      5          7           0       -2.391886    1.172311   -0.309289
      6          6           0       -1.134560    0.974171   -0.212591
      7          7           0       -0.456635   -0.102302    0.366260
      8          6           0        0.921706   -0.315335    0.237468
      9          6           0        1.794968    0.736884    0.119350
     10         16           0        3.433975    0.184597   -0.119232
     11          6           0        2.931045   -1.489048    0.031307
     12          6           0        1.574422   -1.586760    0.187514
     13          6           0        3.937273   -2.597597   -0.014549
     14         16           0        1.163653    2.369955    0.108139
     15          7           0       -0.266789    1.899592   -0.824690
     16          1           0       -4.664314   -2.391938    0.418181
     17          1           0       -4.545016   -2.841881   -1.286835
     18          1           0       -5.500808   -1.430676   -0.809995
     19          1           0       -2.449028   -1.684360   -0.524281
     20          1           0       -3.243864   -0.800254   -1.811478
     21          1           0       -4.361853    0.668072   -0.164610
     22          1           0       -2.589857   -0.663883    1.953716
     23          1           0       -3.406523    0.891824    2.135771
     24          1           0       -4.353182   -0.586566    1.886568
     25          1           0       -1.022886   -0.874149    0.676062
     26          1           0        1.055783   -2.536672    0.270235
     27          1           0        4.509150   -2.593321   -0.949888
     28          1           0        4.655431   -2.529329    0.811490
     29          1           0        3.426550   -3.562287    0.062655
     30          1           0       -0.795440    2.705755   -1.146038
 ---------------------------------------------------------------------

 SCF Done:  E(UB3LYP) =  -1350.95658565     A.U. after   33 cycles
 SCF Done:  E(UB3LYP) =  -1350.95658565     a.u. after    1 cycles

 The electronic state is 2-A.
 Alpha  occ. eigenvalues --  -88.75394 -88.74733 -14.23100 -14.20723 -14.15528
 Alpha  occ. eigenvalues --  -10.14862 -10.09255 -10.09137 -10.08588 -10.08313
 Alpha  occ. eigenvalues --  -10.08304 -10.06479 -10.06300 -10.06180 -10.05424
 Alpha  occ. eigenvalues --   -7.84003  -7.83030  -5.80320  -5.79962  -5.79554
 Alpha  occ. eigenvalues --   -5.79537  -5.79097  -5.78337  -0.87719  -0.79233
 Alpha  occ. eigenvalues --   -0.77199  -0.75181  -0.68436  -0.66117  -0.62309
 Alpha  occ. eigenvalues --   -0.61967  -0.60186  -0.54699  -0.54074  -0.50823
 Alpha  occ. eigenvalues --   -0.48236  -0.44043  -0.42547  -0.39655  -0.38033
 Alpha  occ. eigenvalues --   -0.35962  -0.35476  -0.33520  -0.33354  -0.32865
 Alpha  occ. eigenvalues --   -0.32426  -0.31218  -0.30177  -0.29095  -0.28790
 Alpha  occ. eigenvalues --   -0.27522  -0.27050  -0.25703  -0.25038  -0.24466
 Alpha  occ. eigenvalues --   -0.23276  -0.22650  -0.22606  -0.19160  -0.15675
 Alpha  occ. eigenvalues --   -0.13590  -0.13061  -0.09905  -0.07546   0.04610
 Alpha virt. eigenvalues --    0.06171   0.06898   0.08271   0.08373   0.08955
 Alpha virt. eigenvalues --    0.09390   0.10203   0.10731   0.11275   0.11381
 Alpha virt. eigenvalues --    0.11942   0.12160   0.12280   0.12353   0.13630

  Beta  occ. eigenvalues --  -88.75365 -88.74673 -14.23112 -14.20489 -14.15452
  Beta  occ. eigenvalues --  -10.14790 -10.09178 -10.09136 -10.08377 -10.08326
  Beta  occ. eigenvalues --  -10.08170 -10.06471 -10.06335 -10.06152 -10.05393
  Beta  occ. eigenvalues --   -7.83976  -7.82970  -5.80307  -5.79951  -5.79459
  Beta  occ. eigenvalues --   -5.79359  -5.79062  -5.78296  -0.87554  -0.79073
  Beta  occ. eigenvalues --   -0.76889  -0.75011  -0.68306  -0.65912  -0.62204
  Beta  occ. eigenvalues --   -0.61823  -0.60001  -0.54571  -0.53922  -0.50651
  Beta  occ. eigenvalues --   -0.48163  -0.43894  -0.42365  -0.39370  -0.37928
  Beta  occ. eigenvalues --   -0.35926  -0.35339  -0.33388  -0.33147  -0.32755
  Beta  occ. eigenvalues --   -0.32142  -0.30947  -0.30077  -0.28888  -0.28703
  Beta  occ. eigenvalues --   -0.27415  -0.26945  -0.25621  -0.24736  -0.24159
  Beta  occ. eigenvalues --   -0.23155  -0.22519  -0.22438  -0.18923  -0.15264
  Beta  occ. eigenvalues --   -0.13212  -0.12788  -0.09539  -0.07020
  Beta virt. eigenvalues --    0.06562   0.06943   0.08167   0.08536   0.08873
  Beta virt. eigenvalues --    0.09286   0.09835   0.10151   0.10878   0.11344
  Beta virt. eigenvalues --    0.11718   0.11980   0.12238   0.12443   0.12662

 Mulliken charges and spin densities:
               1          2
     1  C    0.707357  -1.378323
     2  C   -0.563629   0.723643
     3  C   -0.695409   0.240379
     4  C    0.559747  -0.983379
     5  N   -0.054341   0.013578
     6  C   -0.167128   0.084879
     7  N    0.145367  -0.068856
     8  C   -2.678603   0.125763
     9  C    1.713539  -0.019083
    10  S   -0.660835   0.086592
    11  C   -0.285653   0.032727
    12  C    1.247327  -0.092585
    13  C   -0.306775  -0.028879
    14  S   -0.148169   0.336935
    15  N   -0.219248  -0.017183
    16  H   -0.292346   0.441982
    17  H   -0.148854   0.286342
    18  H   -0.052799   0.174942
    19  H    0.088854  -0.017497
    20  H    0.089096   0.066071
    21  H    0.100187   0.098833
    22  H   -0.332250   0.467501
    23  H    0.075637   0.062546
    24  H   -0.106096   0.241979
    25  H    0.462690  -0.228783
    26  H   -0.022276   0.145923
    27  H    0.125035   0.023896
    28  H    0.109883   0.043623
    29  H    0.146150  -0.005000
    30  H    0.163543   0.141434
 Sum of Mulliken charges =  -1.00000   1.00000

 Dipole moment (field-independent basis, Debye):
    X=              3.9899    Y=             -1.3601    Z=             -0.9523  Tot=              4.3215
 Quadrupole moment (field-independent basis, Debye-Ang):
   XX=           -175.0084   YY=           -137.2054   ZZ=           -129.0975
   XY=            -15.2352   XZ=              4.2596   YZ=              1.7528

 Summary of Natural Population Analysis:

                                       Natural Population
                Natural  -----------------------------------------------
    Atom  No    Charge         Core      Valence    Rydberg      Total
 -----------------------------------------------------------------------
      C    1   -0.28696      0.99967     2.28220    0.00509     3.28696
      C    2   -0.19240      0.99962     2.18476    0.00803     3.19240
      C    3   -0.02146      0.99959     2.00820    0.01367     3.02146
      C    4   -0.29133      0.99964     2.28617    0.00551     3.29133
      N    5   -0.29084      0.99964     2.78107    0.01014     3.79084
      C    6    0.32191      0.99956     1.66131    0.01722     2.67809
      N    7   -0.31755      0.99962     2.81018    0.00775     3.81755
      C    8    0.05775      0.99934     1.93027    0.01265     2.94225
      C    9   -0.19654      0.99934     2.18433    0.01287     3.19654
      S   10    0.20631      4.99935     2.77298    0.02135     7.79369
      C   11   -0.06314      0.99952     2.05200    0.01161     3.06314
      C   12   -0.14802      0.99943     2.13833    0.01026     3.14802
      C   13   -0.29720      0.99962     2.29225    0.00532     3.29720
      S   14    0.23093      4.99943     2.74528    0.02436     7.76907
      N   15   -0.36878      0.99969     2.85688    0.01221     3.86878
      H   16    0.09844      0.00000     0.40013    0.00143     0.40156
      H   17    0.09782      0.00000     0.40134    0.00085     0.40218
      H   18    0.09441      0.00000     0.40448    0.00112     0.40559
      H   19    0.08703      0.00000     0.41143    0.00154     0.41297
      H   20    0.09965      0.00000     0.39915    0.00120     0.40035
      H   21    0.08667      0.00000     0.41076    0.00256     0.41333
      H   22    0.09050      0.00000     0.40817    0.00132     0.40950
      H   23    0.10429      0.00000     0.39473    0.00098     0.39571
      H   24    0.09932      0.00000     0.39953    0.00115     0.40068
      H   25    0.19638      0.00000     0.30120    0.00242     0.30362
      H   26    0.10154      0.00000     0.39737    0.00109     0.39846
      H   27    0.10187      0.00000     0.39710    0.00103     0.39813
      H   28    0.10250      0.00000     0.39644    0.00106     0.39750
      H   29    0.10257      0.00000     0.39659    0.00083     0.39743
      H   30    0.19434      0.00000     0.30332    0.00235     0.30566
 =======================================================================
   * Total *   -0.00000     22.99306    40.80795    0.19899    64.00000

 Normal termination of Gaussian 16 at Thu Dec 10 18:02:23 2020.
