 Gaussian 16, Revision A.03,

 -----------------------------------------------------------
 # opt freq B3LYP/6-31G(d) empiricaldispersion=gd3bj scf=xqc
 -----------------------------------------------------------

 -----------------------------
 CID_3107824_JID_8707_neutraal
 -----------------------------
 Symbolic Z-matrix:
 Charge =  0 Multiplicity = 1

 SCF Done:  E(RB3LYP) =  -810.610598759     A.U. after   15 cycles
 SCF Done:  E(RB3LYP) =  -810.615589773     A.U. after   12 cycles
 SCF Done:  E(RB3LYP) =  -810.615939189     A.U. after   12 cycles
 SCF Done:  E(RB3LYP) =  -810.616033154     A.U. after   11 cycles
 SCF Done:  E(RB3LYP) =  -810.616263555     A.U. after   10 cycles
 SCF Done:  E(RB3LYP) =  -810.616318517     A.U. after   10 cycles
 SCF Done:  E(RB3LYP) =  -810.616332949     A.U. after    9 cycles
 SCF Done:  E(RB3LYP) =  -810.616336449     A.U. after    9 cycles
 SCF Done:  E(RB3LYP) =  -810.616337784     A.U. after    8 cycles
 SCF Done:  E(RB3LYP) =  -810.616338890     A.U. after    7 cycles
 SCF Done:  E(RB3LYP) =  -810.616339665     A.U. after    6 cycles
 SCF Done:  E(RB3LYP) =  -810.616339959     A.U. after    7 cycles
 SCF Done:  E(RB3LYP) =  -810.616340272     A.U. after    8 cycles
 SCF Done:  E(RB3LYP) =  -810.616340635     A.U. after    7 cycles
 SCF Done:  E(RB3LYP) =  -810.616340888     A.U. after    7 cycles
 Optimization completed.
    -- Stationary point found.
 Normal termination of Gaussian 16 at Fri Dec 11 22:16:21 2020.

 --------------------------------------------------------------------
 #N Geom=AllCheck Guess=TCheck SCRF=Check GenChk RB3LYP/6-31G(d) Freq
 --------------------------------------------------------------------

 Structure from the checkpoint file:  "JID_8707.chk"
 -----------------------------
 CID_3107824_JID_8707_neutraal
 -----------------------------
 Charge =  0 Multiplicity = 1

 SCF Done:  E(RB3LYP) =  -810.616340888     A.U. after    1 cycles

  Exact polarizability: 180.335  -2.759 138.838   0.341  -2.722 135.688
 Approx polarizability: 216.365  -3.668 215.200   3.222 -18.017 223.336

                      1                      2                      3
                      A                      A                      A
 Frequencies --     50.3098                55.0323                79.0124
 Red. masses --      2.3088                 1.9034                 2.3191
 Frc consts  --      0.0034                 0.0034                 0.0085
 IR Inten    --      0.6344                 1.6803                 0.3756

                      4                      5                      6
                      A                      A                      A
 Frequencies --     83.7585                89.4069                98.8254
 Red. masses --      2.0957                 2.7452                 4.8944
 Frc consts  --      0.0087                 0.0129                 0.0282
 IR Inten    --      0.3448                 0.1122                 0.8010

                      7                      8                      9
                      A                      A                      A
 Frequencies --    122.7222               147.5155               216.9245
 Red. masses --      5.3061                 3.1389                 2.1400
 Frc consts  --      0.0471                 0.0402                 0.0593
 IR Inten    --      3.3230                 0.1223                 0.4293

                     10                     11                     12
                      A                      A                      A
 Frequencies --    225.4387               239.8666               257.0979
 Red. masses --      2.6056                 1.9060                 2.2752
 Frc consts  --      0.0780                 0.0646                 0.0886
 IR Inten    --      2.6317                 2.6356                 3.0259

                     13                     14                     15
                      A                      A                      A
 Frequencies --    268.3003               280.4852               293.9304
 Red. masses --      2.2550                 2.5140                 3.4346
 Frc consts  --      0.0956                 0.1165                 0.1748
 IR Inten    --      2.6952                 1.9289                 6.5253

                     16                     17                     18
                      A                      A                      A
 Frequencies --    324.3741               361.0717               392.1592
 Red. masses --      2.9276                 3.3177                 2.6350
 Frc consts  --      0.1815                 0.2548                 0.2388
 IR Inten    --      0.2638                 3.9341                 0.2109

                     19                     20                     21
                      A                      A                      A
 Frequencies --    422.8642               451.3397               465.4140
 Red. masses --      2.3702                 2.1914                 4.1599
 Frc consts  --      0.2497                 0.2630                 0.5309
 IR Inten    --      1.3941                 0.4647                 1.4476

                     22                     23                     24
                      A                      A                      A
 Frequencies --    490.7872               505.4815               547.1333
 Red. masses --      4.6822                 4.1748                 3.9759
 Frc consts  --      0.6645                 0.6285                 0.7012
 IR Inten    --      1.2787                 2.4284                 3.7668

                     25                     26                     27
                      A                      A                      A
 Frequencies --    577.5330               595.5857               610.0831
 Red. masses --      3.8515                 2.8804                 2.9407
 Frc consts  --      0.7569                 0.6020                 0.6449
 IR Inten    --      3.6553                 3.6504                 4.1792

                     28                     29                     30
                      A                      A                      A
 Frequencies --    656.3897               695.3765               729.8220
 Red. masses --      3.4741                 4.0071                 5.1707
 Frc consts  --      0.8819                 1.1416                 1.6227
 IR Inten    --      0.1949                 8.3092                 9.6608

                     31                     32                     33
                      A                      A                      A
 Frequencies --    781.6148               790.0380               819.7929
 Red. masses --      1.7373                 1.5149                 2.0537
 Frc consts  --      0.6253                 0.5571                 0.8132
 IR Inten    --      5.2526                 0.9509                 1.3075

                     34                     35                     36
                      A                      A                      A
 Frequencies --    831.1192               852.5126               860.1668
 Red. masses --      3.0625                 1.8073                 2.1998
 Frc consts  --      1.2464                 0.7739                 0.9589
 IR Inten    --      0.6379                 0.1699                 0.2446

                     37                     38                     39
                      A                      A                      A
 Frequencies --    877.6029               898.4215               916.8320
 Red. masses --      1.9450                 2.9282                 2.3863
 Frc consts  --      0.8826                 1.3926                 1.1818
 IR Inten    --      0.8120                 4.7120                 1.2874

                     40                     41                     42
                      A                      A                      A
 Frequencies --    927.7320               974.7744               983.8052
 Red. masses --      2.1521                 2.7032                 2.2239
 Frc consts  --      1.0914                 1.5133                 1.2682
 IR Inten    --      0.8998                 3.6190                 4.2200

                     43                     44                     45
                      A                      A                      A
 Frequencies --    990.2628              1001.2108              1006.6230
 Red. masses --      2.0286                 1.9077                 2.5039
 Frc consts  --      1.1721                 1.1267                 1.4948
 IR Inten    --      3.9455                 5.6132                 1.5693

                     46                     47                     48
                      A                      A                      A
 Frequencies --   1038.1465              1045.4163              1054.3837
 Red. masses --      2.4618                 1.8298                 2.2102
 Frc consts  --      1.5632                 1.1782                 1.4477
 IR Inten    --      1.4131                28.5549                11.6691

                     49                     50                     51
                      A                      A                      A
 Frequencies --   1060.9178              1075.0415              1083.8401
 Red. masses --      2.2982                 1.7583                 1.9522
 Frc consts  --      1.5240                 1.1973                 1.3511
 IR Inten    --      5.8942                 5.4323                 3.9022

                     52                     53                     54
                      A                      A                      A
 Frequencies --   1097.5995              1109.4258              1124.3339
 Red. masses --      2.6415                 1.6882                 2.2504
 Frc consts  --      1.8749                 1.2242                 1.6761
 IR Inten    --    108.8819                12.3540                46.0231

                     55                     56                     57
                      A                      A                      A
 Frequencies --   1141.0671              1154.6589              1164.3877
 Red. masses --      1.7722                 2.2811                 1.4510
 Frc consts  --      1.3595                 1.7919                 1.1591
 IR Inten    --     27.2989                21.5492                 0.7485

                     58                     59                     60
                      A                      A                      A
 Frequencies --   1184.9046              1201.5275              1246.5062
 Red. masses --      1.5994                 2.0696                 1.5026
 Frc consts  --      1.3230                 1.7604                 1.3756
 IR Inten    --      9.0323                18.0079                 6.8228

                     61                     62                     63
                      A                      A                      A
 Frequencies --   1255.8931              1265.7475              1273.7573
 Red. masses --      1.4716                 1.3199                 2.0797
 Frc consts  --      1.3676                 1.2459                 1.9880
 IR Inten    --     11.5089                12.7185               153.0094

                     64                     65                     66
                      A                      A                      A
 Frequencies --   1285.6239              1294.8402              1304.1185
 Red. masses --      2.4640                 1.7554                 1.4573
 Frc consts  --      2.3995                 1.7340                 1.4603
 IR Inten    --    222.8315                26.2335                45.4079

                     67                     68                     69
                      A                      A                      A
 Frequencies --   1307.4977              1322.8785              1329.4580
 Red. masses --      1.2442                 1.8071                 1.3048
 Frc consts  --      1.2532                 1.8632                 1.3587
 IR Inten    --      0.7144                10.5546                 0.6095

                     70                     71                     72
                      A                      A                      A
 Frequencies --   1332.9584              1351.2955              1364.5275
 Red. masses --      1.3477                 1.4804                 1.4864
 Frc consts  --      1.4108                 1.5927                 1.6307
 IR Inten    --      2.3603                 5.8197                 3.1719

                     73                     74                     75
                      A                      A                      A
 Frequencies --   1371.2182              1379.4412              1384.3274
 Red. masses --      1.5176                 1.4155                 1.5393
 Frc consts  --      1.6812                 1.5870                 1.7380
 IR Inten    --      3.8695                 0.3136                13.5087

                     76                     77                     78
                      A                      A                      A
 Frequencies --   1396.4163              1414.9985              1422.5326
 Red. masses --      1.5193                 1.6120                 1.3601
 Frc consts  --      1.7455                 1.9016                 1.6216
 IR Inten    --     12.1597                 2.2007                56.5376

                     79                     80                     81
                      A                      A                      A
 Frequencies --   1443.9439              1500.1615              1505.0288
 Red. masses --      1.2384                 1.0513                 1.0467
 Frc consts  --      1.5213                 1.3940                 1.3969
 IR Inten    --      3.4176                12.1613                 8.3763

                     82                     83                     84
                      A                      A                      A
 Frequencies --   1514.8038              1518.9479              1523.3085
 Red. masses --      1.0732                 1.0808                 1.0767
 Frc consts  --      1.4509                 1.4692                 1.4720
 IR Inten    --      1.5836                 1.0811                 2.1687

                     85                     86                     87
                      A                      A                      A
 Frequencies --   1525.8890              1529.3997              1530.4491
 Red. masses --      1.0677                 1.0602                 1.0654
 Frc consts  --      1.4647                 1.4611                 1.4703
 IR Inten    --      0.1428                 0.9611                 9.0277

                     88                     89                     90
                      A                      A                      A
 Frequencies --   1538.8675              1540.5604              1557.4925
 Red. masses --      1.0780                 1.0920                 1.0892
 Frc consts  --      1.5040                 1.5269                 1.5567
 IR Inten    --      1.5253                11.4858                 1.4590

                     91                     92                     93
                      A                      A                      A
 Frequencies --   1825.7238              1831.8957              3043.0646
 Red. masses --     11.1145                12.0599                 1.0637
 Frc consts  --     21.8278                23.8450                 5.8036
 IR Inten    --    172.7186               194.0877                 9.0475

                     94                     95                     96
                      A                      A                      A
 Frequencies --   3045.0702              3048.3008              3057.0068
 Red. masses --      1.0461                 1.0552                 1.0604
 Frc consts  --      5.7150                 5.7771                 5.8385
 IR Inten    --     14.7953                24.2393                31.1470

                     97                     98                     99
                      A                      A                      A
 Frequencies --   3062.4943              3067.9704              3071.9618
 Red. masses --      1.0637                 1.0653                 1.0401
 Frc consts  --      5.8777                 5.9077                 5.7831
 IR Inten    --     38.3903                23.0448                 1.0030

                    100                    101                    102
                      A                      A                      A
 Frequencies --   3072.3022              3072.5720              3079.4811
 Red. masses --      1.0849                 1.0731                 1.0650
 Frc consts  --      6.0337                 5.9692                 5.9507
 IR Inten    --      6.6949                17.6208                36.4955

                    103                    104                    105
                      A                      A                      A
 Frequencies --   3094.4001              3096.8252              3107.0079
 Red. masses --      1.1008                 1.0968                 1.0995
 Frc consts  --      6.2101                 6.1973                 6.2535
 IR Inten    --     35.0029                 6.9364                37.6088

                    106                    107                    108
                      A                      A                      A
 Frequencies --   3109.8166              3111.6065              3113.4244
 Red. masses --      1.0981                 1.1041                 1.1020
 Frc consts  --      6.2570                 6.2983                 6.2938
 IR Inten    --     33.3825                28.6154                72.6451

                    109                    110                    111
                      A                      A                      A
 Frequencies --   3119.1654              3121.5623              3134.4714
 Red. masses --      1.0947                 1.1041                 1.1005
 Frc consts  --      6.2751                 6.3387                 6.3707
 IR Inten    --     27.5734                25.0561                 5.9187

                    112                    113                    114
                      A                      A                      A
 Frequencies --   3145.1960              3162.9902              3184.4063
 Red. masses --      1.1003                 1.0872                 1.1034
 Frc consts  --      6.4129                 6.4086                 6.5923
 IR Inten    --     12.5405                 2.6970                 8.0759

 - Thermochemistry -
 -------------------
 Temperature   298.150 Kelvin.  Pressure   1.00000 Atm.
 Atom     1 has atomic number  6 and mass  12.00000

 Molecular mass:   250.15689 amu.
 Principal axes and moments of inertia in atomic units:
                           1         2         3
     Eigenvalues --  1964.423496586.017896663.63323
           X            0.99998  -0.00115  -0.00579
           Y            0.00345   0.90989   0.41483
           Z            0.00479  -0.41484   0.90988
 This molecule is an asymmetric top.
 Rotational symmetry number  1.
 Warning -- assumption of classical behavior for rotation
           may cause significant error
 Rotational temperatures (Kelvin)      0.04409     0.01315     0.01300
 Rotational constants (GHZ):           0.91871     0.27403     0.27083
 Zero-point vibrational energy     925274.4 (Joules/Mol)
                                  221.14590 (Kcal/Mol)
 Warning -- explicit consideration of  27 degrees of freedom as
           vibrations may cause significant error
 Vibrational temperatures:     72.38    79.18   113.68   120.51   128.64
          (Kelvin)            142.19   176.57   212.24   312.11   324.36
                              345.11   369.91   386.02   403.56   422.90
                              466.70   519.50   564.23   608.41   649.38
                              669.63   706.13   727.28   787.20   830.94
                              856.92   877.77   944.40  1000.49  1050.05
                             1124.57  1136.69  1179.50  1195.80  1226.58
                             1237.59  1262.67  1292.63  1319.12  1334.80
                             1402.48  1415.48  1424.77  1440.52  1448.31
                             1493.66  1504.12  1517.02  1526.42  1546.75
                             1559.40  1579.20  1596.22  1617.67  1641.74
                             1661.30  1675.29  1704.81  1728.73  1793.44
                             1806.95  1821.13  1832.65  1849.73  1862.99
                             1876.34  1881.20  1903.33  1912.79  1917.83
                             1944.21  1963.25  1972.88  1984.71  1991.74
                             2009.13  2035.87  2046.71  2077.51  2158.40
                             2165.40  2179.46  2185.43  2191.70  2195.41
                             2200.47  2201.97  2214.09  2216.52  2240.88
                             2626.81  2635.69  4378.29  4381.18  4385.82
                             4398.35  4406.25  4414.13  4419.87  4420.36
                             4420.75  4430.69  4452.15  4455.64  4470.29
                             4474.33  4476.91  4479.52  4487.78  4491.23
                             4509.81  4525.24  4550.84  4581.65

 Zero-point correction=                           0.352418 (Hartree/Particle)
 Thermal correction to Energy=                    0.369418
 Thermal correction to Enthalpy=                  0.370362
 Thermal correction to Gibbs Free Energy=         0.308134
 Sum of electronic and zero-point Energies=           -810.263922
 Sum of electronic and thermal Energies=              -810.246923
 Sum of electronic and thermal Enthalpies=            -810.245979
 Sum of electronic and thermal Free Energies=         -810.308207

                     E (Thermal)             CV                S
                      KCal/Mol        Cal/Mol-Kelvin    Cal/Mol-Kelvin
 Total                  231.813             66.845            130.970
 Electronic               0.000              0.000              0.000
 Translational            0.889              2.981             42.451
 Rotational               0.889              2.981             32.822
 Vibrational            230.036             60.883             55.697
 Vibration     1          0.595              1.977              4.805
 Vibration     2          0.596              1.976              4.628
 Vibration     3          0.600              1.963              3.915
 Vibration     4          0.601              1.960              3.801
 Vibration     5          0.602              1.957              3.673
 Vibration     6          0.604              1.950              3.477
 Vibration     7          0.610              1.930              3.057
 Vibration     8          0.617              1.905              2.704
 Vibration     9          0.646              1.815              1.985
 Vibration    10          0.650              1.802              1.915
 Vibration    11          0.657              1.779              1.804
 Vibration    12          0.667              1.751              1.681
 Vibration    13          0.673              1.731              1.607
 Vibration    14          0.680              1.710              1.531
 Vibration    15          0.689              1.685              1.451
 Vibration    16          0.709              1.627              1.288
 Vibration    17          0.735              1.552              1.117
 Vibration    18          0.760              1.487              0.992
 Vibration    19          0.785              1.421              0.882
 Vibration    20          0.810              1.358              0.792
 Vibration    21          0.823              1.327              0.751
 Vibration    22          0.847              1.270              0.682
 Vibration    23          0.861              1.238              0.645
 Vibration    24          0.902              1.146              0.550
 Vibration    25          0.934              1.080              0.490
 Vibration    26          0.953              1.041              0.457
 Vibration    27          0.969              1.010              0.433

 Optimization completed.
    -- Stationary point found.
 Normal termination of Gaussian 16 at Fri Dec 11 22:38:29 2020.

 ----------------------------------------------------------------------
 # B3LYP/6-311++G(d,p) empiricaldispersion=gd3bj scf=xqc pop=npa geom=c
 heck
 ----------------------------------------------------------------------

 -------------------------------------
 CID_3107824_JID_8707_Energie_neutraal
 -------------------------------------
 Structure from the checkpoint file:  "JID_8707.chk"
 Charge =  0 Multiplicity = 1

 SCF Done:  E(RB3LYP) =  -810.840018513     A.U. after   15 cycles
 Normal termination of Gaussian 16 at Fri Dec 11 22:48:43 2020.

 ----------------------------------------------------------------------
 # B3LYP/6-311++G(d,p) empiricaldispersion=gd3bj scf=xqc pop=npa geom=c
 heck
 ----------------------------------------------------------------------

 -----------------------------------
 CID_3107824_JID_8707_Energie_kation
 -----------------------------------
 Structure from the checkpoint file:  "JID_8707.chk"
 Charge =  1 Multiplicity = 2

 SCF Done:  E(UB3LYP) =  -810.528117961     A.U. after   23 cycles
 Normal termination of Gaussian 16 at Fri Dec 11 23:10:44 2020.
 Gaussian 16:  ES64L-G16RevA.03 25-Dec-2016

 ----------------------------------------------------------------------
 # B3LYP/6-311++G(d,p) empiricaldispersion=gd3bj scf=xqc pop=npa geom=c
 heck
 ----------------------------------------------------------------------

 ----------------------------------
 CID_3107824_JID_8707_Energie_anion
 ----------------------------------
 Structure from the checkpoint file:  "JID_8707.chk"
 Charge = -1 Multiplicity = 2

                         Standard orientation:
 ---------------------------------------------------------------------
 Center     Atomic      Atomic             Coordinates (Angstroms)
 Number     Number       Type             X           Y           Z
 ---------------------------------------------------------------------
      1          6           0        4.683773    0.574454   -0.818366
      2          6           0        3.844541   -0.706659   -0.750874
      3          6           0        2.855944   -0.735599    0.436212
      4          6           0        1.390521   -0.450807    0.089433
      5          6           0        0.748676   -1.560449   -0.798480
      6          6           0       -0.799832   -1.421607   -0.786079
      7          6           0       -1.126824    0.040424   -0.440374
      8          6           0       -0.221196    0.914295   -1.317624
      9          6           0        1.131498    0.951623   -0.578015
     10          6           0        0.996659    2.023638    0.523369
     11          6           0       -0.354238    1.790282    1.258822
     12          6           0       -0.769955    0.311035    1.055812
     13          6           0        0.506608   -0.468809    1.338258
     14          8           0        0.787837   -0.993704    2.395964
     15          8           0       -2.488262    0.426244   -0.753888
     16          6           0       -3.530034   -0.228358   -0.189300
     17          8           0       -3.430160   -1.147981    0.592838
     18          6           0       -4.834845    0.359529   -0.674144
     19          1           0        5.288997    0.688111    0.088825
     20          1           0        4.056410    1.469054   -0.904109
     21          1           0        5.365492    0.561621   -1.676396
     22          1           0        3.306982   -0.841346   -1.698342
     23          1           0        4.525428   -1.562815   -0.675682
     24          1           0        2.881911   -1.709845    0.934633
     25          1           0        3.183429   -0.017647    1.199412
     26          1           0        1.138903   -1.475712   -1.818278
     27          1           0        1.045116   -2.543354   -0.420049
     28          1           0       -1.225148   -1.668338   -1.764724
     29          1           0       -1.250124   -2.088161   -0.048166
     30          1           0       -0.633955    1.922359   -1.422132
     31          1           0       -0.148353    0.489594   -2.323898
     32          1           0        1.943162    1.187203   -1.270144
     33          1           0        1.834496    1.950901    1.226674
     34          1           0        1.031922    3.027274    0.085734
     35          1           0       -0.263966    2.005289    2.327101
     36          1           0       -1.140860    2.440583    0.861107
     37          1           0       -1.572515   -0.002065    1.722086
     38          1           0       -4.888275    1.420820   -0.410511
     39          1           0       -4.895680    0.291156   -1.765022
     40          1           0       -5.666473   -0.179111   -0.219315
 ---------------------------------------------------------------------

 SCF Done:  E(UB3LYP) =  -810.829428395     A.U. after   33 cycles
 SCF Done:  E(UB3LYP) =  -810.829428395     a.u. after    1 cycles

 The electronic state is 2-A.
 Alpha  occ. eigenvalues --  -19.07578 -19.02282 -19.02190 -10.21621 -10.16098
 Alpha  occ. eigenvalues --  -10.15369 -10.09832 -10.09079 -10.08927 -10.08881
 Alpha  occ. eigenvalues --  -10.08727 -10.08385 -10.08310 -10.08003 -10.07801
 Alpha  occ. eigenvalues --  -10.07686 -10.07550 -10.07080  -1.01578  -0.95384
 Alpha  occ. eigenvalues --   -0.93413  -0.79841  -0.71785  -0.70401  -0.67779
 Alpha  occ. eigenvalues --   -0.66282  -0.64865  -0.61781  -0.58757  -0.55675
 Alpha  occ. eigenvalues --   -0.53757  -0.51110  -0.49032  -0.47977  -0.45341
 Alpha  occ. eigenvalues --   -0.42160  -0.41374  -0.40324  -0.38777  -0.38156
 Alpha  occ. eigenvalues --   -0.37879  -0.36558  -0.35898  -0.35049  -0.34705
 Alpha  occ. eigenvalues --   -0.33300  -0.32441  -0.31983  -0.31388  -0.31021
 Alpha  occ. eigenvalues --   -0.30086  -0.29287  -0.29054  -0.28975  -0.28665
 Alpha  occ. eigenvalues --   -0.28072  -0.27354  -0.26284  -0.25099  -0.24916
 Alpha  occ. eigenvalues --   -0.24649  -0.24341  -0.23270  -0.22212  -0.21078
 Alpha  occ. eigenvalues --   -0.19730  -0.18318  -0.14914   0.03995
 Alpha virt. eigenvalues --    0.05658   0.06157   0.07203   0.07525   0.07845
 Alpha virt. eigenvalues --    0.08195   0.08971   0.09217   0.09496   0.09855
 Alpha virt. eigenvalues --    0.10315   0.10679   0.10764   0.11831   0.12457

  Beta  occ. eigenvalues --  -19.07571 -19.02276 -19.02161 -10.21618 -10.16062
  Beta  occ. eigenvalues --  -10.15368 -10.09834 -10.09071 -10.08915 -10.08882
  Beta  occ. eigenvalues --  -10.08683 -10.08364 -10.08305 -10.07992 -10.07782
  Beta  occ. eigenvalues --  -10.07682 -10.07526 -10.07052  -1.01567  -0.95325
  Beta  occ. eigenvalues --   -0.93401  -0.79816  -0.71768  -0.70376  -0.67749
  Beta  occ. eigenvalues --   -0.66243  -0.64819  -0.61747  -0.58715  -0.55637
  Beta  occ. eigenvalues --   -0.53724  -0.51068  -0.48977  -0.47935  -0.45299
  Beta  occ. eigenvalues --   -0.42132  -0.41329  -0.40291  -0.38753  -0.38109
  Beta  occ. eigenvalues --   -0.37846  -0.36527  -0.35871  -0.35018  -0.34679
  Beta  occ. eigenvalues --   -0.33271  -0.32403  -0.31951  -0.31357  -0.30994
  Beta  occ. eigenvalues --   -0.30051  -0.29257  -0.28963  -0.28944  -0.28621
  Beta  occ. eigenvalues --   -0.28017  -0.27327  -0.26260  -0.25070  -0.24886
  Beta  occ. eigenvalues --   -0.24611  -0.24321  -0.23247  -0.22194  -0.21052
  Beta  occ. eigenvalues --   -0.19703  -0.18302  -0.14887
  Beta virt. eigenvalues --    0.06082   0.06431   0.06687   0.07747   0.07862
  Beta virt. eigenvalues --    0.08131   0.08492   0.09173   0.09617   0.09925
  Beta virt. eigenvalues --    0.10185   0.10677   0.10978   0.11056   0.12245

 Mulliken charges and spin densities:
               1          2
     1  C    0.596830  -1.264930
     2  C   -0.723408   0.634584
     3  C    0.091323  -0.063290
     4  C    0.467072  -0.119097
     5  C    0.252157  -0.758127
     6  C   -0.221139  -0.189396
     7  C   -0.707392  -0.109204
     8  C    0.088842  -0.574339
     9  C   -0.295690   0.764470
    10  C    0.208692  -0.984985
    11  C    0.385689  -0.664743
    12  C    0.146470   0.209962
    13  C   -0.202113  -0.288212
    14  O   -0.263869   0.020783
    15  O    0.148578   0.041243
    16  C   -0.507966   0.715116
    17  O   -0.185346  -0.010931
    18  C    0.697392  -1.390219
    19  H    0.034040   0.099588
    20  H   -0.230400   0.354068
    21  H   -0.319625   0.456809
    22  H   -0.053880   0.179697
    23  H   -0.076436   0.221157
    24  H    0.215929  -0.007608
    25  H    0.043853   0.110926
    26  H    0.141158   0.017979
    27  H    0.164721   0.007336
    28  H   -0.057286   0.233282
    29  H    0.247907   0.001233
    30  H   -0.197446   0.437612
    31  H   -0.324285   0.520321
    32  H    0.104170   0.224079
    33  H    0.344022  -0.218438
    34  H   -0.617902   0.804781
    35  H    0.010735   0.173852
    36  H    0.079835   0.124035
    37  H    0.266835   0.028069
    38  H   -0.412710   0.587800
    39  H   -0.308833   0.477882
    40  H   -0.030525   0.196856
 Sum of Mulliken charges =  -1.00000   1.00000

 Dipole moment (field-independent basis, Debye):
    X=              1.5627    Y=             -3.8774    Z=              2.2094  Tot=              4.7284
 Quadrupole moment (field-independent basis, Debye-Ang):
   XX=           -197.6277   YY=           -154.4737   ZZ=           -156.7236
   XY=             -0.1933   XZ=              4.0729   YZ=             11.8556

 Summary of Natural Population Analysis:

                                       Natural Population
                Natural  -----------------------------------------------
    Atom  No    Charge         Core      Valence    Rydberg      Total
 -----------------------------------------------------------------------
      C    1   -0.28248      0.99966     2.27805    0.00476     3.28248
      C    2   -0.19338      0.99964     2.18555    0.00820     3.19338
      C    3   -0.19355      0.99958     2.18128    0.01269     3.19355
      C    4   -0.07025      0.99948     2.05732    0.01345     3.07025
      C    5   -0.18567      0.99959     2.17713    0.00895     3.18567
      C    6   -0.20612      0.99956     2.19765    0.00891     3.20612
      C    7    0.14937      0.99942     1.83238    0.01884     2.85063
      C    8   -0.19964      0.99956     2.18673    0.01335     3.19964
      C    9   -0.11098      0.99957     2.09658    0.01483     3.11098
      C   10   -0.19246      0.99961     2.18380    0.00905     3.19246
      C   11   -0.18859      0.99962     2.17991    0.00907     3.18859
      C   12   -0.16855      0.99948     2.15536    0.01372     3.16855
      C   13    0.32314      0.99953     1.65133    0.02600     2.67686
      O   14   -0.28878      0.99987     3.28138    0.00753     4.28878
      O   15   -0.29098      0.99984     3.27886    0.01227     4.29098
      C   16    0.41221      0.99969     1.56328    0.02482     2.58779
      O   17   -0.30760      0.99987     3.30235    0.00539     4.30760
      C   18   -0.33077      0.99962     2.32615    0.00499     3.33077
      H   19    0.09389      0.00000     0.40520    0.00092     0.40611
      H   20    0.09774      0.00000     0.40114    0.00112     0.40226
      H   21    0.09912      0.00000     0.39990    0.00098     0.40088
      H   22    0.09551      0.00000     0.40312    0.00137     0.40449
      H   23    0.09521      0.00000     0.40394    0.00086     0.40479
      H   24    0.10616      0.00000     0.39285    0.00099     0.39384
      H   25    0.10022      0.00000     0.39819    0.00159     0.39978
      H   26    0.10304      0.00000     0.39574    0.00121     0.39696
      H   27    0.10387      0.00000     0.39520    0.00094     0.39613
      H   28    0.10639      0.00000     0.39260    0.00101     0.39361
      H   29    0.11282      0.00000     0.38610    0.00107     0.38718
      H   30    0.11297      0.00000     0.38501    0.00202     0.38703
      H   31    0.10563      0.00000     0.39277    0.00160     0.39437
      H   32    0.11110      0.00000     0.38671    0.00219     0.38890
      H   33    0.09825      0.00000     0.40047    0.00129     0.40175
      H   34    0.10694      0.00000     0.39174    0.00132     0.39306
      H   35    0.10459      0.00000     0.39451    0.00090     0.39541
      H   36    0.10715      0.00000     0.39120    0.00165     0.39285
      H   37    0.12486      0.00000     0.37353    0.00162     0.37514
      H   38    0.11686      0.00000     0.38134    0.00180     0.38314
      H   39    0.11470      0.00000     0.38396    0.00133     0.38530
      H   40    0.10806      0.00000     0.39112    0.00081     0.39194
 =======================================================================
   * Total *   -0.00000     17.99319    49.76140    0.24541    68.00000

 Normal termination of Gaussian 16 at Fri Dec 11 23:42:04 2020.
