 Gaussian 16, Revision A.03,

 -----------------------------------------------------------
 # opt freq B3LYP/6-31G(d) empiricaldispersion=gd3bj scf=xqc
 -----------------------------------------------------------

 ------------------------------
 CID_15424074_JID_5915_neutraal
 ------------------------------
 Symbolic Z-matrix:
 Charge =  0 Multiplicity = 1

 SCF Done:  E(RB3LYP) =  -671.493132821     A.U. after   14 cycles
 SCF Done:  E(RB3LYP) =  -671.499058617     A.U. after   12 cycles
 SCF Done:  E(RB3LYP) =  -671.500182821     A.U. after   12 cycles
 SCF Done:  E(RB3LYP) =  -671.500653701     A.U. after   12 cycles
 SCF Done:  E(RB3LYP) =  -671.501006182     A.U. after   11 cycles
 SCF Done:  E(RB3LYP) =  -671.501412796     A.U. after   11 cycles
 SCF Done:  E(RB3LYP) =  -671.501997531     A.U. after   13 cycles
 SCF Done:  E(RB3LYP) =  -671.502425592     A.U. after   11 cycles
 SCF Done:  E(RB3LYP) =  -671.502797690     A.U. after   11 cycles
 SCF Done:  E(RB3LYP) =  -671.502807489     A.U. after   11 cycles
 SCF Done:  E(RB3LYP) =  -671.502953109     A.U. after   10 cycles
 SCF Done:  E(RB3LYP) =  -671.502954289     A.U. after    8 cycles
 SCF Done:  E(RB3LYP) =  -671.502954552     A.U. after    8 cycles
 SCF Done:  E(RB3LYP) =  -671.502954565     A.U. after    7 cycles
 SCF Done:  E(RB3LYP) =  -671.502954575     A.U. after    7 cycles
 Optimization completed.
    -- Stationary point found.
 Normal termination of Gaussian 16 at Thu Dec 10 17:41:59 2020.

 --------------------------------------------------------------------
 #N Geom=AllCheck Guess=TCheck SCRF=Check GenChk RB3LYP/6-31G(d) Freq
 --------------------------------------------------------------------

 Structure from the checkpoint file:  "JID_5915.chk"
 ------------------------------
 CID_15424074_JID_5915_neutraal
 ------------------------------
 Charge =  0 Multiplicity = 1

 SCF Done:  E(RB3LYP) =  -671.502954575     A.U. after    1 cycles

  Exact polarizability: 183.022  -6.261 135.359  14.049  -5.605  78.893
 Approx polarizability: 238.468 -10.642 230.150  28.890 -15.169 126.120

                      1                      2                      3
                      A                      A                      A
 Frequencies --     26.0805                26.4665                55.1608
 Red. masses --      4.2409                 6.4474                 3.6509
 Frc consts  --      0.0017                 0.0027                 0.0065
 IR Inten    --      0.4232                 0.8492                 0.9649

                      4                      5                      6
                      A                      A                      A
 Frequencies --     73.2129                96.0135               163.6860
 Red. masses --      3.7330                 4.0332                 5.1377
 Frc consts  --      0.0118                 0.0219                 0.0811
 IR Inten    --      1.3746                 1.2014                 4.2402

                      7                      8                      9
                      A                      A                      A
 Frequencies --    180.4281               244.8842               261.4369
 Red. masses --      3.0258                 4.0082                 3.7740
 Frc consts  --      0.0580                 0.1416                 0.1520
 IR Inten    --      1.9231                 3.2369                 0.3219

                     10                     11                     12
                      A                      A                      A
 Frequencies --    296.7975               325.7704               351.0393
 Red. masses --      3.4223                 2.8402                 3.0431
 Frc consts  --      0.1776                 0.1776                 0.2209
 IR Inten    --      3.4573                 0.9245                 2.0328

                     13                     14                     15
                      A                      A                      A
 Frequencies --    417.0473               421.4642               478.9073
 Red. masses --      2.8155                 2.2044                 2.9820
 Frc consts  --      0.2885                 0.2307                 0.4030
 IR Inten    --      0.0609                 0.4047                 0.4948

                     16                     17                     18
                      A                      A                      A
 Frequencies --    503.3675               528.0792               581.9118
 Red. masses --      3.3516                 3.5150                 1.0904
 Frc consts  --      0.5003                 0.5775                 0.2176
 IR Inten    --      1.1280                11.3280               170.8193

                     19                     20                     21
                      A                      A                      A
 Frequencies --    602.7336               638.2381               663.2757
 Red. masses --      4.0706                 6.1968                 2.9932
 Frc consts  --      0.8713                 1.4873                 0.7759
 IR Inten    --      3.9981                 0.1193                17.1847

                     22                     23                     24
                      A                      A                      A
 Frequencies --    714.1702               760.5284               782.5409
 Red. masses --      1.8313                 1.9523                 4.0477
 Frc consts  --      0.5503                 0.6653                 1.4604
 IR Inten    --     25.1724                25.2490                 0.6990

                     25                     26                     27
                      A                      A                      A
 Frequencies --    822.8989               845.2254               858.1801
 Red. masses --      3.1897                 3.8459                 1.2494
 Frc consts  --      1.2726                 1.6188                 0.5421
 IR Inten    --      9.1596                 7.4581                 0.1556

                     28                     29                     30
                      A                      A                      A
 Frequencies --    861.0170               896.0049               910.2950
 Red. masses --      2.5329                 2.7410                 2.2413
 Frc consts  --      1.1064                 1.2965                 1.0942
 IR Inten    --     16.0539                 5.8627                 2.5361

                     31                     32                     33
                      A                      A                      A
 Frequencies --    926.7389               954.8371               964.7638
 Red. masses --      1.4691                 4.3970                 1.3714
 Frc consts  --      0.7434                 2.3619                 0.7521
 IR Inten    --      3.4127                43.9407                 0.8777

                     34                     35                     36
                      A                      A                      A
 Frequencies --    976.3909               993.9472              1003.0418
 Red. masses --      2.8175                 1.2557                 2.4574
 Frc consts  --      1.5826                 0.7309                 1.4567
 IR Inten    --     61.3872                 0.1517                 4.2282

                     37                     38                     39
                      A                      A                      A
 Frequencies --   1022.6634              1028.6470              1060.3027
 Red. masses --      6.1725                 1.9051                 2.1722
 Frc consts  --      3.8034                 1.1877                 1.4388
 IR Inten    --      0.3047                 0.7321                 0.6416

                     40                     41                     42
                      A                      A                      A
 Frequencies --   1064.6308              1091.6294              1104.2331
 Red. masses --      1.9717                 2.3037                 3.0770
 Frc consts  --      1.3167                 1.6175                 2.2105
 IR Inten    --      6.0608                49.8685                52.0156

                     43                     44                     45
                      A                      A                      A
 Frequencies --   1119.3624              1179.6195              1193.9336
 Red. masses --      1.6602                 1.2762                 1.0990
 Frc consts  --      1.2256                 1.0463                 0.9230
 IR Inten    --     10.8819                 8.0576                 0.0394

                     46                     47                     48
                      A                      A                      A
 Frequencies --   1198.9317              1217.2131              1233.1157
 Red. masses --      1.6211                 1.1479                 1.2786
 Frc consts  --      1.3729                 1.0021                 1.1455
 IR Inten    --     11.5360                 0.4351                 1.4556

                     49                     50                     51
                      A                      A                      A
 Frequencies --   1238.1068              1240.2879              1279.1641
 Red. masses --      1.3832                 2.0335                 1.2714
 Frc consts  --      1.2493                 1.8431                 1.2257
 IR Inten    --      7.4406                 6.5328                13.9952

                     52                     53                     54
                      A                      A                      A
 Frequencies --   1306.4612              1336.6000              1351.6007
 Red. masses --      1.4533                 1.6387                 1.7726
 Frc consts  --      1.4615                 1.7249                 1.9080
 IR Inten    --     20.3098                 8.4471                 9.5852

                     55                     56                     57
                      A                      A                      A
 Frequencies --   1367.4376              1377.0788              1400.5965
 Red. masses --      2.7854                 1.3307                 1.4484
 Frc consts  --      3.0687                 1.4868                 1.6740
 IR Inten    --      2.1574                 1.7189                12.1096

                     58                     59                     60
                      A                      A                      A
 Frequencies --   1414.3157              1427.8165              1466.1231
 Red. masses --      1.7726                 1.5006                 1.1939
 Frc consts  --      2.0891                 1.8025                 1.5120
 IR Inten    --      7.1495                 4.6495                73.6850

                     61                     62                     63
                      A                      A                      A
 Frequencies --   1490.7461              1503.7126              1505.6785
 Red. masses --      1.1173                 1.6145                 1.2682
 Frc consts  --      1.4630                 2.1509                 1.6940
 IR Inten    --     19.5558                 2.5757                12.2099

                     64                     65                     66
                      A                      A                      A
 Frequencies --   1510.0383              1532.9012              1549.8941
 Red. masses --      1.1696                 1.0893                 2.2514
 Frc consts  --      1.5714                 1.5081                 3.1865
 IR Inten    --      2.1939                 0.4750                12.0957

                     67                     68                     69
                      A                      A                      A
 Frequencies --   1647.7382              1669.4143              1704.5204
 Red. masses --      5.5258                 5.6123                 8.2536
 Frc consts  --      8.8394                 9.2155                14.1285
 IR Inten    --      0.9211                 4.3035                 4.0186

                     70                     71                     72
                      A                      A                      A
 Frequencies --   3005.1999              3028.0793              3041.4311
 Red. masses --      1.0710                 1.0598                 1.0594
 Frc consts  --      5.6989                 5.7254                 5.7740
 IR Inten    --     55.3770                15.8631                15.9879

                     73                     74                     75
                      A                      A                      A
 Frequencies --   3051.5222              3060.7227              3081.4958
 Red. masses --      1.0645                 1.1006                 1.1020
 Frc consts  --      5.8400                 6.0748                 6.1653
 IR Inten    --     27.4855                28.1119                 6.8169

                     76                     77                     78
                      A                      A                      A
 Frequencies --   3094.6739              3101.4207              3114.9608
 Red. masses --      1.1001                 1.0949                 1.0902
 Frc consts  --      6.2072                 6.2048                 6.2323
 IR Inten    --     10.3497                55.5009                29.0963

                     79                     80                     81
                      A                      A                      A
 Frequencies --   3170.7581              3184.6823              3195.0755
 Red. masses --      1.0871                 1.0866                 1.0913
 Frc consts  --      6.4393                 6.4931                 6.5641
 IR Inten    --     11.3307                 1.0629                27.6004

                     82                     83                     84
                      A                      A                      A
 Frequencies --   3206.9271              3217.4800              3673.2264
 Red. masses --      1.0952                 1.0950                 1.0652
 Frc consts  --      6.6365                 6.6789                 8.4683
 IR Inten    --     36.5839                 7.6945               103.6867

 - Thermochemistry -
 -------------------
 Temperature   298.150 Kelvin.  Pressure   1.00000 Atm.
 Atom     1 has atomic number  6 and mass  12.00000

 Molecular mass:   205.11028 amu.
 Principal axes and moments of inertia in atomic units:
                           1         2         3
     Eigenvalues --  1113.211246879.724017619.58558
           X            0.99998  -0.00543   0.00160
           Y            0.00545   0.99990  -0.01268
           Z           -0.00153   0.01268   0.99992
 This molecule is an asymmetric top.
 Rotational symmetry number  1.
 Warning -- assumption of classical behavior for rotation
           may cause significant error
 Rotational temperatures (Kelvin)      0.07781     0.01259     0.01137
 Rotational constants (GHZ):           1.62120     0.26233     0.23686
 Zero-point vibrational energy     665534.9 (Joules/Mol)
                                  159.06667 (Kcal/Mol)
 Warning -- explicit consideration of  19 degrees of freedom as
           vibrations may cause significant error
 Vibrational temperatures:     37.52    38.08    79.36   105.34   138.14
          (Kelvin)            235.51   259.60   352.33   376.15   427.03
                              468.71   505.07   600.04   606.39   689.04
                              724.23   759.79   837.24   867.20   918.28
                              954.31  1027.53  1094.23  1125.90  1183.97
                             1216.09  1234.73  1238.81  1289.15  1309.71
                             1333.37  1373.80  1388.08  1404.81  1430.07
                             1443.15  1471.38  1479.99  1525.54  1531.77
                             1570.61  1588.75  1610.51  1697.21  1717.80
                             1725.00  1751.30  1774.18  1781.36  1784.50
                             1840.43  1879.71  1923.07  1944.65  1967.44
                             1981.31  2015.15  2034.88  2054.31  2109.42
                             2144.85  2163.51  2166.34  2172.61  2205.50
                             2229.95  2370.73  2401.91  2452.42  4323.81
                             4356.73  4375.94  4390.46  4403.70  4433.59
                             4452.55  4462.25  4481.73  4562.01  4582.05
                             4597.00  4614.05  4629.24  5284.95

 Zero-point correction=                           0.253489 (Hartree/Particle)
 Thermal correction to Energy=                    0.266971
 Thermal correction to Enthalpy=                  0.267916
 Thermal correction to Gibbs Free Energy=         0.211062
 Sum of electronic and zero-point Energies=           -671.249466
 Sum of electronic and thermal Energies=              -671.235983
 Sum of electronic and thermal Enthalpies=            -671.235039
 Sum of electronic and thermal Free Energies=         -671.291892

                     E (Thermal)             CV                S
                      KCal/Mol        Cal/Mol-Kelvin    Cal/Mol-Kelvin
 Total                  167.527             51.731            119.657
 Electronic               0.000              0.000              0.000
 Translational            0.889              2.981             41.859
 Rotational               0.889              2.981             32.434
 Vibrational            165.750             45.770             45.364
 Vibration     1          0.593              1.985              6.107
 Vibration     2          0.593              1.985              6.078
 Vibration     3          0.596              1.976              4.623
 Vibration     4          0.599              1.967              4.065
 Vibration     5          0.603              1.952              3.534
 Vibration     6          0.623              1.887              2.507
 Vibration     7          0.629              1.866              2.324
 Vibration     8          0.660              1.771              1.767
 Vibration     9          0.669              1.743              1.652
 Vibration    10          0.690              1.680              1.435
 Vibration    11          0.710              1.624              1.281
 Vibration    12          0.728              1.573              1.162
 Vibration    13          0.780              1.433              0.902
 Vibration    14          0.784              1.424              0.887
 Vibration    15          0.835              1.297              0.713
 Vibration    16          0.859              1.243              0.650
 Vibration    17          0.883              1.188              0.592
 Vibration    18          0.939              1.070              0.482
 Vibration    19          0.961              1.026              0.445

 Optimization completed.
    -- Stationary point found.
 Normal termination of Gaussian 16 at Thu Dec 10 17:50:36 2020.

 ----------------------------------------------------------------------
 # B3LYP/6-311++G(d,p) empiricaldispersion=gd3bj scf=xqc pop=npa geom=c
 heck
 ----------------------------------------------------------------------

 --------------------------------------
 CID_15424074_JID_5915_Energie_neutraal
 --------------------------------------
 Structure from the checkpoint file:  "JID_5915.chk"
 Charge =  0 Multiplicity = 1

 SCF Done:  E(RB3LYP) =  -671.693854455     A.U. after   15 cycles
 Normal termination of Gaussian 16 at Thu Dec 10 17:54:41 2020.

 ----------------------------------------------------------------------
 # B3LYP/6-311++G(d,p) empiricaldispersion=gd3bj scf=xqc pop=npa geom=c
 heck
 ----------------------------------------------------------------------

 ------------------------------------
 CID_15424074_JID_5915_Energie_kation
 ------------------------------------
 Structure from the checkpoint file:  "JID_5915.chk"
 Charge =  1 Multiplicity = 2

 SCF Done:  E(UB3LYP) =  -671.388034961     A.U. after   28 cycles
 Normal termination of Gaussian 16 at Thu Dec 10 18:04:57 2020.
 Gaussian 16:  ES64L-G16RevA.03 25-Dec-2016

 ----------------------------------------------------------------------
 # B3LYP/6-311++G(d,p) empiricaldispersion=gd3bj scf=xqc pop=npa geom=c
 heck
 ----------------------------------------------------------------------

 -----------------------------------
 CID_15424074_JID_5915_Energie_anion
 -----------------------------------
 Structure from the checkpoint file:  "JID_5915.chk"
 Charge = -1 Multiplicity = 2

                         Standard orientation:
 ---------------------------------------------------------------------
 Center     Atomic      Atomic             Coordinates (Angstroms)
 Number     Number       Type             X           Y           Z
 ---------------------------------------------------------------------
      1          6           0        1.433257   -1.807615   -0.166110
      2          6           0        0.092203   -1.134203   -0.488798
      3          8           0        0.469287    0.182436   -0.993414
      4          7           0        1.785751    0.455547   -0.599704
      5          6           0        2.343582   -0.604430   -0.144192
      6          6           0        3.763163   -0.602751    0.340006
      7          6           0        4.541426    0.666928   -0.033432
      8          8           0        3.982579    1.837316    0.527597
      9          6           0       -0.807272   -0.966921    0.744117
     10          6           0       -2.119518   -0.285121    0.440558
     11          6           0       -2.187788    1.105736    0.288907
     12          6           0       -3.395884    1.726350   -0.024581
     13          6           0       -4.555061    0.966267   -0.191737
     14          6           0       -4.497888   -0.419509   -0.043873
     15          6           0       -3.287058   -1.037603    0.269884
     16          1           0        1.421449   -2.340202    0.791428
     17          1           0        1.759755   -2.519434   -0.935367
     18          1           0       -0.455259   -1.623453   -1.297919
     19          1           0        3.761948   -0.722479    1.432993
     20          1           0        4.275221   -1.486930   -0.066478
     21          1           0        5.561031    0.588351    0.357083
     22          1           0        4.608546    0.735428   -1.130774
     23          1           0        3.104479    1.930079    0.115605
     24          1           0       -0.992443   -1.964874    1.161726
     25          1           0       -0.241102   -0.403097    1.496557
     26          1           0       -1.285528    1.697235    0.405599
     27          1           0       -3.432402    2.806284   -0.138234
     28          1           0       -5.496615    1.451563   -0.433102
     29          1           0       -5.395044   -1.019763   -0.168363
     30          1           0       -3.248200   -2.118314    0.389239
 ---------------------------------------------------------------------

 SCF Done:  E(UB3LYP) =  -671.684214359     A.U. after   33 cycles
 SCF Done:  E(UB3LYP) =  -671.684214358     a.u. after    1 cycles

 The electronic state is 2-A.
 Alpha  occ. eigenvalues --  -19.06505 -19.02175 -14.26877 -10.13723 -10.12675
 Alpha  occ. eigenvalues --  -10.12622 -10.09135 -10.09131 -10.09046 -10.08739
 Alpha  occ. eigenvalues --  -10.08648 -10.08591 -10.08307 -10.08256 -10.08143
 Alpha  occ. eigenvalues --   -1.00181  -0.92777  -0.78283  -0.76945  -0.71698
 Alpha  occ. eigenvalues --   -0.67278  -0.66157  -0.65757  -0.60226  -0.55084
 Alpha  occ. eigenvalues --   -0.52718  -0.51840  -0.49784  -0.45563  -0.42997
 Alpha  occ. eigenvalues --   -0.41885  -0.40509  -0.39207  -0.37374  -0.36698
 Alpha  occ. eigenvalues --   -0.36359  -0.35185  -0.33393  -0.33045  -0.32389
 Alpha  occ. eigenvalues --   -0.31086  -0.30382  -0.29377  -0.28404  -0.27520
 Alpha  occ. eigenvalues --   -0.26507  -0.26187  -0.25283  -0.24475  -0.24249
 Alpha  occ. eigenvalues --   -0.20661  -0.18177  -0.16736  -0.16245  -0.14725
 Alpha  occ. eigenvalues --    0.04085
 Alpha virt. eigenvalues --    0.05773   0.06839   0.06964   0.07341   0.07660
 Alpha virt. eigenvalues --    0.07820   0.08486   0.08980   0.09651   0.09846
 Alpha virt. eigenvalues --    0.10093   0.11182   0.11630   0.11975   0.12408

  Beta  occ. eigenvalues --  -19.06504 -19.02170 -14.26865 -10.13711 -10.12663
  Beta  occ. eigenvalues --  -10.12620 -10.09124 -10.09098 -10.08997 -10.08738
  Beta  occ. eigenvalues --  -10.08634 -10.08579 -10.08286 -10.08239 -10.08134
  Beta  occ. eigenvalues --   -1.00170  -0.92767  -0.78258  -0.76920  -0.71655
  Beta  occ. eigenvalues --   -0.67235  -0.66112  -0.65731  -0.60174  -0.55042
  Beta  occ. eigenvalues --   -0.52663  -0.51811  -0.49746  -0.45525  -0.42952
  Beta  occ. eigenvalues --   -0.41849  -0.40468  -0.39163  -0.37339  -0.36660
  Beta  occ. eigenvalues --   -0.36315  -0.35139  -0.33368  -0.33007  -0.32344
  Beta  occ. eigenvalues --   -0.31043  -0.30345  -0.29341  -0.28377  -0.27478
  Beta  occ. eigenvalues --   -0.26478  -0.26152  -0.25256  -0.24458  -0.24214
  Beta  occ. eigenvalues --   -0.20643  -0.18148  -0.16706  -0.16189  -0.14693
  Beta virt. eigenvalues --    0.06060   0.06829   0.07228   0.07326   0.07544
  Beta virt. eigenvalues --    0.08017   0.08258   0.08878   0.09357   0.10048
  Beta virt. eigenvalues --    0.10234   0.10573   0.11494   0.11953   0.12424

 Mulliken charges and spin densities:
               1          2
     1  C    2.730990  -3.668974
     2  C   -1.840799   2.028782
     3  O    0.265293  -0.033116
     4  N   -0.616077   0.086273
     5  C   -0.913757   1.410033
     6  C    0.939349  -1.178706
     7  C   -0.026130  -0.514471
     8  O   -0.278913   0.022414
     9  C    1.106790  -2.033967
    10  C    0.281484   0.907661
    11  C   -0.814930   0.721416
    12  C   -0.296343  -0.064874
    13  C    0.342581  -0.634205
    14  C    0.657506  -1.020771
    15  C   -0.233306  -0.149601
    16  H   -0.373683   0.574362
    17  H   -0.758452   0.972742
    18  H   -0.102333   0.371079
    19  H    0.063527   0.136152
    20  H   -0.466925   0.632472
    21  H   -0.058410   0.227691
    22  H    0.090689   0.068634
    23  H    0.217764   0.043779
    24  H   -0.298337   0.479875
    25  H   -0.026899   0.203920
    26  H    0.153597   0.035076
    27  H    0.058670   0.097714
    28  H    0.014088   0.125912
    29  H   -0.281319   0.448778
    30  H   -0.535716   0.703921
 Sum of Mulliken charges =  -1.00000   1.00000

 Dipole moment (field-independent basis, Debye):
    X=             -2.3050    Y=              5.7483    Z=             -0.0266  Tot=              6.1933
 Quadrupole moment (field-independent basis, Debye-Ang):
   XX=           -172.8449   YY=           -142.7508   ZZ=           -120.3569
   XY=             -1.6106   XZ=              1.3227   YZ=             -1.3429

 Summary of Natural Population Analysis:

                                       Natural Population
                Natural  -----------------------------------------------
    Atom  No    Charge         Core      Valence    Rydberg      Total
 -----------------------------------------------------------------------
      C    1   -0.22690      0.99958     2.21701    0.01031     3.22690
      C    2    0.06372      0.99957     1.92224    0.01447     2.93628
      O    3   -0.21700      0.99989     3.20779    0.00932     4.21700
      N    4   -0.09378      0.99958     2.58064    0.01356     3.59378
      C    5    0.12405      0.99961     1.86024    0.01610     2.87595
      C    6   -0.22270      0.99958     2.21335    0.00977     3.22270
      C    7   -0.00763      0.99961     1.99377    0.01425     3.00763
      O    8   -0.37777      0.99990     3.37111    0.00677     4.37777
      C    9   -0.20840      0.99957     2.19801    0.01082     3.20840
      C   10   -0.01396      0.99951     2.00325    0.01120     3.01396
      C   11   -0.09334      0.99951     2.08536    0.00847     3.09334
      C   12   -0.10314      0.99957     2.09404    0.00953     3.10314
      C   13   -0.10643      0.99956     2.09754    0.00932     3.10643
      C   14   -0.10113      0.99956     2.09115    0.01042     3.10113
      C   15   -0.09883      0.99951     2.08906    0.01027     3.09883
      H   16    0.11574      0.00000     0.38136    0.00290     0.38426
      H   17    0.11921      0.00000     0.37628    0.00451     0.38079
      H   18    0.09864      0.00000     0.39973    0.00163     0.40136
      H   19    0.11019      0.00000     0.38857    0.00124     0.38981
      H   20    0.11323      0.00000     0.38390    0.00287     0.38677
      H   21    0.08600      0.00000     0.41290    0.00111     0.41400
      H   22    0.07803      0.00000     0.42071    0.00126     0.42197
      H   23    0.24027      0.00000     0.25645    0.00328     0.25973
      H   24    0.10914      0.00000     0.38889    0.00198     0.39086
      H   25    0.10523      0.00000     0.39322    0.00155     0.39477
      H   26    0.10653      0.00000     0.39234    0.00113     0.39347
      H   27    0.09837      0.00000     0.40087    0.00076     0.40163
      H   28    0.09845      0.00000     0.40076    0.00079     0.40155
      H   29    0.10075      0.00000     0.39826    0.00098     0.39925
      H   30    0.10348      0.00000     0.39497    0.00154     0.39652
 =======================================================================
   * Total *   -0.00000     14.99410    39.81380    0.19210    55.00000

 Normal termination of Gaussian 16 at Thu Dec 10 18:16:31 2020.
