 Gaussian 16, Revision A.03,

 -----------------------------------------------------------
 # opt freq B3LYP/6-31G(d) empiricaldispersion=gd3bj scf=xqc
 -----------------------------------------------------------

 ------------------------------
 CID_12894111_JID_7678_neutraal
 ------------------------------
 Symbolic Z-matrix:
 Charge =  0 Multiplicity = 1

 SCF Done:  E(RB3LYP) =  -689.542184998     A.U. after   16 cycles
 SCF Done:  E(RB3LYP) =  -689.567737280     A.U. after   13 cycles
 SCF Done:  E(RB3LYP) =  -689.569536645     A.U. after   14 cycles
 SCF Done:  E(RB3LYP) =  -689.570417807     A.U. after   12 cycles
 SCF Done:  E(RB3LYP) =  -689.570776131     A.U. after   12 cycles
 SCF Done:  E(RB3LYP) =  -689.570925738     A.U. after   11 cycles
 SCF Done:  E(RB3LYP) =  -689.571008550     A.U. after   11 cycles
 SCF Done:  E(RB3LYP) =  -689.571048354     A.U. after   11 cycles
 SCF Done:  E(RB3LYP) =  -689.571079267     A.U. after   10 cycles
 SCF Done:  E(RB3LYP) =  -689.571097941     A.U. after   10 cycles
 SCF Done:  E(RB3LYP) =  -689.571108289     A.U. after    9 cycles
 SCF Done:  E(RB3LYP) =  -689.571108508     A.U. after    8 cycles
 SCF Done:  E(RB3LYP) =  -689.571108637     A.U. after    8 cycles
 SCF Done:  E(RB3LYP) =  -689.571108668     A.U. after    7 cycles
 SCF Done:  E(RB3LYP) =  -689.571108681     A.U. after    7 cycles
 Optimization completed.
    -- Stationary point found.
 Normal termination of Gaussian 16 at Sun Dec 13 16:11:04 2020.

 --------------------------------------------------------------------
 #N Geom=AllCheck Guess=TCheck SCRF=Check GenChk RB3LYP/6-31G(d) Freq
 --------------------------------------------------------------------

 Structure from the checkpoint file:  "JID_7678.chk"
 ------------------------------
 CID_12894111_JID_7678_neutraal
 ------------------------------
 Charge =  0 Multiplicity = 1

 SCF Done:  E(RB3LYP) =  -689.571108681     A.U. after    1 cycles

  Exact polarizability: 289.787   4.650 147.150   4.480  11.178 101.347
 Approx polarizability: 410.989  10.625 232.409  10.697  27.007 171.671

                      1                      2                      3
                      A                      A                      A
 Frequencies --     29.7608                49.0525                55.1613
 Red. masses --      4.0908                 4.0309                 4.3297
 Frc consts  --      0.0021                 0.0057                 0.0078
 IR Inten    --      0.8500                 1.5123                 1.6452

                      4                      5                      6
                      A                      A                      A
 Frequencies --     76.6105                89.7820               109.2316
 Red. masses --      2.3899                 3.9514                 3.9472
 Frc consts  --      0.0083                 0.0188                 0.0277
 IR Inten    --      0.6387                 1.4366                 2.2778

                      7                      8                      9
                      A                      A                      A
 Frequencies --    143.9858               171.6497               193.3848
 Red. masses --      1.2024                 2.4730                 2.4348
 Frc consts  --      0.0147                 0.0429                 0.0536
 IR Inten    --      0.6073                 2.8918                 1.5135

                     10                     11                     12
                      A                      A                      A
 Frequencies --    217.8478               249.9333               266.1481
 Red. masses --      2.5881                 3.1544                 2.7969
 Frc consts  --      0.0724                 0.1161                 0.1167
 IR Inten    --      0.6717                 1.4101                 0.8607

                     13                     14                     15
                      A                      A                      A
 Frequencies --    287.4012               312.5533               326.1071
 Red. masses --      2.7407                 3.6617                 4.8280
 Frc consts  --      0.1334                 0.2108                 0.3025
 IR Inten    --      0.5466                 0.9472                 3.4231

                     16                     17                     18
                      A                      A                      A
 Frequencies --    385.5092               413.0114               423.4771
 Red. masses --      4.2521                 4.6260                 3.0311
 Frc consts  --      0.3723                 0.4649                 0.3203
 IR Inten    --      0.3090                 1.6347                 0.0676

                     19                     20                     21
                      A                      A                      A
 Frequencies --    467.1205               523.7303               524.7161
 Red. masses --      4.1420                 5.8018                 5.2650
 Frc consts  --      0.5325                 0.9376                 0.8541
 IR Inten    --      0.2600                 6.6071                 7.6386

                     22                     23                     24
                      A                      A                      A
 Frequencies --    590.7518               615.8955               623.6239
 Red. masses --      3.2774                 4.4268                 5.6101
 Frc consts  --      0.6739                 0.9894                 1.2855
 IR Inten    --      4.5882                 3.4948                 0.3982

                     25                     26                     27
                      A                      A                      A
 Frequencies --    654.0912               684.6334               712.3535
 Red. masses --      4.8096                 4.2769                 4.4757
 Frc consts  --      1.2124                 1.1811                 1.3382
 IR Inten    --      0.9431                 0.1757                 1.5000

                     28                     29                     30
                      A                      A                      A
 Frequencies --    713.0933               737.9712               782.4540
 Red. masses --      2.3298                 3.8013                 1.9535
 Frc consts  --      0.6980                 1.2197                 0.7047
 IR Inten    --     19.6316                27.5601                18.1216

                     31                     32                     33
                      A                      A                      A
 Frequencies --    802.4278               837.4511               857.9129
 Red. masses --      1.3613                 1.8894                 1.2439
 Frc consts  --      0.5165                 0.7807                 0.5394
 IR Inten    --     25.4293                 4.0798                 0.1495

                     34                     35                     36
                      A                      A                      A
 Frequencies --    872.7182               936.9109               972.8558
 Red. masses --      2.8671                 1.4204                 1.3423
 Frc consts  --      1.2866                 0.7346                 0.7485
 IR Inten    --     10.5446                 2.3785                 0.0477

                     37                     38                     39
                      A                      A                      A
 Frequencies --   1000.8739              1004.9178              1007.5281
 Red. masses --      1.2594                 1.3361                 1.3752
 Frc consts  --      0.7433                 0.7950                 0.8225
 IR Inten    --      0.0841                16.6391                12.4610

                     40                     41                     42
                      A                      A                      A
 Frequencies --   1024.9494              1034.1999              1039.7191
 Red. masses --      6.2493                 4.6351                 4.3117
 Frc consts  --      3.8680                 2.9209                 2.7462
 IR Inten    --      4.3051                 2.5032                 6.8641

                     43                     44                     45
                      A                      A                      A
 Frequencies --   1059.2085              1063.7250              1067.9783
 Red. masses --      1.8124                 1.9503                 1.4206
 Frc consts  --      1.1980                 1.3002                 0.9546
 IR Inten    --     26.3165                 0.5241                 0.6939

                     46                     47                     48
                      A                      A                      A
 Frequencies --   1082.0199              1110.2163              1176.8761
 Red. masses --      1.4367                 1.5236                 1.5739
 Frc consts  --      0.9910                 1.1064                 1.2844
 IR Inten    --      2.3605                 6.0208                 3.2057

                     49                     50                     51
                      A                      A                      A
 Frequencies --   1195.1417              1204.8952              1212.5654
 Red. masses --      1.1018                 1.1924                 3.1311
 Frc consts  --      0.9272                 1.0200                 2.7124
 IR Inten    --      0.0049                 0.1742                 9.5298

                     52                     53                     54
                      A                      A                      A
 Frequencies --   1263.1632              1307.5699              1339.0319
 Red. masses --      3.3720                 1.4713                 2.2472
 Frc consts  --      3.1700                 1.4821                 2.3740
 IR Inten    --      0.7861                 4.3400                 6.1275

                     55                     56                     57
                      A                      A                      A
 Frequencies --   1352.3383              1363.0540              1374.3225
 Red. masses --      1.3618                 2.6160                 4.3207
 Frc consts  --      1.4673                 2.8636                 4.8082
 IR Inten    --      4.0368                 1.8650                68.5145

                     58                     59                     60
                      A                      A                      A
 Frequencies --   1413.9589              1444.7145              1451.4202
 Red. masses --      4.2283                 1.2901                 1.2991
 Frc consts  --      4.9807                 1.5865                 1.6125
 IR Inten    --     64.4024                 5.1566                11.8204

                     61                     62                     63
                      A                      A                      A
 Frequencies --   1466.7726              1501.0699              1508.6187
 Red. masses --      3.2492                 2.0778                 1.0656
 Frc consts  --      4.1186                 2.7584                 1.4289
 IR Inten    --    103.2582                 8.1204                10.5222

                     64                     65                     66
                      A                      A                      A
 Frequencies --   1510.5867              1522.4754              1532.0397
 Red. masses --      1.0963                 1.1387                 1.2091
 Frc consts  --      1.4739                 1.5551                 1.6720
 IR Inten    --     11.7733                 5.7032                 4.9397

                     67                     68                     69
                      A                      A                      A
 Frequencies --   1551.9823              1568.0541              1632.5483
 Red. masses --      2.4704                 4.9459                 6.1311
 Frc consts  --      3.5058                 7.1651                 9.6276
 IR Inten    --    119.7931                92.7052                58.4061

                     70                     71                     72
                      A                      A                      A
 Frequencies --   1649.6954              1663.0838              1682.2091
 Red. masses --      6.0496                 5.6761                 5.2131
 Frc consts  --      9.7002                 9.2498                 8.6917
 IR Inten    --      7.3111                47.2197               175.3641

                     73                     74                     75
                      A                      A                      A
 Frequencies --   2328.7869              3035.0758              3044.7829
 Red. masses --     12.6027                 1.0462                 1.0386
 Frc consts  --     40.2691                 5.6780                 5.6731
 IR Inten    --    124.8782                22.1168                42.1289

                     76                     77                     78
                      A                      A                      A
 Frequencies --   3092.0226              3093.8897              3139.9056
 Red. masses --      1.1010                 1.0923                 1.0990
 Frc consts  --      6.2019                 6.1605                 6.3837
 IR Inten    --     13.3213                12.3386                12.9223

                     79                     80                     81
                      A                      A                      A
 Frequencies --   3140.8058              3170.2192              3192.4062
 Red. masses --      1.0992                 1.0892                 1.0855
 Frc consts  --      6.3889                 6.4499                 6.5183
 IR Inten    --     13.4591                10.6496                 0.8078

                     82                     83                     84
                      A                      A                      A
 Frequencies --   3200.8886              3209.9716              3216.7130
 Red. masses --      1.0886                 1.0920                 1.0947
 Frc consts  --      6.5716                 6.6291                 6.6739
 IR Inten    --      5.2994                23.0451                14.0322

                     85                     86                     87
                      A                      A                      A
 Frequencies --   3221.6139              3227.1880              3252.0068
 Red. masses --      1.0980                 1.0869                 1.0962
 Frc consts  --      6.7141                 6.6693                 6.8303
 IR Inten    --      6.7751                 6.5129                 4.9777

 - Thermochemistry -
 -------------------
 Temperature   298.150 Kelvin.  Pressure   1.00000 Atm.
 Atom     1 has atomic number  6 and mass  12.00000

 Molecular mass:   222.11570 amu.
 Principal axes and moments of inertia in atomic units:
                           1         2         3
     Eigenvalues --  1616.854717907.160948976.71811
           X            1.00000  -0.00181   0.00071
           Y            0.00181   0.99999   0.00304
           Z           -0.00072  -0.00304   1.00000
 This molecule is an asymmetric top.
 Rotational symmetry number  1.
 Warning -- assumption of classical behavior for rotation
           may cause significant error
 Rotational temperatures (Kelvin)      0.05357     0.01095     0.00965
 Rotational constants (GHZ):           1.11620     0.22824     0.20105
 Zero-point vibrational energy     661900.5 (Joules/Mol)
                                  158.19801 (Kcal/Mol)
 Warning -- explicit consideration of  23 degrees of freedom as
           vibrations may cause significant error
 Vibrational temperatures:     42.82    70.58    79.36   110.23   129.18
          (Kelvin)            157.16   207.16   246.97   278.24   313.43
                              359.60   382.93   413.51   449.69   469.20
                              554.66   594.23   609.29   672.08   753.53
                              754.95   849.96   886.14   897.26   941.09
                              985.03  1024.92  1025.98  1061.78  1125.78
                             1154.51  1204.91  1234.35  1255.65  1348.01
                             1399.72  1440.03  1445.85  1449.61  1474.67
                             1487.98  1495.92  1523.96  1530.46  1536.58
                             1556.79  1597.35  1693.26  1719.54  1733.58
                             1744.61  1817.41  1881.30  1926.57  1945.71
                             1961.13  1977.34  2034.37  2078.62  2088.27
                             2110.36  2159.70  2170.57  2173.40  2190.50
                             2204.26  2232.96  2256.08  2348.87  2373.54
                             2392.81  2420.32  3350.60  4366.80  4380.76
                             4448.73  4451.42  4517.62  4518.92  4561.24
                             4593.16  4605.36  4618.43  4628.13  4635.18
                             4643.20  4678.91

 Zero-point correction=                           0.252105 (Hartree/Particle)
 Thermal correction to Energy=                    0.267850
 Thermal correction to Enthalpy=                  0.268794
 Thermal correction to Gibbs Free Energy=         0.207814
 Sum of electronic and zero-point Energies=           -689.319004
 Sum of electronic and thermal Energies=              -689.303259
 Sum of electronic and thermal Enthalpies=            -689.302315
 Sum of electronic and thermal Free Energies=         -689.363294

                     E (Thermal)             CV                S
                      KCal/Mol        Cal/Mol-Kelvin    Cal/Mol-Kelvin
 Total                  168.078             59.108            128.342
 Electronic               0.000              0.000              0.000
 Translational            0.889              2.981             42.097
 Rotational               0.889              2.981             33.106
 Vibrational            166.301             53.146             53.140
 Vibration     1          0.594              1.984              5.845
 Vibration     2          0.595              1.978              4.855
 Vibration     3          0.596              1.976              4.623
 Vibration     4          0.599              1.965              3.976
 Vibration     5          0.602              1.956              3.665
 Vibration     6          0.606              1.942              3.283
 Vibration     7          0.616              1.909              2.750
 Vibration     8          0.626              1.877              2.417
 Vibration     9          0.635              1.849              2.195
 Vibration    10          0.646              1.814              1.977
 Vibration    11          0.663              1.763              1.731
 Vibration    12          0.672              1.735              1.621
 Vibration    13          0.685              1.697              1.489
 Vibration    14          0.701              1.650              1.349
 Vibration    15          0.710              1.623              1.279
 Vibration    16          0.754              1.501              1.017
 Vibration    17          0.777              1.442              0.916
 Vibration    18          0.786              1.419              0.880
 Vibration    19          0.824              1.323              0.746
 Vibration    20          0.879              1.197              0.601
 Vibration    21          0.880              1.195              0.599
 Vibration    22          0.948              1.051              0.466
 Vibration    23          0.975              0.998              0.423

 Optimization completed.
    -- Stationary point found.
 Normal termination of Gaussian 16 at Sun Dec 13 16:22:02 2020.

 ----------------------------------------------------------------------
 # B3LYP/6-311++G(d,p) empiricaldispersion=gd3bj scf=xqc pop=npa geom=c
 heck
 ----------------------------------------------------------------------

 --------------------------------------
 CID_12894111_JID_7678_Energie_neutraal
 --------------------------------------
 Structure from the checkpoint file:  "JID_7678.chk"
 Charge =  0 Multiplicity = 1

 SCF Done:  E(RB3LYP) =  -689.747750700     A.U. after   16 cycles
 Normal termination of Gaussian 16 at Sun Dec 13 16:27:15 2020.

 ----------------------------------------------------------------------
 # B3LYP/6-311++G(d,p) empiricaldispersion=gd3bj scf=xqc pop=npa geom=c
 heck
 ----------------------------------------------------------------------

 ------------------------------------
 CID_12894111_JID_7678_Energie_kation
 ------------------------------------
 Structure from the checkpoint file:  "JID_7678.chk"
 Charge =  1 Multiplicity = 2

 SCF Done:  E(UB3LYP) =  -689.474915632     A.U. after   25 cycles
 Normal termination of Gaussian 16 at Sun Dec 13 16:39:16 2020.
 Gaussian 16:  ES64L-G16RevA.03 25-Dec-2016

 ----------------------------------------------------------------------
 # B3LYP/6-311++G(d,p) empiricaldispersion=gd3bj scf=xqc pop=npa geom=c
 heck
 ----------------------------------------------------------------------

 -----------------------------------
 CID_12894111_JID_7678_Energie_anion
 -----------------------------------
 Structure from the checkpoint file:  "JID_7678.chk"
 Charge = -1 Multiplicity = 2

                         Standard orientation:
 ---------------------------------------------------------------------
 Center     Atomic      Atomic             Coordinates (Angstroms)
 Number     Number       Type             X           Y           Z
 ---------------------------------------------------------------------
      1          6           0        1.394680    2.827349   -0.342198
      2          6           0        0.303660    1.823385   -0.166467
      3          6           0       -1.057558    1.971964   -0.160891
      4          6           0       -1.659759    0.676434   -0.016797
      5          6           0       -0.617516   -0.249542    0.072578
      6          7           0        0.565260    0.457828   -0.019922
      7          6           0        1.872063   -0.112556    0.005962
      8          6           0        2.298363   -0.919227   -1.051932
      9          6           0        3.577396   -1.473504   -1.026050
     10          6           0        4.432715   -1.213052    0.046118
     11          6           0        4.003883   -0.402927    1.099026
     12          6           0        2.721295    0.143663    1.084874
     13          6           0       -0.646306   -1.722810    0.311391
     14          6           0       -3.081231    0.449172    0.035713
     15          6           0       -3.746676   -0.731280   -0.027880
     16          6           0       -5.164652   -0.796646    0.052456
     17          7           0       -6.326492   -0.868302    0.117046
     18          1           0        0.953632    3.803456   -0.560616
     19          1           0        2.062338    2.562873   -1.171344
     20          1           0        2.020699    2.935106    0.551831
     21          1           0       -1.589503    2.907900   -0.270091
     22          1           0        1.626564   -1.099141   -1.885201
     23          1           0        3.907811   -2.102109   -1.847560
     24          1           0        5.430360   -1.641561    0.061784
     25          1           0        4.664288   -0.203037    1.937539
     26          1           0        2.366134    0.758290    1.905702
     27          1           0       -1.401268   -1.970078    1.065600
     28          1           0       -0.896029   -2.288062   -0.596846
     29          1           0        0.321089   -2.085906    0.667507
     30          1           0       -3.685502    1.350270    0.127153
     31          1           0       -3.234131   -1.677222   -0.160742
 ---------------------------------------------------------------------

 SCF Done:  E(UB3LYP) =  -689.756187022     A.U. after   33 cycles
 SCF Done:  E(UB3LYP) =  -689.756187022     a.u. after    1 cycles

 The electronic state is 2-A.
 Alpha  occ. eigenvalues --  -14.23726 -14.15176 -10.09332 -10.08007 -10.07431
 Alpha  occ. eigenvalues --  -10.07172 -10.07025 -10.06907 -10.06627 -10.06473
 Alpha  occ. eigenvalues --  -10.06221 -10.05736 -10.05663 -10.03938 -10.03757
 Alpha  occ. eigenvalues --  -10.03599 -10.03488  -0.86858  -0.75425  -0.75277
 Alpha  occ. eigenvalues --   -0.69246  -0.67172  -0.64860  -0.64471  -0.61587
 Alpha  occ. eigenvalues --   -0.60952  -0.54085  -0.52037  -0.50834  -0.48534
 Alpha  occ. eigenvalues --   -0.45192  -0.42532  -0.39748  -0.38536  -0.36287
 Alpha  occ. eigenvalues --   -0.36039  -0.34671  -0.32833  -0.32449  -0.31871
 Alpha  occ. eigenvalues --   -0.31701  -0.30885  -0.30152  -0.27989  -0.27488
 Alpha  occ. eigenvalues --   -0.26782  -0.25970  -0.25674  -0.25152  -0.24062
 Alpha  occ. eigenvalues --   -0.22886  -0.22669  -0.21698  -0.18378  -0.17069
 Alpha  occ. eigenvalues --   -0.15708  -0.15172  -0.10845  -0.07756   0.04212
 Alpha virt. eigenvalues --    0.06745   0.07533   0.08029   0.08389   0.08497
 Alpha virt. eigenvalues --    0.09229   0.10038   0.10543   0.10925   0.11802
 Alpha virt. eigenvalues --    0.12004   0.12512   0.13068   0.13837   0.14088

  Beta  occ. eigenvalues --  -14.23691 -14.14980 -10.09120 -10.08033 -10.07478
  Beta  occ. eigenvalues --  -10.07167 -10.07033 -10.06848 -10.06358 -10.06301
  Beta  occ. eigenvalues --  -10.06011 -10.05742 -10.05687 -10.03645 -10.03591
  Beta  occ. eigenvalues --  -10.03568 -10.03541  -0.86627  -0.75138  -0.75028
  Beta  occ. eigenvalues --   -0.68930  -0.66991  -0.64428  -0.64230  -0.61503
  Beta  occ. eigenvalues --   -0.60686  -0.53816  -0.51639  -0.50702  -0.48148
  Beta  occ. eigenvalues --   -0.45068  -0.42321  -0.39593  -0.38370  -0.36070
  Beta  occ. eigenvalues --   -0.35845  -0.34545  -0.32719  -0.32322  -0.31762
  Beta  occ. eigenvalues --   -0.31619  -0.30605  -0.30082  -0.27880  -0.27388
  Beta  occ. eigenvalues --   -0.26389  -0.25669  -0.25517  -0.24950  -0.23831
  Beta  occ. eigenvalues --   -0.22702  -0.21778  -0.21397  -0.18254  -0.16046
  Beta  occ. eigenvalues --   -0.15210  -0.13970  -0.10288  -0.06678
  Beta virt. eigenvalues --    0.06689   0.07789   0.08314   0.08585   0.08734
  Beta virt. eigenvalues --    0.09273   0.09995   0.10248   0.10493   0.10846
  Beta virt. eigenvalues --    0.11773   0.11946   0.12456   0.13046   0.13825

 Mulliken charges and spin densities:
               1          2
     1  C   -0.640657  -0.043566
     2  C    0.126154   0.004311
     3  C    0.281661   0.014126
     4  C    0.900931  -0.025299
     5  C   -1.006272   0.224529
     6  N    0.764503   0.010629
     7  C   -1.164799   0.047931
     8  C    0.119120   0.017016
     9  C   -0.206780   0.059243
    10  C   -0.441674   0.148354
    11  C   -0.185908  -0.027244
    12  C    0.440832   0.150118
    13  C   -0.832154  -0.044673
    14  C   -0.220125   0.199407
    15  C    0.702122   0.181013
    16  C   -1.176237  -0.025869
    17  N   -0.355930   0.104989
    18  H    0.134394   0.001874
    19  H    0.138375   0.002384
    20  H    0.117944   0.016010
    21  H    0.139182   0.000868
    22  H    0.154327   0.000520
    23  H    0.150240  -0.004304
    24  H    0.112704  -0.013645
    25  H    0.146606   0.003229
    26  H    0.160030  -0.009135
    27  H    0.133442   0.001644
    28  H    0.132416   0.033011
    29  H    0.144717   0.003014
    30  H    0.115697  -0.018127
    31  H    0.115138  -0.012359
 Sum of Mulliken charges =  -1.00000   1.00000

 Dipole moment (field-independent basis, Debye):
    X=             11.3690    Y=              1.7058    Z=             -0.2869  Tot=             11.4998
 Quadrupole moment (field-independent basis, Debye-Ang):
   XX=           -218.4260   YY=           -110.4671   ZZ=           -108.9649
   XY=             -9.0033   XZ=              2.4094   YZ=              1.9179

 Summary of Natural Population Analysis:

                                       Natural Population
                Natural  -----------------------------------------------
    Atom  No    Charge         Core      Valence    Rydberg      Total
 -----------------------------------------------------------------------
      C    1   -0.29768      0.99964     2.29394    0.00410     3.29768
      C    2    0.06134      0.99953     1.92871    0.01041     2.93866
      C    3   -0.12631      0.99947     2.11827    0.00857     3.12631
      C    4   -0.11388      0.99953     2.09818    0.01617     3.11388
      C    5    0.21782      0.99951     1.77216    0.01052     2.78218
      N    6   -0.21523      0.99960     2.70261    0.01302     3.71523
      C    7    0.10501      0.99947     1.88287    0.01265     2.89499
      C    8   -0.10451      0.99952     2.09686    0.00813     3.10451
      C    9   -0.09576      0.99958     2.08669    0.00949     3.09576
      C   10   -0.07460      0.99958     2.06564    0.00939     3.07460
      C   11   -0.11285      0.99958     2.10407    0.00920     3.11285
      C   12   -0.08498      0.99952     2.07726    0.00820     3.08498
      C   13   -0.32502      0.99968     2.31334    0.01199     3.32502
      C   14    0.00485      0.99954     1.98726    0.00835     2.99515
      C   15   -0.17006      0.99945     2.16259    0.00801     3.17006
      C   16    0.14197      0.99967     1.83989    0.01847     2.85803
      N   17   -0.19904      0.99979     2.68747    0.01178     3.69904
      H   18    0.10163      0.00000     0.39757    0.00080     0.39837
      H   19    0.10225      0.00000     0.39643    0.00132     0.39775
      H   20    0.09920      0.00000     0.39932    0.00148     0.40080
      H   21    0.09711      0.00000     0.40188    0.00101     0.40289
      H   22    0.10301      0.00000     0.39593    0.00106     0.39699
      H   23    0.09407      0.00000     0.40492    0.00101     0.40593
      H   24    0.09137      0.00000     0.40766    0.00098     0.40863
      H   25    0.09454      0.00000     0.40444    0.00102     0.40546
      H   26    0.10081      0.00000     0.39824    0.00095     0.39919
      H   27    0.10830      0.00000     0.39035    0.00135     0.39170
      H   28    0.10294      0.00000     0.39572    0.00134     0.39706
      H   29    0.10749      0.00000     0.39155    0.00096     0.39251
      H   30    0.08787      0.00000     0.41040    0.00173     0.41213
      H   31    0.10253      0.00000     0.39627    0.00120     0.39747
 =======================================================================
   * Total *    0.00420     16.99265    41.80848    0.19468    58.99580

 Normal termination of Gaussian 16 at Sun Dec 13 16:55:33 2020.
