 Gaussian 16, Revision A.03,

 -----------------------------------------------------------
 # opt freq B3LYP/6-31G(d) empiricaldispersion=gd3bj scf=xqc
 -----------------------------------------------------------

 ------------------------------
 CID_63896684_JID_9098_neutraal
 ------------------------------
 Symbolic Z-matrix:
 Charge =  0 Multiplicity = 1

 SCF Done:  E(RB3LYP) =  -842.200684935     A.U. after   13 cycles
 SCF Done:  E(RB3LYP) =  -842.207601646     A.U. after   12 cycles
 SCF Done:  E(RB3LYP) =  -842.208557494     A.U. after   11 cycles
 SCF Done:  E(RB3LYP) =  -842.208710196     A.U. after   11 cycles
 SCF Done:  E(RB3LYP) =  -842.208833498     A.U. after   11 cycles
 SCF Done:  E(RB3LYP) =  -842.208897374     A.U. after   10 cycles
 SCF Done:  E(RB3LYP) =  -842.208946819     A.U. after   11 cycles
 SCF Done:  E(RB3LYP) =  -842.208959725     A.U. after   10 cycles
 SCF Done:  E(RB3LYP) =  -842.208963143     A.U. after   10 cycles
 SCF Done:  E(RB3LYP) =  -842.208964313     A.U. after    9 cycles
 SCF Done:  E(RB3LYP) =  -842.208964436     A.U. after    6 cycles
 SCF Done:  E(RB3LYP) =  -842.208964463     A.U. after    6 cycles
 Optimization completed.
    -- Stationary point found.
 Normal termination of Gaussian 16 at Sun Dec 13 20:15:57 2020.

 --------------------------------------------------------------------
 #N Geom=AllCheck Guess=TCheck SCRF=Check GenChk RB3LYP/6-31G(d) Freq
 --------------------------------------------------------------------

 Structure from the checkpoint file:  "JID_9098.chk"
 ------------------------------
 CID_63896684_JID_9098_neutraal
 ------------------------------
 Charge =  0 Multiplicity = 1

 SCF Done:  E(RB3LYP) =  -842.208964463     A.U. after    1 cycles

  Exact polarizability: 252.593   2.257 163.159  -4.389  17.454 134.880
 Approx polarizability: 319.220   3.961 247.800  -9.502  44.794 210.125

                      1                      2                      3
                      A                      A                      A
 Frequencies --     22.0721                26.5510                52.9469
 Red. masses --      3.8672                 4.0082                 3.8697
 Frc consts  --      0.0011                 0.0017                 0.0064
 IR Inten    --      0.0080                 0.1443                 0.3366

                      4                      5                      6
                      A                      A                      A
 Frequencies --     72.1512                93.7364               108.3397
 Red. masses --      2.8253                 2.9447                 3.1284
 Frc consts  --      0.0087                 0.0152                 0.0216
 IR Inten    --      2.2106                 0.5128                 3.0878

                      7                      8                      9
                      A                      A                      A
 Frequencies --    141.9982               151.2343               168.9115
 Red. masses --      3.4287                 3.2019                 2.3145
 Frc consts  --      0.0407                 0.0431                 0.0389
 IR Inten    --      1.3634                 0.3146                 3.1654

                     10                     11                     12
                      A                      A                      A
 Frequencies --    178.4480               182.8668               202.2322
 Red. masses --      2.2960                 1.4578                 1.8005
 Frc consts  --      0.0431                 0.0287                 0.0434
 IR Inten    --      1.5710                 0.8093                 0.7899

                     13                     14                     15
                      A                      A                      A
 Frequencies --    240.9951               251.4293               268.9914
 Red. masses --      1.7825                 1.6967                 1.3386
 Frc consts  --      0.0610                 0.0632                 0.0571
 IR Inten    --      0.8022                 1.1430                 0.1014

                     16                     17                     18
                      A                      A                      A
 Frequencies --    301.1816               312.1257               313.7462
 Red. masses --      2.2639                 2.2208                 2.3836
 Frc consts  --      0.1210                 0.1275                 0.1382
 IR Inten    --     11.1865                 9.6506                10.1153

                     19                     20                     21
                      A                      A                      A
 Frequencies --    334.0627               352.9632               368.7009
 Red. masses --      1.9371                 2.1247                 3.2076
 Frc consts  --      0.1274                 0.1560                 0.2569
 IR Inten    --      9.7365                 7.2463                 5.3359

                     22                     23                     24
                      A                      A                      A
 Frequencies --    396.0921               407.6204               416.1251
 Red. masses --      3.2901                 2.8425                 3.0215
 Frc consts  --      0.3041                 0.2783                 0.3083
 IR Inten    --      7.4741                 7.0530                 4.1880

                     25                     26                     27
                      A                      A                      A
 Frequencies --    443.9507               468.4499               497.5994
 Red. masses --      3.5116                 3.1897                 3.3854
 Frc consts  --      0.4078                 0.4124                 0.4939
 IR Inten    --      0.4653                47.3706                 0.6065

                     28                     29                     30
                      A                      A                      A
 Frequencies --    502.0955               519.3217               557.2847
 Red. masses --      2.8627                 2.6308                 2.3984
 Frc consts  --      0.4252                 0.4180                 0.4389
 IR Inten    --     10.4366                19.1985                80.9211

                     31                     32                     33
                      A                      A                      A
 Frequencies --    586.4324               615.8298               651.7282
 Red. masses --      4.6268                 2.1901                 3.5434
 Frc consts  --      0.9375                 0.4894                 0.8868
 IR Inten    --     11.9334                34.4452                 9.0170

                     34                     35                     36
                      A                      A                      A
 Frequencies --    656.7018               724.3242               762.6130
 Red. masses --      2.5526                 3.0144                 2.0202
 Frc consts  --      0.6486                 0.9318                 0.6922
 IR Inten    --    105.4172                41.8178               127.4774

                     37                     38                     39
                      A                      A                      A
 Frequencies --    778.1067               799.4658               814.7512
 Red. masses --      3.1993                 2.3631                 2.2942
 Frc consts  --      1.1413                 0.8899                 0.8973
 IR Inten    --     48.6201                 4.7052                36.5199

                     40                     41                     42
                      A                      A                      A
 Frequencies --    837.7107               857.2298               862.8004
 Red. masses --      2.2004                 2.3385                 1.5162
 Frc consts  --      0.9098                 1.0125                 0.6650
 IR Inten    --     73.0529                18.0033                18.3235

                     43                     44                     45
                      A                      A                      A
 Frequencies --    900.1850               905.7161               929.4856
 Red. masses --      1.5019                 1.7661                 1.5145
 Frc consts  --      0.7171                 0.8536                 0.7709
 IR Inten    --      7.1389                 3.2749                 1.2894

                     46                     47                     48
                      A                      A                      A
 Frequencies --    955.4695              1003.7075              1051.1477
 Red. masses --      3.6233                 2.3578                 4.3386
 Frc consts  --      1.9489                 1.3995                 2.8244
 IR Inten    --      5.9704                 9.1305                70.7602

                     49                     50                     51
                      A                      A                      A
 Frequencies --   1055.8644              1074.9339              1092.8200
 Red. masses --      2.3585                 1.7897                 1.8311
 Frc consts  --      1.5492                 1.2184                 1.2884
 IR Inten    --     11.6197                 0.2065                15.7570

                     52                     53                     54
                      A                      A                      A
 Frequencies --   1100.9921              1104.1986              1117.8640
 Red. masses --      1.9151                 1.8795                 2.0137
 Frc consts  --      1.3678                 1.3502                 1.4826
 IR Inten    --      6.8254                17.7295                 2.0553

                     55                     56                     57
                      A                      A                      A
 Frequencies --   1130.9177              1137.7708              1158.0133
 Red. masses --      2.0523                 2.6251                 1.3830
 Frc consts  --      1.5465                 2.0022                 1.0927
 IR Inten    --     64.4634                12.4427                22.7555

                     58                     59                     60
                      A                      A                      A
 Frequencies --   1181.3557              1185.2620              1190.1433
 Red. masses --      2.1078                 1.4300                 1.2785
 Frc consts  --      1.7331                 1.1836                 1.0669
 IR Inten    --     44.9265                35.9816                 1.8520

                     61                     62                     63
                      A                      A                      A
 Frequencies --   1193.4441              1203.0494              1208.8076
 Red. masses --      1.9436                 1.5782                 2.5004
 Frc consts  --      1.6311                 1.3458                 2.1526
 IR Inten    --     23.7782                58.1774                54.4834

                     64                     65                     66
                      A                      A                      A
 Frequencies --   1222.1499              1234.1265              1256.4215
 Red. masses --      1.3794                 1.6803                 1.4404
 Frc consts  --      1.2139                 1.5079                 1.3396
 IR Inten    --      7.6110                88.8753                 8.0274

                     67                     68                     69
                      A                      A                      A
 Frequencies --   1272.3313              1281.9529              1306.0562
 Red. masses --      1.9082                 1.5408                 2.7798
 Frc consts  --      1.8200                 1.4919                 2.7937
 IR Inten    --     33.2227                37.6076                 0.0655

                     70                     71                     72
                      A                      A                      A
 Frequencies --   1322.3875              1336.4336              1343.7659
 Red. masses --      2.9190                 1.4211                 1.4200
 Frc consts  --      3.0075                 1.4954                 1.5108
 IR Inten    --     73.4508                28.1086                87.1489

                     73                     74                     75
                      A                      A                      A
 Frequencies --   1348.4516              1361.3873              1372.5537
 Red. masses --      1.7475                 1.3474                 1.3749
 Frc consts  --      1.8722                 1.4713                 1.5261
 IR Inten    --     14.1960                 5.6196                 4.0740

                     76                     77                     78
                      A                      A                      A
 Frequencies --   1392.8614              1410.4869              1422.6330
 Red. masses --      3.2309                 1.4960                 1.4710
 Frc consts  --      3.6931                 1.7535                 1.7541
 IR Inten    --     18.8316                20.0186                 6.3959

                     79                     80                     81
                      A                      A                      A
 Frequencies --   1433.6861              1446.2369              1458.6967
 Red. masses --      1.4709                 1.6016                 2.1278
 Frc consts  --      1.7814                 1.9737                 2.6675
 IR Inten    --     17.3895                 1.5469                10.9658

                     82                     83                     84
                      A                      A                      A
 Frequencies --   1484.2693              1488.5890              1496.9601
 Red. masses --      1.2125                 1.1876                 1.1851
 Frc consts  --      1.5739                 1.5505                 1.5646
 IR Inten    --      1.3012                 2.9314                 3.2266

                     85                     86                     87
                      A                      A                      A
 Frequencies --   1512.6288              1515.0295              1516.9064
 Red. masses --      1.0857                 1.0523                 1.0497
 Frc consts  --      1.4635                 1.4231                 1.4231
 IR Inten    --      1.3389                17.5105                 5.0731

                     88                     89                     90
                      A                      A                      A
 Frequencies --   1521.3536              1530.5010              1534.9695
 Red. masses --      1.0912                 1.0759                 1.0612
 Frc consts  --      1.4880                 1.4849                 1.4731
 IR Inten    --      5.4563                10.9680                23.8535

                     91                     92                     93
                      A                      A                      A
 Frequencies --   1536.4904              1537.1681              1537.9411
 Red. masses --      1.0527                 1.1075                 1.0560
 Frc consts  --      1.4642                 1.5418                 1.4716
 IR Inten    --      2.9002                14.8382                 2.5653

                     94                     95                     96
                      A                      A                      A
 Frequencies --   1549.7308              1554.2950              1566.9304
 Red. masses --      1.7532                 1.2074                 2.4863
 Frc consts  --      2.4808                 1.7186                 3.5967
 IR Inten    --    104.8798                68.5425               216.5301

                     97                     98                     99
                      A                      A                      A
 Frequencies --   1646.8527              1666.8901              1697.0711
 Red. masses --      5.1170                 1.3940                 3.2640
 Frc consts  --      8.1767                 2.2821                 5.5386
 IR Inten    --     15.3476               105.4830                17.5626

                    100                    101                    102
                      A                      A                      A
 Frequencies --   2883.5826              2921.7816              2925.9422
 Red. masses --      1.0793                 1.0737                 1.0706
 Frc consts  --      5.2874                 5.4005                 5.4000
 IR Inten    --     45.3057                39.4305                21.0701

                    103                    104                    105
                      A                      A                      A
 Frequencies --   2935.4286              2943.0000              2947.0220
 Red. masses --      1.0673                 1.0636                 1.0662
 Frc consts  --      5.4185                 5.4274                 5.4558
 IR Inten    --     35.1537                27.7538               261.9942

                    106                    107                    108
                      A                      A                      A
 Frequencies --   3005.2580              3031.2079              3073.9385
 Red. masses --      1.0682                 1.0324                 1.0824
 Frc consts  --      5.6840                 5.5891                 6.0261
 IR Inten    --     56.5076                59.4010                 7.6915

                    109                    110                    111
                      A                      A                      A
 Frequencies --   3075.1563              3076.5739              3081.0398
 Red. masses --      1.0929                 1.0785                 1.0867
 Frc consts  --      6.0892                 6.0147                 6.0780
 IR Inten    --     25.4259                70.0815                49.5355

                    112                    113                    114
                      A                      A                      A
 Frequencies --   3095.8658              3096.2703              3116.1484
 Red. masses --      1.0732                 1.1056                 1.0901
 Frc consts  --      6.0601                 6.2446                 6.2368
 IR Inten    --     51.4194                29.5699                 8.6981

                    115                    116                    117
                      A                      A                      A
 Frequencies --   3120.6427              3141.1962              3145.0906
 Red. masses --      1.1013                 1.1004                 1.1032
 Frc consts  --      6.3191                 6.3972                 6.4294
 IR Inten    --     47.8232                38.5711                39.7058

                    118                    119                    120
                      A                      A                      A
 Frequencies --   3174.8916              3189.5030              3221.7211
 Red. masses --      1.0889                 1.0904                 1.0909
 Frc consts  --      6.4671                 6.5355                 6.6711
 IR Inten    --     26.1650                 6.9585                15.4866

                    121                    122                    123
                      A                      A                      A
 Frequencies --   3519.0491              3544.1258              3619.4347
 Red. masses --      1.0481                 1.0747                 1.0964
 Frc consts  --      7.6472                 7.9532                 8.4622
 IR Inten    --      7.7565                 3.1295                 8.7750

 - Thermochemistry -
 -------------------
 Temperature   298.150 Kelvin.  Pressure   1.00000 Atm.
 Atom     1 has atomic number  6 and mass  12.00000

 Molecular mass:   264.19501 amu.
 Principal axes and moments of inertia in atomic units:
                           1         2         3
     Eigenvalues --  2146.99896********************
           X            0.99999  -0.00190   0.00356
           Y            0.00195   0.99989  -0.01489
           Z           -0.00353   0.01490   0.99988
 This molecule is an asymmetric top.
 Rotational symmetry number  1.
 Warning -- assumption of classical behavior for rotation
           may cause significant error
 Rotational temperatures (Kelvin)      0.04034     0.00646     0.00602
 Rotational constants (GHZ):           0.84059     0.13454     0.12544
 Zero-point vibrational energy     999983.2 (Joules/Mol)
                                  239.00172 (Kcal/Mol)
 Warning -- explicit consideration of  32 degrees of freedom as
           vibrations may cause significant error
 Vibrational temperatures:     31.76    38.20    76.18   103.81   134.87
          (Kelvin)            155.88   204.30   217.59   243.03   256.75
                              263.10   290.97   346.74   361.75   387.02
                              433.33   449.08   451.41   480.64   507.84
                              530.48   569.89   586.47   598.71   638.75
                              673.99   715.93   722.40   747.19   801.81
                              843.75   886.04   937.69   944.85  1042.14
                             1097.23  1119.52  1150.25  1172.25  1205.28
                             1233.36  1241.38  1295.17  1303.12  1337.32
                             1374.71  1444.11  1512.37  1519.15  1546.59
                             1572.32  1584.08  1588.70  1608.36  1627.14
                             1637.00  1666.12  1699.71  1705.33  1712.35
                             1717.10  1730.92  1739.20  1758.40  1775.63
                             1807.71  1830.60  1844.44  1879.12  1902.62
                             1922.83  1933.38  1940.12  1958.73  1974.80
                             2004.02  2029.38  2046.85  2062.75  2080.81
                             2098.74  2135.53  2141.75  2153.79  2176.34
                             2179.79  2182.49  2188.89  2202.05  2208.48
                             2210.67  2211.64  2212.75  2229.72  2236.28
                             2254.46  2369.45  2398.28  2441.71  4148.83
                             4203.79  4209.78  4223.43  4234.32  4240.11
                             4323.90  4361.23  4422.71  4424.46  4426.50
                             4432.93  4454.26  4454.84  4483.44  4489.91
                             4519.48  4525.08  4567.96  4588.98  4635.34
                             5063.13  5099.21  5207.56

 Zero-point correction=                           0.380873 (Hartree/Particle)
 Thermal correction to Energy=                    0.400284
 Thermal correction to Enthalpy=                  0.401228
 Thermal correction to Gibbs Free Energy=         0.332468
 Sum of electronic and zero-point Energies=           -841.828091
 Sum of electronic and thermal Energies=              -841.808681
 Sum of electronic and thermal Enthalpies=            -841.807737
 Sum of electronic and thermal Free Energies=         -841.876496

                     E (Thermal)             CV                S
                      KCal/Mol        Cal/Mol-Kelvin    Cal/Mol-Kelvin
 Total                  251.182             74.749            144.716
 Electronic               0.000              0.000              0.000
 Translational            0.889              2.981             42.614
 Rotational               0.889              2.981             34.382
 Vibrational            249.404             68.788             67.720
 Vibration     1          0.593              1.985              6.438
 Vibration     2          0.593              1.984              6.072
 Vibration     3          0.596              1.976              4.704
 Vibration     4          0.598              1.967              4.094
 Vibration     5          0.603              1.954              3.581
 Vibration     6          0.606              1.943              3.298
 Vibration     7          0.615              1.911              2.777
 Vibration     8          0.619              1.901              2.657
 Vibration     9          0.625              1.881              2.448
 Vibration    10          0.629              1.869              2.345
 Vibration    11          0.630              1.863              2.299
 Vibration    12          0.639              1.837              2.113
 Vibration    13          0.658              1.778              1.796
 Vibration    14          0.663              1.760              1.721
 Vibration    15          0.673              1.730              1.603
 Vibration    16          0.693              1.671              1.410
 Vibration    17          0.700              1.651              1.351
 Vibration    18          0.702              1.647              1.342
 Vibration    19          0.716              1.607              1.240
 Vibration    20          0.729              1.569              1.153
 Vibration    21          0.741              1.537              1.085
 Vibration    22          0.763              1.479              0.977
 Vibration    23          0.772              1.454              0.935
 Vibration    24          0.779              1.435              0.905
 Vibration    25          0.803              1.374              0.814
 Vibration    26          0.826              1.320              0.742
 Vibration    27          0.853              1.255              0.664
 Vibration    28          0.857              1.245              0.653
 Vibration    29          0.874              1.207              0.612
 Vibration    30          0.913              1.124              0.529
 Vibration    31          0.944              1.061              0.474
 Vibration    32          0.975              0.998              0.423

 Optimization completed.
    -- Stationary point found.
 Normal termination of Gaussian 16 at Sun Dec 13 20:37:28 2020.

 ----------------------------------------------------------------------
 # B3LYP/6-311++G(d,p) empiricaldispersion=gd3bj scf=xqc pop=npa geom=c
 heck
 ----------------------------------------------------------------------

 --------------------------------------
 CID_63896684_JID_9098_Energie_neutraal
 --------------------------------------
 Structure from the checkpoint file:  "JID_9098.chk"
 Charge =  0 Multiplicity = 1

 SCF Done:  E(RB3LYP) =  -842.449001017     A.U. after   15 cycles
 Normal termination of Gaussian 16 at Sun Dec 13 20:48:14 2020.

 ----------------------------------------------------------------------
 # B3LYP/6-311++G(d,p) empiricaldispersion=gd3bj scf=xqc pop=npa geom=c
 heck
 ----------------------------------------------------------------------

 ------------------------------------
 CID_63896684_JID_9098_Energie_kation
 ------------------------------------
 Structure from the checkpoint file:  "JID_9098.chk"
 Charge =  1 Multiplicity = 2

 SCF Done:  E(UB3LYP) =  -842.203989798     A.U. after   25 cycles
 Normal termination of Gaussian 16 at Sun Dec 13 21:14:12 2020.
 Gaussian 16:  ES64L-G16RevA.03 25-Dec-2016

 ----------------------------------------------------------------------
 # B3LYP/6-311++G(d,p) empiricaldispersion=gd3bj scf=xqc pop=npa geom=c
 heck
 ----------------------------------------------------------------------

 -----------------------------------
 CID_63896684_JID_9098_Energie_anion
 -----------------------------------
 Structure from the checkpoint file:  "JID_9098.chk"
 Charge = -1 Multiplicity = 2

                         Standard orientation:
 ---------------------------------------------------------------------
 Center     Atomic      Atomic             Coordinates (Angstroms)
 Number     Number       Type             X           Y           Z
 ---------------------------------------------------------------------
      1          6           0       -4.334120    2.645158   -0.830955
      2          7           0       -4.011857    1.439237   -0.087745
      3          6           0       -5.026644    0.408564   -0.256158
      4          6           0       -4.676810   -0.802361    0.595877
      5          7           0       -3.363606   -1.343706    0.240547
      6          6           0       -2.330502   -0.310224    0.384971
      7          6           0       -2.708595    0.909859   -0.463328
      8          6           0       -0.951398   -0.828273   -0.042716
      9          7           0        0.046883    0.219850    0.106067
     10          6           0        1.396910   -0.068374   -0.148689
     11          6           0        2.388091    0.802445    0.337149
     12          6           0        3.728386    0.577672    0.063970
     13          6           0        4.147802   -0.519328   -0.711898
     14          6           0        3.160146   -1.382290   -1.188971
     15          6           0        1.807828   -1.172211   -0.908921
     16          7           0        5.523722   -0.725205   -0.926393
     17          8           0        4.687033    1.464209    0.529879
     18          6           0        5.284514    1.044640    1.759572
     19          6           0       -3.100088   -2.548852    1.017515
     20          1           0       -4.394433    2.478251   -1.924511
     21          1           0       -5.299374    3.038392   -0.493482
     22          1           0       -3.569358    3.407210   -0.646366
     23          1           0       -5.997243    0.808812    0.059938
     24          1           0       -5.118973    0.094841   -1.315241
     25          1           0       -5.424394   -1.587678    0.437173
     26          1           0       -4.717319   -0.510913    1.663698
     27          1           0       -2.268315    0.018097    1.445275
     28          1           0       -2.680466    0.608969   -1.530279
     29          1           0       -1.954453    1.689125   -0.327361
     30          1           0       -0.673282   -1.724359    0.532263
     31          1           0       -1.009626   -1.126455   -1.095919
     32          1           0       -0.073741    0.740415    0.968459
     33          1           0        2.118860    1.679187    0.920424
     34          1           0        3.451055   -2.243225   -1.786721
     35          1           0        1.077745   -1.871522   -1.299611
     36          1           0        6.031093    0.154224   -0.926141
     37          1           0        5.718830   -1.245531   -1.774543
     38          1           0        4.532442    0.986383    2.557069
     39          1           0        5.770339    0.067465    1.650403
     40          1           0        6.030299    1.800886    2.016695
     41          1           0       -2.945338   -2.343959    2.094985
     42          1           0       -3.956858   -3.223413    0.923189
     43          1           0       -2.222870   -3.078658    0.639734
 ---------------------------------------------------------------------

 SCF Done:  E(UB3LYP) =  -842.435231939     A.U. after   33 cycles
 SCF Done:  E(UB3LYP) =  -842.435231939     a.u. after    1 cycles

 The electronic state is 2-A.
 Alpha  occ. eigenvalues --  -19.05517 -14.23521 -14.22787 -14.22520 -14.22274
 Alpha  occ. eigenvalues --  -10.13400 -10.13298 -10.12317 -10.12130 -10.11816
 Alpha  occ. eigenvalues --  -10.11528 -10.10847 -10.10819 -10.10809 -10.10774
 Alpha  occ. eigenvalues --  -10.10567 -10.08209 -10.08173 -10.07989  -0.96965
 Alpha  occ. eigenvalues --   -0.87175  -0.84945  -0.82795  -0.82223  -0.74539
 Alpha  occ. eigenvalues --   -0.69647  -0.66385  -0.66236  -0.63934  -0.60237
 Alpha  occ. eigenvalues --   -0.59993  -0.59260  -0.55234  -0.53583  -0.52039
 Alpha  occ. eigenvalues --   -0.49610  -0.47741  -0.44903  -0.43456  -0.41730
 Alpha  occ. eigenvalues --   -0.41252  -0.40592  -0.39732  -0.38990  -0.37745
 Alpha  occ. eigenvalues --   -0.37445  -0.37389  -0.36577  -0.35966  -0.35154
 Alpha  occ. eigenvalues --   -0.34696  -0.34314  -0.32478  -0.31799  -0.31661
 Alpha  occ. eigenvalues --   -0.31220  -0.30589  -0.29437  -0.28910  -0.28088
 Alpha  occ. eigenvalues --   -0.27605  -0.26617  -0.25718  -0.25450  -0.25182
 Alpha  occ. eigenvalues --   -0.23527  -0.19662  -0.17729  -0.15944  -0.14475
 Alpha  occ. eigenvalues --   -0.14284  -0.09801   0.03827
 Alpha virt. eigenvalues --    0.04862   0.05761   0.05898   0.06591   0.07112
 Alpha virt. eigenvalues --    0.07358   0.07914   0.08018   0.08890   0.09031
 Alpha virt. eigenvalues --    0.09469   0.09908   0.10124   0.10513   0.10740

  Beta  occ. eigenvalues --  -19.05514 -14.23518 -14.22777 -14.22514 -14.22231
  Beta  occ. eigenvalues --  -10.13398 -10.13274 -10.12312 -10.12132 -10.11811
  Beta  occ. eigenvalues --  -10.11526 -10.10830 -10.10804 -10.10793 -10.10771
  Beta  occ. eigenvalues --  -10.10547 -10.08195 -10.08162 -10.07983  -0.96959
  Beta  occ. eigenvalues --   -0.87159  -0.84937  -0.82776  -0.82173  -0.74516
  Beta  occ. eigenvalues --   -0.69628  -0.66363  -0.66212  -0.63907  -0.60207
  Beta  occ. eigenvalues --   -0.59958  -0.59224  -0.55201  -0.53550  -0.52004
  Beta  occ. eigenvalues --   -0.49588  -0.47711  -0.44879  -0.43425  -0.41690
  Beta  occ. eigenvalues --   -0.41212  -0.40574  -0.39711  -0.38966  -0.37717
  Beta  occ. eigenvalues --   -0.37421  -0.37362  -0.36545  -0.35945  -0.35127
  Beta  occ. eigenvalues --   -0.34675  -0.34288  -0.32458  -0.31779  -0.31636
  Beta  occ. eigenvalues --   -0.31195  -0.30567  -0.29411  -0.28890  -0.28068
  Beta  occ. eigenvalues --   -0.27581  -0.26595  -0.25697  -0.25424  -0.25157
  Beta  occ. eigenvalues --   -0.23505  -0.19652  -0.17705  -0.15915  -0.14426
  Beta  occ. eigenvalues --   -0.14252  -0.09778
  Beta virt. eigenvalues --    0.05583   0.05919   0.06215   0.06438   0.07027
  Beta virt. eigenvalues --    0.07396   0.07455   0.08229   0.08364   0.09052
  Beta virt. eigenvalues --    0.09347   0.09634   0.10057   0.10236   0.10678

 Mulliken charges and spin densities:
               1          2
     1  C    0.025238  -0.295104
     2  N    0.015743   0.129458
     3  C    0.194486  -0.586467
     4  C    0.260069  -0.416598
     5  N    0.093420   0.138996
     6  C   -0.051180  -0.391422
     7  C   -0.166072  -0.238536
     8  C   -0.643701  -0.163525
     9  N    0.235360   0.007352
    10  C    0.601673  -0.912426
    11  C   -1.683520   1.625994
    12  C    0.344778  -0.573504
    13  C    0.896743  -0.969181
    14  C   -1.556689   1.255856
    15  C    1.415898  -1.259226
    16  N   -0.370767   0.035875
    17  O   -0.202071   0.020754
    18  C    0.245967  -0.585238
    19  C    0.215779  -0.540325
    20  H    0.032506   0.077282
    21  H   -0.106756   0.249024
    22  H   -0.074114   0.184863
    23  H   -0.424982   0.603124
    24  H    0.185967  -0.076679
    25  H   -0.429001   0.597313
    26  H    0.168801  -0.048898
    27  H   -0.064272   0.214246
    28  H    0.056298   0.064990
    29  H    0.344692  -0.139952
    30  H    0.244159  -0.053041
    31  H    0.187396   0.044810
    32  H    0.227879   0.006218
    33  H   -0.116365   0.272590
    34  H   -0.409540   0.578372
    35  H    0.094322   0.016305
    36  H    0.012657   0.251310
    37  H   -0.265451   0.515181
    38  H    0.009823   0.119104
    39  H   -0.051449   0.214775
    40  H   -0.151740   0.300631
    41  H   -0.043118   0.167601
    42  H   -0.161840   0.299806
    43  H   -0.137025   0.258296
 Sum of Mulliken charges =  -1.00000   1.00000

 Dipole moment (field-independent basis, Debye):
    X=             -1.3078    Y=              1.6716    Z=              1.0048  Tot=              2.3482
 Quadrupole moment (field-independent basis, Debye-Ang):
   XX=           -279.1622   YY=           -163.5152   ZZ=           -150.7273
   XY=              1.3456   XZ=             13.9373   YZ=             -1.4387

 Summary of Natural Population Analysis:

                                       Natural Population
                Natural  -----------------------------------------------
    Atom  No    Charge         Core      Valence    Rydberg      Total
 -----------------------------------------------------------------------
      C    1   -0.17531      0.99965     2.16743    0.00823     3.17531
      N    2   -0.27730      0.99971     2.76635    0.01124     3.77730
      C    3   -0.08887      0.99961     2.07622    0.01303     3.08887
      C    4   -0.08757      0.99961     2.07511    0.01286     3.08757
      N    5   -0.27942      0.99970     2.76804    0.01169     3.77942
      C    6   -0.00776      0.99958     1.99554    0.01265     3.00776
      C    7   -0.08700      0.99958     2.07723    0.01019     3.08700
      C    8   -0.08880      0.99960     2.07951    0.00969     3.08880
      N    9   -0.31703      0.99968     2.80827    0.00908     3.81703
      C   10    0.07894      0.99950     1.91171    0.00985     2.92106
      C   11   -0.12894      0.99948     2.12156    0.00790     3.12894
      C   12    0.14093      0.99933     1.84636    0.01338     2.85907
      C   13    0.05039      0.99943     1.93856    0.01162     2.94961
      C   14   -0.10999      0.99954     2.10030    0.01015     3.10999
      C   15   -0.12745      0.99953     2.12044    0.00747     3.12745
      N   16   -0.40231      0.99973     2.89159    0.01100     3.90231
      O   17   -0.29602      0.99987     3.28609    0.01007     4.29602
      C   18   -0.09745      0.99959     2.08976    0.00809     3.09745
      C   19   -0.17863      0.99965     2.17022    0.00877     3.17863
      H   20    0.07982      0.00000     0.41899    0.00120     0.42018
      H   21    0.09649      0.00000     0.40250    0.00101     0.40351
      H   22    0.09485      0.00000     0.40418    0.00097     0.40515
      H   23    0.09949      0.00000     0.39903    0.00149     0.40051
      H   24    0.08157      0.00000     0.41667    0.00176     0.41843
      H   25    0.09966      0.00000     0.39890    0.00144     0.40034
      H   26    0.08291      0.00000     0.41519    0.00190     0.41709
      H   27    0.07997      0.00000     0.41749    0.00255     0.42003
      H   28    0.08295      0.00000     0.41539    0.00166     0.41705
      H   29    0.10372      0.00000     0.39473    0.00155     0.39628
      H   30    0.09078      0.00000     0.40760    0.00162     0.40922
      H   31    0.09591      0.00000     0.40164    0.00245     0.40409
      H   32    0.17916      0.00000     0.31821    0.00262     0.32084
      H   33    0.10261      0.00000     0.39597    0.00142     0.39739
      H   34    0.10055      0.00000     0.39840    0.00105     0.39945
      H   35    0.10265      0.00000     0.39636    0.00099     0.39735
      H   36    0.18765      0.00000     0.30994    0.00241     0.31235
      H   37    0.18570      0.00000     0.31055    0.00376     0.31430
      H   38    0.08057      0.00000     0.41764    0.00179     0.41943
      H   39    0.08822      0.00000     0.41001    0.00177     0.41178
      H   40    0.08818      0.00000     0.41030    0.00152     0.41182
      H   41    0.08194      0.00000     0.41690    0.00117     0.41806
      H   42    0.09842      0.00000     0.40051    0.00107     0.40158
      H   43    0.09587      0.00000     0.40292    0.00121     0.40413
 =======================================================================
   * Total *    0.00000     18.99236    52.77028    0.23737    72.00000

 Normal termination of Gaussian 16 at Sun Dec 13 21:47:36 2020.
