 Gaussian 16, Revision A.03,

 -----------------------------------------------------------
 # opt freq B3LYP/6-31G(d) empiricaldispersion=gd3bj scf=xqc
 -----------------------------------------------------------

 -------------------------------
 CID_133681936_JID_2723_neutraal
 -------------------------------
 Symbolic Z-matrix:
 Charge =  0 Multiplicity = 1

 SCF Done:  E(RB3LYP) =  -573.246327453     A.U. after   15 cycles
 SCF Done:  E(RB3LYP) =  -573.249023413     A.U. after   12 cycles
 SCF Done:  E(RB3LYP) =  -573.249214372     A.U. after   12 cycles
 SCF Done:  E(RB3LYP) =  -573.249287841     A.U. after   10 cycles
 SCF Done:  E(RB3LYP) =  -573.249307912     A.U. after   10 cycles
 SCF Done:  E(RB3LYP) =  -573.249312309     A.U. after   10 cycles
 SCF Done:  E(RB3LYP) =  -573.249312947     A.U. after    8 cycles
 SCF Done:  E(RB3LYP) =  -573.249313309     A.U. after    8 cycles
 SCF Done:  E(RB3LYP) =  -573.249313407     A.U. after    7 cycles
 Optimization completed.
    -- Stationary point found.
 Normal termination of Gaussian 16 at Wed Dec  9 17:51:34 2020.

 --------------------------------------------------------------------
 #N Geom=AllCheck Guess=TCheck SCRF=Check GenChk RB3LYP/6-31G(d) Freq
 --------------------------------------------------------------------

 Structure from the checkpoint file:  "JID_2723.chk"
 -------------------------------
 CID_133681936_JID_2723_neutraal
 -------------------------------
 Charge =  0 Multiplicity = 1

 SCF Done:  E(RB3LYP) =  -573.249313407     A.U. after    1 cycles

  Exact polarizability: 147.158  -3.751 100.048   4.480  -4.125  76.081
 Approx polarizability: 202.277 -13.173 143.019  12.217  -9.370 111.796

                      1                      2                      3
                      A                      A                      A
 Frequencies --     42.8287                58.3659                94.0018
 Red. masses --      4.2553                 3.2134                 6.0806
 Frc consts  --      0.0046                 0.0064                 0.0317
 IR Inten    --      0.8478                 1.4085                 0.5760

                      4                      5                      6
                      A                      A                      A
 Frequencies --    117.7328               118.3118               155.3915
 Red. masses --      4.1177                 1.0515                 3.0674
 Frc consts  --      0.0336                 0.0087                 0.0436
 IR Inten    --      2.3251                 0.1300                 1.0066

                      7                      8                      9
                      A                      A                      A
 Frequencies --    221.2160               226.5458               241.1398
 Red. masses --      1.0414                 3.1639                 2.9522
 Frc consts  --      0.0300                 0.0957                 0.1011
 IR Inten    --      0.7126                 4.4792                 0.8832

                     10                     11                     12
                      A                      A                      A
 Frequencies --    306.9401               353.9295               386.5952
 Red. masses --      3.3724                 6.5068                 2.9653
 Frc consts  --      0.1872                 0.4802                 0.2611
 IR Inten    --      6.7190                 1.4374                 7.7342

                     13                     14                     15
                      A                      A                      A
 Frequencies --    418.9796               475.7864               512.9722
 Red. masses --      1.9836                 3.9850                 2.3604
 Frc consts  --      0.2052                 0.5315                 0.3660
 IR Inten    --      3.6792                 3.3016                13.8965

                     16                     17                     18
                      A                      A                      A
 Frequencies --    527.8177               561.3172               594.8383
 Red. masses --      1.3595                 3.9447                 4.5148
 Frc consts  --      0.2231                 0.7323                 0.9412
 IR Inten    --     29.5250                 1.3587                50.3541

                     19                     20                     21
                      A                      A                      A
 Frequencies --    602.7117               635.3999               728.2953
 Red. masses --      2.2616                 3.2383                 2.7826
 Frc consts  --      0.4840                 0.7703                 0.8696
 IR Inten    --     40.1133                 3.9966                20.3920

                     22                     23                     24
                      A                      A                      A
 Frequencies --    760.0770               858.0428               874.3438
 Red. masses --      3.3813                 3.7350                 2.4848
 Frc consts  --      1.1509                 1.6202                 1.1192
 IR Inten    --      1.4235                17.8571                 7.2148

                     25                     26                     27
                      A                      A                      A
 Frequencies --    894.4422               929.0305               970.4140
 Red. masses --      2.5400                 1.7514                 2.0348
 Frc consts  --      1.1972                 0.8906                 1.1290
 IR Inten    --      2.4688                 5.7081                 1.8109

                     28                     29                     30
                      A                      A                      A
 Frequencies --    995.1481              1043.2735              1058.8470
 Red. masses --      1.8910                 1.6084                 2.0833
 Frc consts  --      1.1034                 1.0314                 1.3762
 IR Inten    --     45.7943                16.7731                12.8325

                     31                     32                     33
                      A                      A                      A
 Frequencies --   1068.9333              1071.6071              1106.6242
 Red. masses --      1.7168                 1.6761                 2.0171
 Frc consts  --      1.1557                 1.1340                 1.4554
 IR Inten    --      5.7347                 4.7305                 4.5340

                     34                     35                     36
                      A                      A                      A
 Frequencies --   1149.4731              1152.1335              1168.9838
 Red. masses --      3.2078                 4.0366                 2.2802
 Frc consts  --      2.4972                 3.1570                 1.8358
 IR Inten    --     82.9939                52.3260                26.6363

                     37                     38                     39
                      A                      A                      A
 Frequencies --   1242.7458              1263.4721              1284.7645
 Red. masses --      1.2285                 1.9481                 1.6418
 Frc consts  --      1.1179                 1.8322                 1.5967
 IR Inten    --     24.1542                62.5025                57.6668

                     40                     41                     42
                      A                      A                      A
 Frequencies --   1329.8198              1337.5535              1358.4568
 Red. masses --      1.3267                 1.6915                 1.6446
 Frc consts  --      1.3823                 1.7830                 1.7881
 IR Inten    --      3.2826                29.4412               161.5554

                     43                     44                     45
                      A                      A                      A
 Frequencies --   1361.3149              1387.8821              1402.3663
 Red. masses --      1.5490                 1.3953                 1.2804
 Frc consts  --      1.6913                 1.5835                 1.4836
 IR Inten    --     21.2305                28.9020                14.0913

                     46                     47                     48
                      A                      A                      A
 Frequencies --   1426.0409              1432.2416              1447.1756
 Red. masses --      1.3671                 1.3222                 1.2978
 Frc consts  --      1.6380                 1.5980                 1.6014
 IR Inten    --     78.9715                12.4024                 9.0932

                     49                     50                     51
                      A                      A                      A
 Frequencies --   1485.3941              1494.2394              1501.1269
 Red. masses --      1.4018                 1.0832                 1.3988
 Frc consts  --      1.8223                 1.4249                 1.8571
 IR Inten    --    101.7868                 9.1963                28.4456

                     52                     53                     54
                      A                      A                      A
 Frequencies --   1503.4860              1517.7618              1526.7583
 Red. masses --      1.0470                 1.0707                 1.0602
 Frc consts  --      1.3945                 1.4533                 1.4561
 IR Inten    --      7.6451                 2.0398                 5.3532

                     55                     56                     57
                      A                      A                      A
 Frequencies --   1534.9863              1535.8299              1720.3329
 Red. masses --      1.0798                 1.0726                 9.4167
 Frc consts  --      1.4989                 1.4907                16.4200
 IR Inten    --      2.7225                 7.2142                 8.0862

                     58                     59                     60
                      A                      A                      A
 Frequencies --   1805.7700              2989.6431              2994.7884
 Red. masses --      8.3666                 1.0710                 1.0713
 Frc consts  --     16.0740                 5.6401                 5.6608
 IR Inten    --    433.8982                20.0359                87.9636

                     61                     62                     63
                      A                      A                      A
 Frequencies --   3036.9725              3046.0247              3057.3181
 Red. masses --      1.0675                 1.0825                 1.0366
 Frc consts  --      5.8007                 5.9174                 5.7090
 IR Inten    --     19.9919                32.4414                21.3797

                     64                     65                     66
                      A                      A                      A
 Frequencies --   3076.3934              3107.3802              3118.8332
 Red. masses --      1.0361                 1.0942                 1.0943
 Frc consts  --      5.7772                 6.2252                 6.2716
 IR Inten    --      2.3265                32.7241                17.4167

                     67                     68                     69
                      A                      A                      A
 Frequencies --   3120.3063              3123.5854              3139.5840
 Red. masses --      1.0950                 1.1026                 1.1001
 Frc consts  --      6.2815                 6.3384                 6.3889
 IR Inten    --     40.6125                28.8489                 6.5770

                     70                     71                     72
                      A                      A                      A
 Frequencies --   3141.9816              3182.1379              3527.3593
 Red. masses --      1.1020                 1.1044                 1.0747
 Frc consts  --      6.4096                 6.5887                 7.8786
 IR Inten    --     17.2410                13.3182                 3.0043

 - Thermochemistry -
 -------------------
 Temperature   298.150 Kelvin.  Pressure   1.00000 Atm.
 Atom     1 has atomic number  6 and mass  12.00000

 Molecular mass:   170.10553 amu.
 Principal axes and moments of inertia in atomic units:
                           1         2         3
     Eigenvalues --   923.675813827.728474313.70704
           X            0.99982   0.01878  -0.00138
           Y           -0.01876   0.99975   0.01191
           Z            0.00161  -0.01188   0.99993
 This molecule is an asymmetric top.
 Rotational symmetry number  1.
 Warning -- assumption of classical behavior for rotation
           may cause significant error
 Rotational temperatures (Kelvin)      0.09377     0.02263     0.02008
 Rotational constants (GHZ):           1.95387     0.47149     0.41837
 Zero-point vibrational energy     586435.3 (Joules/Mol)
                                  140.16139 (Kcal/Mol)
 Warning -- explicit consideration of  19 degrees of freedom as
           vibrations may cause significant error
 Vibrational temperatures:     61.62    83.98   135.25   169.39   170.22
          (Kelvin)            223.57   318.28   325.95   346.95   441.62
                              509.23   556.22   602.82   684.55   738.05
                              759.41   807.61   855.84   867.17   914.20
                             1047.85  1093.58  1234.53  1257.99  1286.90
                             1336.67  1396.21  1431.80  1501.04  1523.44
                             1537.96  1541.80  1592.19  1653.84  1657.66
                             1681.91  1788.03  1817.85  1848.49  1913.31
                             1924.44  1954.52  1958.63  1996.85  2017.69
                             2051.75  2060.68  2082.16  2137.15  2149.88
                             2159.79  2163.18  2183.72  2196.66  2208.50
                             2209.72  2475.18  2598.10  4301.43  4308.83
                             4369.53  4382.55  4398.80  4426.24  4470.83
                             4487.31  4489.42  4494.14  4517.16  4520.61
                             4578.39  5075.08

 Zero-point correction=                           0.223361 (Hartree/Particle)
 Thermal correction to Energy=                    0.235729
 Thermal correction to Enthalpy=                  0.236674
 Thermal correction to Gibbs Free Energy=         0.184172
 Sum of electronic and zero-point Energies=           -573.025952
 Sum of electronic and thermal Energies=              -573.013584
 Sum of electronic and thermal Enthalpies=            -573.012640
 Sum of electronic and thermal Free Energies=         -573.065141

                     E (Thermal)             CV                S
                      KCal/Mol        Cal/Mol-Kelvin    Cal/Mol-Kelvin
 Total                  147.922             45.767            110.499
 Electronic               0.000              0.000              0.000
 Translational            0.889              2.981             41.302
 Rotational               0.889              2.981             31.101
 Vibrational            146.145             39.805             38.096
 Vibration     1          0.595              1.980              5.124
 Vibration     2          0.596              1.974              4.512
 Vibration     3          0.603              1.953              3.575
 Vibration     4          0.608              1.935              3.137
 Vibration     5          0.608              1.934              3.128
 Vibration     6          0.620              1.897              2.605
 Vibration     7          0.648              1.809              1.949
 Vibration     8          0.650              1.801              1.906
 Vibration     9          0.658              1.777              1.794
 Vibration    10          0.697              1.661              1.379
 Vibration    11          0.730              1.567              1.149
 Vibration    12          0.755              1.499              1.013
 Vibration    13          0.782              1.429              0.895
 Vibration    14          0.832              1.304              0.722
 Vibration    15          0.868              1.221              0.626
 Vibration    16          0.883              1.188              0.592
 Vibration    17          0.917              1.115              0.521
 Vibration    18          0.953              1.043              0.459
 Vibration    19          0.961              1.026              0.445

                           ! Non-Optimized Parameters !
 Normal termination of Gaussian 16 at Wed Dec  9 17:57:49 2020.

 ----------------------------------------------------------------------
 # B3LYP/6-311++G(d,p) empiricaldispersion=gd3bj scf=xqc pop=npa geom=c
 heck
 ----------------------------------------------------------------------

 ---------------------------------------
 CID_133681936_JID_2723_Energie_neutraal
 ---------------------------------------
 Structure from the checkpoint file:  "JID_2723.chk"
 Charge =  0 Multiplicity = 1

 SCF Done:  E(RB3LYP) =  -573.417627864     A.U. after   14 cycles
 Normal termination of Gaussian 16 at Wed Dec  9 18:00:39 2020.

 ----------------------------------------------------------------------
 # B3LYP/6-311++G(d,p) empiricaldispersion=gd3bj scf=xqc pop=npa geom=c
 heck
 ----------------------------------------------------------------------

 -------------------------------------
 CID_133681936_JID_2723_Energie_kation
 -------------------------------------
 Structure from the checkpoint file:  "JID_2723.chk"
 Charge =  1 Multiplicity = 2

 SCF Done:  E(UB3LYP) =  -573.105549980     A.U. after   23 cycles
 Normal termination of Gaussian 16 at Wed Dec  9 18:07:14 2020.
 Gaussian 16:  ES64L-G16RevA.03 25-Dec-2016

 ----------------------------------------------------------------------
 # B3LYP/6-311++G(d,p) empiricaldispersion=gd3bj scf=xqc pop=npa geom=c
 heck
 ----------------------------------------------------------------------

 ------------------------------------
 CID_133681936_JID_2723_Energie_anion
 ------------------------------------
 Structure from the checkpoint file:  "JID_2723.chk"
 Charge = -1 Multiplicity = 2

                         Standard orientation:
 ---------------------------------------------------------------------
 Center     Atomic      Atomic             Coordinates (Angstroms)
 Number     Number       Type             X           Y           Z
 ---------------------------------------------------------------------
      1          6           0        1.470541    1.815371    1.154377
      2          6           0        1.097069    1.029216   -0.115601
      3          6           0        2.338855    0.749691   -0.990418
      4          8           0        3.218903   -0.185415   -0.393332
      5          6           0        2.601676   -1.460087   -0.268157
      6          6           0        1.387926   -1.389514    0.667098
      7          6           0        0.443212   -0.295722    0.234531
      8          7           0       -0.810747   -0.575501    0.218669
      9          7           0       -1.715213    0.386738   -0.117067
     10          6           0       -3.073971    0.133449   -0.167658
     11          8           0       -3.842721    1.041210   -0.444375
     12          6           0       -3.499627   -1.286643    0.129767
     13          1           0        1.872049    2.799670    0.888744
     14          1           0        2.237498    1.282118    1.723177
     15          1           0        0.599692    1.962723    1.801355
     16          1           0        0.422043    1.642140   -0.726588
     17          1           0        2.016465    0.384548   -1.979733
     18          1           0        2.914628    1.669213   -1.132675
     19          1           0        3.365416   -2.135660    0.125850
     20          1           0        2.292542   -1.825326   -1.261667
     21          1           0        1.753242   -1.176555    1.681561
     22          1           0        0.852371   -2.342918    0.698052
     23          1           0       -1.446158    1.349631   -0.301672
     24          1           0       -3.036659   -1.986393   -0.572543
     25          1           0       -3.178907   -1.585180    1.132335
     26          1           0       -4.586034   -1.337593    0.050599
 ---------------------------------------------------------------------

 SCF Done:  E(UB3LYP) =  -573.405254328     A.U. after   33 cycles
 SCF Done:  E(UB3LYP) =  -573.405254328     a.u. after    1 cycles

 The electronic state is 2-A.
 Alpha  occ. eigenvalues --  -19.02669 -18.99564 -14.26936 -14.24264 -10.17936
 Alpha  occ. eigenvalues --  -10.11796 -10.11562 -10.11234 -10.09015 -10.07731
 Alpha  occ. eigenvalues --  -10.07136 -10.06665  -0.95448  -0.94294  -0.90291
 Alpha  occ. eigenvalues --   -0.75682  -0.69397  -0.66553  -0.64252  -0.59275
 Alpha  occ. eigenvalues --   -0.53913  -0.52844  -0.48948  -0.47291  -0.41905
 Alpha  occ. eigenvalues --   -0.38617  -0.37623  -0.37516  -0.36747  -0.35840
 Alpha  occ. eigenvalues --   -0.33175  -0.32373  -0.31490  -0.31141  -0.30510
 Alpha  occ. eigenvalues --   -0.29120  -0.28713  -0.27487  -0.26119  -0.25064
 Alpha  occ. eigenvalues --   -0.24736  -0.21263  -0.17913  -0.16883  -0.16721
 Alpha  occ. eigenvalues --   -0.13370   0.04543
 Alpha virt. eigenvalues --    0.06693   0.07343   0.07816   0.07900   0.09459
 Alpha virt. eigenvalues --    0.09808   0.10140   0.10392   0.10956   0.12218
 Alpha virt. eigenvalues --    0.12597   0.12959   0.13106   0.13751   0.14184

  Beta  occ. eigenvalues --  -19.02661 -18.99531 -14.26942 -14.24195 -10.17905
  Beta  occ. eigenvalues --  -10.11757 -10.11523 -10.11183 -10.09000 -10.07718
  Beta  occ. eigenvalues --  -10.07119 -10.06632  -0.95389  -0.94278  -0.90216
  Beta  occ. eigenvalues --   -0.75605  -0.69339  -0.66483  -0.64213  -0.59193
  Beta  occ. eigenvalues --   -0.53826  -0.52742  -0.48900  -0.47213  -0.41832
  Beta  occ. eigenvalues --   -0.38566  -0.37559  -0.37449  -0.36637  -0.35759
  Beta  occ. eigenvalues --   -0.33124  -0.32306  -0.31402  -0.31091  -0.30487
  Beta  occ. eigenvalues --   -0.29060  -0.28649  -0.27431  -0.26057  -0.24969
  Beta  occ. eigenvalues --   -0.24573  -0.21213  -0.17798  -0.16835  -0.16669
  Beta  occ. eigenvalues --   -0.13209
  Beta virt. eigenvalues --    0.06888   0.07558   0.07723   0.08457   0.08740
  Beta virt. eigenvalues --    0.09985   0.10411   0.10582   0.11002   0.11241
  Beta virt. eigenvalues --    0.12371   0.13039   0.13275   0.13516   0.13871

 Mulliken charges and spin densities:
               1          2
     1  C    1.112708  -1.674537
     2  C   -1.703171   2.220525
     3  C    1.322639  -1.937058
     4  O   -0.172652   0.076589
     5  C    0.521179  -0.750718
     6  C   -0.231207   0.035910
     7  C    0.590622  -1.178158
     8  N    0.015433   0.057803
     9  N   -0.109800   0.024201
    10  C    0.049418   0.078500
    11  O   -0.321438   0.010144
    12  C    0.122879  -0.570960
    13  H   -0.195010   0.349174
    14  H   -0.028118   0.202408
    15  H   -0.129678   0.275831
    16  H   -0.361799   0.493265
    17  H   -0.346734   0.489976
    18  H   -0.348510   0.542876
    19  H   -0.669370   0.876336
    20  H    0.017868   0.107342
    21  H   -0.263551   0.461697
    22  H   -0.006051   0.145830
    23  H    0.140937   0.163687
    24  H   -0.001859   0.170334
    25  H   -0.131741   0.301256
    26  H    0.127007   0.027748
 Sum of Mulliken charges =  -1.00000   1.00000

 Dipole moment (field-independent basis, Debye):
    X=             -2.6678    Y=             -0.9760    Z=             -0.0219  Tot=              2.8408
 Quadrupole moment (field-independent basis, Debye-Ang):
   XX=           -146.1122   YY=           -114.2404   ZZ=           -104.7178
   XY=              8.2917   XZ=             -1.8412   YZ=              5.7442

 Summary of Natural Population Analysis:

                                       Natural Population
                Natural  -----------------------------------------------
    Atom  No    Charge         Core      Valence    Rydberg      Total
 -----------------------------------------------------------------------
      C    1   -0.28113      0.99964     2.27598    0.00551     3.28113
      C    2   -0.15388      0.99956     2.14236    0.01196     3.15388
      C    3   -0.00307      0.99956     1.98909    0.01442     3.00307
      O    4   -0.29911      0.99989     3.28910    0.01013     4.29911
      C    5   -0.00544      0.99958     1.99331    0.01254     3.00544
      C    6   -0.22211      0.99959     2.21237    0.01014     3.22211
      C    7    0.14220      0.99956     1.84242    0.01582     2.85780
      N    8   -0.14060      0.99960     2.62678    0.01423     3.64060
      N    9   -0.22587      0.99965     2.71514    0.01107     3.72587
      C   10    0.34610      0.99971     1.63298    0.02120     2.65390
      O   11   -0.31804      0.99988     3.31200    0.00617     4.31804
      C   12   -0.33259      0.99963     2.32869    0.00428     3.33259
      H   13    0.10094      0.00000     0.39787    0.00118     0.39906
      H   14    0.10461      0.00000     0.39372    0.00168     0.39539
      H   15    0.10043      0.00000     0.39821    0.00135     0.39957
      H   16    0.09960      0.00000     0.39757    0.00284     0.40040
      H   17    0.08171      0.00000     0.41628    0.00201     0.41829
      H   18    0.09493      0.00000     0.40299    0.00208     0.40507
      H   19    0.09496      0.00000     0.40271    0.00233     0.40504
      H   20    0.07747      0.00000     0.42086    0.00168     0.42253
      H   21    0.10763      0.00000     0.39015    0.00222     0.39237
      H   22    0.11133      0.00000     0.38703    0.00164     0.38867
      H   23    0.18536      0.00000     0.31131    0.00333     0.31464
      H   24    0.11333      0.00000     0.38546    0.00121     0.38667
      H   25    0.11564      0.00000     0.38289    0.00147     0.38436
      H   26    0.10559      0.00000     0.39334    0.00106     0.39441
 =======================================================================
   * Total *   -0.00000     11.99585    33.84061    0.16354    46.00000

 Normal termination of Gaussian 16 at Wed Dec  9 18:16:20 2020.
