 Gaussian 16, Revision A.03,

 -----------------------------------------------------------
 # opt freq B3LYP/6-31G(d) empiricaldispersion=gd3bj scf=xqc
 -----------------------------------------------------------

 -----------------------------
 CID_17977183_JID_278_neutraal
 -----------------------------
 Symbolic Z-matrix:
 Charge =  0 Multiplicity = 1

 SCF Done:  E(RB3LYP) =  -872.210269082     A.U. after   15 cycles
 SCF Done:  E(RB3LYP) =  -872.213402170     A.U. after   13 cycles
 SCF Done:  E(RB3LYP) =  -872.213638997     A.U. after   12 cycles
 SCF Done:  E(RB3LYP) =  -872.213565069     A.U. after   12 cycles
 SCF Done:  E(RB3LYP) =  -872.213694753     A.U. after   11 cycles
 SCF Done:  E(RB3LYP) =  -872.213698167     A.U. after    9 cycles
 SCF Done:  E(RB3LYP) =  -872.213698500     A.U. after    8 cycles
 SCF Done:  E(RB3LYP) =  -872.213698752     A.U. after    8 cycles
 SCF Done:  E(RB3LYP) =  -872.213699355     A.U. after    8 cycles
 SCF Done:  E(RB3LYP) =  -872.213699625     A.U. after    8 cycles
 SCF Done:  E(RB3LYP) =  -872.213699700     A.U. after    7 cycles
 Optimization completed.
    -- Stationary point found.
 Normal termination of Gaussian 16 at Tue Dec  8 10:20:34 2020.

 --------------------------------------------------------------------
 #N Geom=AllCheck Guess=TCheck SCRF=Check GenChk RB3LYP/6-31G(d) Freq
 --------------------------------------------------------------------

 Structure from the checkpoint file:  "JID_278.chk"
 -----------------------------
 CID_17977183_JID_278_neutraal
 -----------------------------
 Charge =  0 Multiplicity = 1

 SCF Done:  E(RB3LYP) =  -872.213699700     A.U. after    1 cycles

  Exact polarizability: 110.864   4.507  95.887  -0.003   0.000  40.925
 Approx polarizability: 189.885  13.268 158.064  -0.013   0.003  63.358

                      1                      2                      3
                      A                      A                      A
 Frequencies --     74.4105               101.7381               115.8396
 Red. masses --      9.7264                 8.7009                 1.0739
 Frc consts  --      0.0317                 0.0531                 0.0085
 IR Inten    --      3.7230                 0.1921                 0.0365

                      4                      5                      6
                      A                      A                      A
 Frequencies --    183.6860               183.7058               270.8967
 Red. masses --      6.9424                 4.6536                 6.6996
 Frc consts  --      0.1380                 0.0925                 0.2897
 IR Inten    --      1.0317                 0.2726                 3.3302

                      7                      8                      9
                      A                      A                      A
 Frequencies --    297.1947               373.8264               399.5350
 Red. masses --      3.2923                11.9124                10.6770
 Frc consts  --      0.1713                 0.9808                 1.0042
 IR Inten    --      0.9485                 5.1519                 5.4952

                     10                     11                     12
                      A                      A                      A
 Frequencies --    491.0740               523.3410               552.6146
 Red. masses --     10.6718                 1.5761                 5.6623
 Frc consts  --      1.5163                 0.2543                 1.0188
 IR Inten    --      0.5487                86.6463                14.2360

                     13                     14                     15
                      A                      A                      A
 Frequencies --    591.5971               610.8495               617.9263
 Red. masses --      1.2015                 6.3672                 1.9256
 Frc consts  --      0.2478                 1.3998                 0.4332
 IR Inten    --      3.2531                45.4324                94.4154

                     16                     17                     18
                      A                      A                      A
 Frequencies --    645.6981               676.0273               729.1637
 Red. masses --     10.2689                 6.3508                 4.2917
 Frc consts  --      2.5225                 1.7100                 1.3444
 IR Inten    --     21.5370                 2.7724                35.9694

                     19                     20                     21
                      A                      A                      A
 Frequencies --    766.2481               990.7023              1040.1596
 Red. masses --      8.5550                 4.1755                 1.6490
 Frc consts  --      2.9594                 2.4146                 1.0512
 IR Inten    --     41.0945                12.6554                 3.1648

                     22                     23                     24
                      A                      A                      A
 Frequencies --   1081.6943              1109.9540              1163.0252
 Red. masses --      1.4857                 8.3380                 5.2046
 Frc consts  --      1.0242                 6.0523                 4.1478
 IR Inten    --      2.2766               149.3258               122.3696

                     25                     26                     27
                      A                      A                      A
 Frequencies --   1218.6183              1296.7386              1406.4482
 Red. masses --      2.0040                 1.9161                 3.3246
 Frc consts  --      1.7534                 1.8984                 3.8746
 IR Inten    --    247.2023                 8.5708                87.9114

                     28                     29                     30
                      A                      A                      A
 Frequencies --   1435.7339              1467.6648              1510.6520
 Red. masses --      1.2511                 2.2253                 1.2688
 Frc consts  --      1.5194                 2.8241                 1.7060
 IR Inten    --      8.2661               166.5712                 0.7679

                     31                     32                     33
                      A                      A                      A
 Frequencies --   1527.6559              1661.9999              1799.9830
 Red. masses --      1.0438                 6.1839                 9.2532
 Frc consts  --      1.4352                10.0641                17.6636
 IR Inten    --      9.8021               165.1854               476.9080

                     34                     35                     36
                      A                      A                      A
 Frequencies --   1833.8396              3048.0230              3098.6312
 Red. masses --     11.3591                 1.0415                 1.1010
 Frc consts  --     22.5070                 5.7011                 6.2286
 IR Inten    --    472.5916                21.1967                11.3104

                     37                     38                     39
                      A                      A                      A
 Frequencies --   3200.4314              3615.4090              3703.4901
 Red. masses --      1.0965                 1.0787                 1.0642
 Frc consts  --      6.6173                 8.3077                 8.5996
 IR Inten    --      2.5283                64.2769                92.2072

 - Thermochemistry -
 -------------------
 Temperature   298.150 Kelvin.  Pressure   1.00000 Atm.
 Atom     1 has atomic number  6 and mass  12.00000

 Molecular mass:   158.99901 amu.
 Principal axes and moments of inertia in atomic units:
                           1         2         3
     Eigenvalues --   910.293791923.516262822.50868
           X            0.99990   0.01424   0.00000
           Y           -0.01424   0.99990  -0.00001
           Z           -0.00000   0.00001   1.00000
 This molecule is an asymmetric top.
 Rotational symmetry number  1.
 Warning -- assumption of classical behavior for rotation
           may cause significant error
 Rotational temperatures (Kelvin)      0.09515     0.04503     0.03069
 Rotational constants (GHZ):           1.98259     0.93825     0.63941
 Zero-point vibrational energy     271649.4 (Joules/Mol)
                                   64.92576 (Kcal/Mol)
 Warning -- explicit consideration of  15 degrees of freedom as
           vibrations may cause significant error
 Vibrational temperatures:    107.06   146.38   166.67   264.28   264.31
          (Kelvin)            389.76   427.60   537.85   574.84   706.55
                              752.97   795.09   851.18   878.88   889.06
                              929.02   972.65  1049.10  1102.46  1425.40
                             1496.56  1556.32  1596.98  1673.33  1753.32
                             1865.72  2023.57  2065.70  2111.64  2173.49
                             2197.96  2391.25  2589.77  2638.49  4385.43
                             4458.24  4604.71  5201.77  5328.50

 Zero-point correction=                           0.103466 (Hartree/Particle)
 Thermal correction to Energy=                    0.112965
 Thermal correction to Enthalpy=                  0.113909
 Thermal correction to Gibbs Free Energy=         0.068203
 Sum of electronic and zero-point Energies=           -872.110234
 Sum of electronic and thermal Energies=              -872.100735
 Sum of electronic and thermal Enthalpies=            -872.099791
 Sum of electronic and thermal Free Energies=         -872.145496

                     E (Thermal)             CV                S
                      KCal/Mol        Cal/Mol-Kelvin    Cal/Mol-Kelvin
 Total                   70.886             34.263             96.195
 Electronic               0.000              0.000              0.000
 Translational            0.889              2.981             41.100
 Rotational               0.889              2.981             29.981
 Vibrational             69.109             28.301             25.114
 Vibration     1          0.599              1.966              4.033
 Vibration     2          0.604              1.948              3.421
 Vibration     3          0.608              1.936              3.169
 Vibration     4          0.631              1.862              2.291
 Vibration     5          0.631              1.862              2.290
 Vibration     6          0.675              1.727              1.590
 Vibration     7          0.691              1.679              1.433
 Vibration     8          0.745              1.526              1.064
 Vibration     9          0.766              1.471              0.964
 Vibration    10          0.847              1.270              0.681
 Vibration    11          0.878              1.198              0.602
 Vibration    12          0.908              1.134              0.539
 Vibration    13          0.949              1.050              0.464
 Vibration    14          0.970              1.009              0.431
 Vibration    15          0.978              0.994              0.420

 Optimization completed.
    -- Stationary point found.
 Normal termination of Gaussian 16 at Tue Dec  8 10:22:52 2020.

 ----------------------------------------------------------------------
 # B3LYP/6-311++G(d,p) empiricaldispersion=gd3bj scf=xqc pop=npa geom=c
 heck
 ----------------------------------------------------------------------

 -------------------------------------
 CID_17977183_JID_278_Energie_neutraal
 -------------------------------------
 Structure from the checkpoint file:  "JID_278.chk"
 Charge =  0 Multiplicity = 1

 SCF Done:  E(RB3LYP) =  -872.390530952     A.U. after   16 cycles
 Normal termination of Gaussian 16 at Tue Dec  8 10:23:43 2020.

 ----------------------------------------------------------------------
 # B3LYP/6-311++G(d,p) empiricaldispersion=gd3bj scf=xqc pop=npa geom=c
 heck
 ----------------------------------------------------------------------

 -----------------------------------
 CID_17977183_JID_278_Energie_kation
 -----------------------------------
 Structure from the checkpoint file:  "JID_278.chk"
 Charge =  1 Multiplicity = 2

 SCF Done:  E(UB3LYP) =  -872.074174909     A.U. after   21 cycles
 Normal termination of Gaussian 16 at Tue Dec  8 10:25:40 2020.
 Gaussian 16:  ES64L-G16RevA.03 25-Dec-2016

 ----------------------------------------------------------------------
 # B3LYP/6-311++G(d,p) empiricaldispersion=gd3bj scf=xqc pop=npa geom=c
 heck
 ----------------------------------------------------------------------

 ----------------------------------
 CID_17977183_JID_278_Energie_anion
 ----------------------------------
 Structure from the checkpoint file:  "JID_278.chk"
 Charge = -1 Multiplicity = 2

                         Standard orientation:
 ---------------------------------------------------------------------
 Center     Atomic      Atomic             Coordinates (Angstroms)
 Number     Number       Type             X           Y           Z
 ---------------------------------------------------------------------
      1          6           0       -0.518084    2.516728   -0.000275
      2          6           0        0.112847    1.162243   -0.000026
      3          6           0       -0.486882   -0.063545    0.000160
      4         16           0        0.701041   -1.383084    0.000184
      5          6           0        2.061630   -0.201894   -0.000001
      6          8           0        3.245885   -0.444796    0.000021
      7          7           0        1.488058    1.068283   -0.000141
      8          6           0       -1.924244   -0.320562    0.000077
      9          8           0       -2.809523    0.517108    0.000621
     10          8           0       -2.190037   -1.651827   -0.000675
     11          1           0       -1.602326    2.420777   -0.000245
     12          1           0       -0.205959    3.083442   -0.886342
     13          1           0       -0.206120    3.083725    0.885691
     14          1           0        2.100660    1.874263   -0.000029
     15          1           0       -3.161517   -1.732549   -0.000379
 ---------------------------------------------------------------------

 SCF Done:  E(UB3LYP) =  -872.391620298     A.U. after   28 cycles

 The electronic state is 2-A.
 Alpha  occ. eigenvalues --  -88.71484 -19.00216 -18.95915 -18.92242 -14.21772
 Alpha  occ. eigenvalues --  -10.14819 -10.10747 -10.04215 -10.03243 -10.02652
 Alpha  occ. eigenvalues --   -7.80125  -5.76444  -5.76114  -5.75623  -0.93762
 Alpha  occ. eigenvalues --   -0.91452  -0.84081  -0.81947  -0.65833  -0.62313
 Alpha  occ. eigenvalues --   -0.54162  -0.50293  -0.45904  -0.41781  -0.35257
 Alpha  occ. eigenvalues --   -0.31930  -0.31695  -0.31459  -0.29429  -0.28284
 Alpha  occ. eigenvalues --   -0.27941  -0.27730  -0.25345  -0.24136  -0.20110
 Alpha  occ. eigenvalues --   -0.19430  -0.16401  -0.14302  -0.13854  -0.10812
 Alpha  occ. eigenvalues --   -0.06909   0.06468
 Alpha virt. eigenvalues --    0.08773   0.10528   0.11722   0.11940   0.13827
 Alpha virt. eigenvalues --    0.15403   0.15668   0.15763   0.16431   0.17034
 Alpha virt. eigenvalues --    0.17574   0.19285   0.19779   0.20030   0.20424

  Beta  occ. eigenvalues --  -88.71465 -19.00113 -18.95818 -18.91899 -14.21809
  Beta  occ. eigenvalues --  -10.14710 -10.10335 -10.03529 -10.03300 -10.02619
  Beta  occ. eigenvalues --   -7.80108  -5.76437  -5.76107  -5.75556  -0.93358
  Beta  occ. eigenvalues --   -0.91251  -0.83538  -0.81642  -0.65620  -0.61733
  Beta  occ. eigenvalues --   -0.53721  -0.49662  -0.45715  -0.41569  -0.34982
  Beta  occ. eigenvalues --   -0.31587  -0.30959  -0.30705  -0.29257  -0.27627
  Beta  occ. eigenvalues --   -0.27271  -0.26698  -0.25268  -0.23781  -0.19912
  Beta  occ. eigenvalues --   -0.18477  -0.14996  -0.13832  -0.13746  -0.10525
  Beta  occ. eigenvalues --   -0.05145
  Beta virt. eigenvalues --    0.08785   0.10518   0.11622   0.11926   0.13643
  Beta virt. eigenvalues --    0.13782   0.15310   0.15694   0.16378   0.17040
  Beta virt. eigenvalues --    0.17230   0.17507   0.19251   0.19728   0.19908

 Mulliken charges and spin densities:
               1          2
     1  C   -0.861494  -0.070555
     2  C   -1.053405   0.349277
     3  C    1.151189   0.059169
     4  S   -0.208535   0.049555
     5  C    0.022741   0.052462
     6  O   -0.428877   0.033772
     7  N   -0.070245  -0.009925
     8  C    0.305758   0.245100
     9  O   -0.465795   0.121067
    10  O   -0.228651   0.018476
    11  H    0.194956   0.000166
    12  H    0.051723   0.076668
    13  H    0.051794   0.076618
    14  H    0.288645  -0.000200
    15  H    0.250194  -0.001649
 Sum of Mulliken charges =  -1.00000   1.00000

 Dipole moment (field-independent basis, Debye):
    X=              0.0371    Y=              1.0596    Z=             -0.0007  Tot=              1.0603
 Quadrupole moment (field-independent basis, Debye-Ang):
   XX=           -100.8281   YY=            -77.1401   ZZ=            -71.6812
   XY=             11.9130   XZ=              0.0039   YZ=             -0.0019

 Summary of Natural Population Analysis:

                                       Natural Population
                Natural  -----------------------------------------------
    Atom  No    Charge         Core      Valence    Rydberg      Total
 -----------------------------------------------------------------------
      C    1   -0.31235      0.99964     2.30837    0.00434     3.31235
      C    2    0.21697      0.99948     1.77311    0.01044     2.78303
      C    3   -0.17384      0.99934     2.16316    0.01134     3.17384
      S    4    0.12905      4.99950     2.85049    0.02095     7.87095
      C    5    0.26925      0.99975     1.70294    0.02807     2.73075
      O    6   -0.32359      0.99986     3.31497    0.00876     4.32359
      N    7   -0.31254      0.99962     2.80352    0.00940     3.81254
      C    8    0.43430      0.99961     1.54262    0.02347     2.56570
      O    9   -0.31822      0.99987     3.31148    0.00687     4.31822
      O   10   -0.35409      0.99988     3.34810    0.00611     4.35409
      H   11    0.12843      0.00000     0.37064    0.00093     0.37157
      H   12    0.09870      0.00000     0.39985    0.00146     0.40130
      H   13    0.09870      0.00000     0.39984    0.00146     0.40130
      H   14    0.19404      0.00000     0.30431    0.00165     0.30596
      H   15    0.22519      0.00000     0.26858    0.00622     0.27481
 =======================================================================
   * Total *    0.00000     13.99656    26.86197    0.14147    41.00000

 Normal termination of Gaussian 16 at Tue Dec  8 10:28:08 2020.
