 Gaussian 16, Revision A.03,

 -----------------------------------------------------------
 # opt freq B3LYP/6-31G(d) empiricaldispersion=gd3bj scf=xqc
 -----------------------------------------------------------

 ------------------------------
 CID_80941511_JID_6615_neutraal
 ------------------------------
 Symbolic Z-matrix:
 Charge =  0 Multiplicity = 1

 SCF Done:  E(RB3LYP) =  -702.006379705     A.U. after   15 cycles
 SCF Done:  E(RB3LYP) =  -702.012080334     A.U. after   12 cycles
 SCF Done:  E(RB3LYP) =  -702.014163176     A.U. after   12 cycles
 SCF Done:  E(RB3LYP) =  -702.015360186     A.U. after   12 cycles
 SCF Done:  E(RB3LYP) =  -702.015578977     A.U. after   11 cycles
 SCF Done:  E(RB3LYP) =  -702.015696860     A.U. after   11 cycles
 SCF Done:  E(RB3LYP) =  -702.015747208     A.U. after   10 cycles
 SCF Done:  E(RB3LYP) =  -702.015769422     A.U. after   10 cycles
 SCF Done:  E(RB3LYP) =  -702.015805888     A.U. after   10 cycles
 SCF Done:  E(RB3LYP) =  -702.015838278     A.U. after   11 cycles
 SCF Done:  E(RB3LYP) =  -702.016703183     A.U. after   10 cycles
 SCF Done:  E(RB3LYP) =  -702.016706500     A.U. after    9 cycles
 SCF Done:  E(RB3LYP) =  -702.016707745     A.U. after    8 cycles
 SCF Done:  E(RB3LYP) =  -702.016708069     A.U. after    8 cycles
 SCF Done:  E(RB3LYP) =  -702.016708134     A.U. after    7 cycles
 Optimization completed.
    -- Stationary point found.
 Normal termination of Gaussian 16 at Thu Dec 10 22:41:17 2020.

 --------------------------------------------------------------------
 #N Geom=AllCheck Guess=TCheck SCRF=Check GenChk RB3LYP/6-31G(d) Freq
 --------------------------------------------------------------------

 Structure from the checkpoint file:  "JID_6615.chk"
 ------------------------------
 CID_80941511_JID_6615_neutraal
 ------------------------------
 Charge =  0 Multiplicity = 1

 SCF Done:  E(RB3LYP) =  -702.016708134     A.U. after    1 cycles

  Exact polarizability: 221.135  -9.604 159.150   0.303 -10.288  82.060
 Approx polarizability: 294.503 -20.658 254.055   0.186 -25.127 124.917

                      1                      2                      3
                      A                      A                      A
 Frequencies --     11.8546                36.9513                57.3515
 Red. masses --      2.5548                 3.8885                 3.2311
 Frc consts  --      0.0002                 0.0031                 0.0063
 IR Inten    --      0.6175                 1.2415                 1.7517

                      4                      5                      6
                      A                      A                      A
 Frequencies --     78.6133                84.3350               100.2197
 Red. masses --      1.3172                 1.4730                 1.5482
 Frc consts  --      0.0048                 0.0062                 0.0092
 IR Inten    --      0.2196                 0.2110                 0.9519

                      7                      8                      9
                      A                      A                      A
 Frequencies --    116.6419               127.0084               187.3036
 Red. masses --      3.6251                 3.6163                 1.9972
 Frc consts  --      0.0291                 0.0344                 0.0413
 IR Inten    --      5.1920                 4.7136                 0.7435

                     10                     11                     12
                      A                      A                      A
 Frequencies --    209.2133               221.0937               233.0874
 Red. masses --      4.4696                 3.9763                 1.7486
 Frc consts  --      0.1153                 0.1145                 0.0560
 IR Inten    --     13.1567                 1.6669                 1.9376

                     13                     14                     15
                      A                      A                      A
 Frequencies --    273.8678               287.5558               313.3165
 Red. masses --      2.0608                 3.9920                 3.7430
 Frc consts  --      0.0911                 0.1945                 0.2165
 IR Inten    --      0.4772                 3.7052                16.8204

                     16                     17                     18
                      A                      A                      A
 Frequencies --    330.0419               365.6228               395.4021
 Red. masses --      4.3447                 1.4297                 2.5087
 Frc consts  --      0.2788                 0.1126                 0.2311
 IR Inten    --      0.0731                80.9451                 7.8472

                     19                     20                     21
                      A                      A                      A
 Frequencies --    434.6562               537.5097               586.7849
 Red. masses --      3.6474                 4.8349                 4.4831
 Frc consts  --      0.4060                 0.8230                 0.9095
 IR Inten    --      6.9858                 1.4921                 7.1136

                     22                     23                     24
                      A                      A                      A
 Frequencies --    619.8304               658.6058               665.1854
 Red. masses --      3.4310                 3.9216                 3.9125
 Frc consts  --      0.7766                 1.0022                 1.0200
 IR Inten    --      4.2063                12.1750                 0.2049

                     25                     26                     27
                      A                      A                      A
 Frequencies --    676.3160               697.2785               701.6860
 Red. masses --      4.7863                 3.9260                 5.0894
 Frc consts  --      1.2899                 1.1246                 1.4764
 IR Inten    --      1.8975                 0.5703                 0.5475

                     28                     29                     30
                      A                      A                      A
 Frequencies --    777.4736               795.2766               811.8860
 Red. masses --      1.3579                 1.9301                 1.2872
 Frc consts  --      0.4836                 0.7192                 0.4999
 IR Inten    --     13.0298                 3.4569                 2.2211

                     31                     32                     33
                      A                      A                      A
 Frequencies --    828.0007               852.8979               872.8414
 Red. masses --      3.5681                 5.2575                 1.2879
 Frc consts  --      1.4413                 2.2533                 0.5781
 IR Inten    --     37.8908                61.1135                10.2358

                     34                     35                     36
                      A                      A                      A
 Frequencies --    954.6379               988.7626              1001.0896
 Red. masses --      2.7039                 4.4420                 9.0059
 Frc consts  --      1.4518                 2.5587                 5.3177
 IR Inten    --      8.7170                67.4004                12.9953

                     37                     38                     39
                      A                      A                      A
 Frequencies --   1010.8955              1027.3428              1050.0619
 Red. masses --      1.5186                 2.5510                 3.2071
 Frc consts  --      0.9143                 1.5864                 2.0835
 IR Inten    --     10.9952                12.9220                19.0016

                     40                     41                     42
                      A                      A                      A
 Frequencies --   1078.9036              1083.9185              1095.6584
 Red. masses --      1.4542                 1.7443                 1.8258
 Frc consts  --      0.9973                 1.2074                 1.2913
 IR Inten    --      2.0120                24.1309                10.2693

                     43                     44                     45
                      A                      A                      A
 Frequencies --   1129.4112              1152.3275              1161.2685
 Red. masses --      3.5731                 1.8107                 1.2923
 Frc consts  --      2.6853                 1.4166                 1.0268
 IR Inten    --      4.7622                 0.9673                16.0552

                     46                     47                     48
                      A                      A                      A
 Frequencies --   1184.3299              1226.9998              1235.5150
 Red. masses --      1.7373                 1.4754                 1.6510
 Frc consts  --      1.4357                 1.3087                 1.4849
 IR Inten    --      2.7616                65.3859                42.2360

                     49                     50                     51
                      A                      A                      A
 Frequencies --   1282.7157              1289.2889              1311.2611
 Red. masses --      1.8897                 3.1134                 2.4326
 Frc consts  --      1.8319                 3.0492                 2.4643
 IR Inten    --      1.6210                93.7249                 6.5928

                     52                     53                     54
                      A                      A                      A
 Frequencies --   1353.3231              1373.7829              1413.6900
 Red. masses --      1.6403                 3.0504                 3.1584
 Frc consts  --      1.7700                 3.3920                 3.7190
 IR Inten    --     45.5854                64.8756                 8.2466

                     55                     56                     57
                      A                      A                      A
 Frequencies --   1418.8165              1433.4832              1443.4331
 Red. masses --      2.2643                 1.6063                 1.9164
 Frc consts  --      2.6856                 1.9448                 2.3526
 IR Inten    --     52.4924                30.2988                17.5289

                     58                     59                     60
                      A                      A                      A
 Frequencies --   1456.7742              1462.2653              1481.5746
 Red. masses --      2.4164                 1.5920                 1.9596
 Frc consts  --      3.0213                 2.0056                 2.5344
 IR Inten    --     61.1310                 7.5087               103.2287

                     61                     62                     63
                      A                      A                      A
 Frequencies --   1505.4017              1508.2337              1514.8768
 Red. masses --      1.1739                 1.1372                 1.0446
 Frc consts  --      1.5674                 1.5241                 1.4124
 IR Inten    --     48.7858                 3.8810                 5.7647

                     64                     65                     66
                      A                      A                      A
 Frequencies --   1515.6786              1527.0158              1532.0888
 Red. masses --      2.0116                 1.0611                 1.2156
 Frc consts  --      2.7228                 1.4578                 1.6812
 IR Inten    --    103.1877                26.8373                 1.5473

                     67                     68                     69
                      A                      A                      A
 Frequencies --   1537.0381              1541.1940              1566.6629
 Red. masses --      1.3005                 1.0984                 2.4420
 Frc consts  --      1.8102                 1.5372                 3.5314
 IR Inten    --     59.5317                 7.4853               185.8743

                     70                     71                     72
                      A                      A                      A
 Frequencies --   1626.7303              1647.0694              1650.2232
 Red. masses --      4.9302                 4.7982                 6.0547
 Frc consts  --      7.6867                 7.6693                 9.7147
 IR Inten    --     96.8857               256.4388               755.7034

                     73                     74                     75
                      A                      A                      A
 Frequencies --   3041.9302              3044.9158              3053.2839
 Red. masses --      1.0467                 1.0370                 1.0346
 Frc consts  --      5.7067                 5.6648                 5.6829
 IR Inten    --     71.6889                43.5691                33.2170

                     76                     77                     78
                      A                      A                      A
 Frequencies --   3073.8932              3095.7122              3115.7190
 Red. masses --      1.0603                 1.1014                 1.1019
 Frc consts  --      5.9026                 6.2188                 6.3024
 IR Inten    --     14.3271                20.9332                12.6022

                     79                     80                     81
                      A                      A                      A
 Frequencies --   3120.1662              3122.5417              3124.9832
 Red. masses --      1.0890                 1.1010                 1.1041
 Frc consts  --      6.2463                 6.3247                 6.3526
 IR Inten    --     32.7752                17.3713                29.1051

                     82                     83                     84
                      A                      A                      A
 Frequencies --   3140.7827              3162.0449              3220.1587
 Red. masses --      1.1043                 1.1047                 1.0917
 Frc consts  --      6.4179                 6.5078                 6.6700
 IR Inten    --     33.8798                13.2407                 6.7855

                     85                     86                     87
                      A                      A                      A
 Frequencies --   3246.7290              3286.7197              3642.9924
 Red. masses --      1.0957                 1.0969                 1.0771
 Frc consts  --      6.8053                 6.9816                 8.4221
 IR Inten    --      9.7986                 0.7465                32.9183

 - Thermochemistry -
 -------------------
 Temperature   298.150 Kelvin.  Pressure   1.00000 Atm.
 Atom     1 has atomic number  6 and mass  12.00000

 Molecular mass:   217.13275 amu.
 Principal axes and moments of inertia in atomic units:
                           1         2         3
     Eigenvalues --  2082.325966001.871647761.97527
           X            0.99992   0.01303  -0.00051
           Y           -0.01303   0.99991   0.00397
           Z            0.00056  -0.00397   0.99999
 This molecule is an asymmetric top.
 Rotational symmetry number  1.
 Warning -- assumption of classical behavior for rotation
           may cause significant error
 Rotational temperatures (Kelvin)      0.04159     0.01443     0.01116
 Rotational constants (GHZ):           0.86669     0.30070     0.23251
 Zero-point vibrational energy     677158.3 (Joules/Mol)
                                  161.84472 (Kcal/Mol)
 Warning -- explicit consideration of  22 degrees of freedom as
           vibrations may cause significant error
 Vibrational temperatures:     17.06    53.16    82.52   113.11   121.34
          (Kelvin)            144.19   167.82   182.74   269.49   301.01
                              318.10   335.36   394.03   413.73   450.79
                              474.86   526.05   568.90   625.37   773.36
                              844.25   891.80   947.59   957.05   973.07
                             1003.23  1009.57  1118.61  1144.23  1168.12
                             1191.31  1227.13  1255.82  1373.51  1422.61
                             1440.34  1454.45  1478.12  1510.80  1552.30
                             1559.52  1576.41  1624.97  1657.94  1670.81
                             1703.99  1765.38  1777.63  1845.54  1855.00
                             1886.61  1947.13  1976.57  2033.98  2041.36
                             2062.46  2076.78  2095.97  2103.87  2131.66
                             2165.94  2170.01  2179.57  2180.72  2197.04
                             2204.33  2211.46  2217.43  2254.08  2340.50
                             2369.77  2374.30  4376.66  4380.95  4392.99
                             4422.65  4454.04  4482.82  4489.22  4492.64
                             4496.15  4518.89  4549.48  4633.09  4671.32
                             4728.86  5241.45

 Zero-point correction=                           0.257916 (Hartree/Particle)
 Thermal correction to Energy=                    0.273895
 Thermal correction to Enthalpy=                  0.274839
 Thermal correction to Gibbs Free Energy=         0.212009
 Sum of electronic and zero-point Energies=           -701.758792
 Sum of electronic and thermal Energies=              -701.742813
 Sum of electronic and thermal Enthalpies=            -701.741869
 Sum of electronic and thermal Free Energies=         -701.804699

                     E (Thermal)             CV                S
                      KCal/Mol        Cal/Mol-Kelvin    Cal/Mol-Kelvin
 Total                  171.872             57.776            132.238
 Electronic               0.000              0.000              0.000
 Translational            0.889              2.981             42.029
 Rotational               0.889              2.981             32.939
 Vibrational            170.094             51.814             57.270
 Vibration     1          0.593              1.987              7.673
 Vibration     2          0.594              1.982              5.416
 Vibration     3          0.596              1.975              4.546
 Vibration     4          0.600              1.964              3.925
 Vibration     5          0.601              1.960              3.787
 Vibration     6          0.604              1.949              3.450
 Vibration     7          0.608              1.936              3.155
 Vibration     8          0.611              1.926              2.991
 Vibration     9          0.632              1.857              2.254
 Vibration    10          0.642              1.827              2.051
 Vibration    11          0.648              1.809              1.950
 Vibration    12          0.654              1.790              1.855
 Vibration    13          0.676              1.722              1.572
 Vibration    14          0.685              1.697              1.488
 Vibration    15          0.701              1.648              1.345
 Vibration    16          0.713              1.615              1.260
 Vibration    17          0.739              1.543              1.098
 Vibration    18          0.762              1.480              0.980
 Vibration    19          0.795              1.395              0.844
 Vibration    20          0.893              1.167              0.571
 Vibration    21          0.944              1.060              0.473
 Vibration    22          0.980              0.990              0.417

                           ! Non-Optimized Parameters !
 Normal termination of Gaussian 16 at Thu Dec 10 22:50:20 2020.

 ----------------------------------------------------------------------
 # B3LYP/6-311++G(d,p) empiricaldispersion=gd3bj scf=xqc pop=npa geom=c
 heck
 ----------------------------------------------------------------------

 --------------------------------------
 CID_80941511_JID_6615_Energie_neutraal
 --------------------------------------
 Structure from the checkpoint file:  "JID_6615.chk"
 Charge =  0 Multiplicity = 1

 SCF Done:  E(RB3LYP) =  -702.202888217     A.U. after   15 cycles
 Normal termination of Gaussian 16 at Thu Dec 10 22:54:40 2020.

 ----------------------------------------------------------------------
 # B3LYP/6-311++G(d,p) empiricaldispersion=gd3bj scf=xqc pop=npa geom=c
 heck
 ----------------------------------------------------------------------

 ------------------------------------
 CID_80941511_JID_6615_Energie_kation
 ------------------------------------
 Structure from the checkpoint file:  "JID_6615.chk"
 Charge =  1 Multiplicity = 2

 SCF Done:  E(UB3LYP) =  -701.910220008     A.U. after   26 cycles
 Normal termination of Gaussian 16 at Thu Dec 10 23:05:18 2020.
 Gaussian 16:  ES64L-G16RevA.03 25-Dec-2016

 ----------------------------------------------------------------------
 # B3LYP/6-311++G(d,p) empiricaldispersion=gd3bj scf=xqc pop=npa geom=c
 heck
 ----------------------------------------------------------------------

 -----------------------------------
 CID_80941511_JID_6615_Energie_anion
 -----------------------------------
 Structure from the checkpoint file:  "JID_6615.chk"
 Charge = -1 Multiplicity = 2

                         Standard orientation:
 ---------------------------------------------------------------------
 Center     Atomic      Atomic             Coordinates (Angstroms)
 Number     Number       Type             X           Y           Z
 ---------------------------------------------------------------------
      1          6           0        2.556734    3.020909    1.029940
      2          6           0        2.549980    2.311375   -0.333833
      3          6           0        1.765863    1.026081   -0.271892
      4          7           0        2.466193   -0.111438   -0.174888
      5          6           0        1.756237   -1.252407   -0.100809
      6          6           0        0.346733   -1.247393   -0.115770
      7          6           0       -0.254173    0.002204   -0.178776
      8          7           0        0.433303    1.145465   -0.260805
      9          7           0       -1.661089    0.109143   -0.149778
     10          6           0       -2.552260   -0.808644    0.352960
     11          6           0       -3.816107   -0.300481    0.162309
     12          6           0       -3.581723    0.950220   -0.478784
     13          7           0       -2.293950    1.199043   -0.662842
     14          6           0       -5.127186   -0.912193    0.551161
     15          7           0        2.457030   -2.419640   -0.044997
     16          6           0        3.902302   -2.456305    0.093299
     17          1           0        1.532583    3.239650    1.347682
     18          1           0        3.112530    3.963088    0.975044
     19          1           0        3.026875    2.390286    1.792832
     20          1           0        2.087613    2.964688   -1.081300
     21          1           0        3.571816    2.083281   -0.649945
     22          1           0       -0.222873   -2.169149   -0.115863
     23          1           0       -2.222287   -1.716280    0.834809
     24          1           0       -4.315416    1.673896   -0.812083
     25          1           0       -5.686112   -0.264189    1.236954
     26          1           0       -5.766099   -1.084453   -0.323590
     27          1           0       -4.981944   -1.875690    1.049814
     28          1           0        1.938573   -3.255411    0.178153
     29          1           0        4.236712   -3.487703   -0.042720
     30          1           0        4.361638   -1.825205   -0.670028
     31          1           0        4.237582   -2.095017    1.074579
 ---------------------------------------------------------------------

 SCF Done:  E(UB3LYP) =  -702.197699327     A.U. after   33 cycles
 SCF Done:  E(UB3LYP) =  -702.197699327     a.u. after    1 cycles

 The electronic state is 2-A.
 Alpha  occ. eigenvalues --  -14.28039 -14.22164 -14.21455 -14.17996 -14.17762
 Alpha  occ. eigenvalues --  -10.13748 -10.12857 -10.11805 -10.09236 -10.09133
 Alpha  occ. eigenvalues --  -10.08179 -10.07983 -10.06939 -10.06273 -10.06165
 Alpha  occ. eigenvalues --  -10.05523  -0.94169  -0.87419  -0.82761  -0.76451
 Alpha  occ. eigenvalues --   -0.72312  -0.69482  -0.67996  -0.64319  -0.61307
 Alpha  occ. eigenvalues --   -0.58912  -0.55556  -0.52995  -0.50072  -0.48066
 Alpha  occ. eigenvalues --   -0.46015  -0.42822  -0.41171  -0.39822  -0.35888
 Alpha  occ. eigenvalues --   -0.35367  -0.35096  -0.34206  -0.33496  -0.32898
 Alpha  occ. eigenvalues --   -0.32701  -0.32171  -0.31063  -0.30515  -0.29874
 Alpha  occ. eigenvalues --   -0.28798  -0.27602  -0.26977  -0.25567  -0.24539
 Alpha  occ. eigenvalues --   -0.22179  -0.18808  -0.18505  -0.17436  -0.14680
 Alpha  occ. eigenvalues --   -0.13536  -0.13154  -0.11198   0.04291
 Alpha virt. eigenvalues --    0.06361   0.06541   0.07529   0.08166   0.09104
 Alpha virt. eigenvalues --    0.09690   0.09799   0.09983   0.10309   0.10862
 Alpha virt. eigenvalues --    0.11718   0.11962   0.12469   0.12656   0.13400

  Beta  occ. eigenvalues --  -14.28070 -14.22126 -14.21335 -14.18043 -14.17634
  Beta  occ. eigenvalues --  -10.13765 -10.12653 -10.11714 -10.09210 -10.09041
  Beta  occ. eigenvalues --  -10.08172 -10.07962 -10.06928 -10.06279 -10.06150
  Beta  occ. eigenvalues --  -10.05454  -0.94060  -0.87284  -0.82672  -0.76236
  Beta  occ. eigenvalues --   -0.72199  -0.69366  -0.67919  -0.64216  -0.61210
  Beta  occ. eigenvalues --   -0.58827  -0.55455  -0.52811  -0.50008  -0.48006
  Beta  occ. eigenvalues --   -0.45854  -0.42731  -0.41073  -0.39747  -0.35711
  Beta  occ. eigenvalues --   -0.35187  -0.34969  -0.34098  -0.33441  -0.32871
  Beta  occ. eigenvalues --   -0.32644  -0.32057  -0.30983  -0.30447  -0.29702
  Beta  occ. eigenvalues --   -0.28748  -0.27551  -0.26827  -0.25522  -0.24522
  Beta  occ. eigenvalues --   -0.21846  -0.18703  -0.18004  -0.17305  -0.14203
  Beta  occ. eigenvalues --   -0.13446  -0.12853  -0.10911
  Beta virt. eigenvalues --    0.06489   0.07124   0.07639   0.08097   0.08806
  Beta virt. eigenvalues --    0.09332   0.09680   0.09779   0.10186   0.10465
  Beta virt. eigenvalues --    0.11189   0.11660   0.11947   0.12648   0.12919

 Mulliken charges and spin densities:
               1          2
     1  C   -0.422952  -0.036456
     2  C   -0.073708   0.010312
     3  C   -0.434741  -0.033225
     4  N   -0.047353   0.014827
     5  C   -0.098517   0.295276
     6  C    0.041152  -0.106116
     7  C    0.176677  -0.497183
     8  N   -0.032250   0.000431
     9  N    0.362206  -0.012160
    10  C    0.097404  -0.184384
    11  C    0.063487   0.186534
    12  C   -0.223386   0.126850
    13  N   -0.201025   0.083201
    14  C   -0.043155  -0.825934
    15  N   -0.215842   0.049441
    16  C    0.487842  -0.818184
    17  H    0.146740   0.014726
    18  H    0.042151   0.084529
    19  H    0.121345   0.013863
    20  H    0.153551  -0.000526
    21  H    0.100151   0.026048
    22  H    0.048116   0.088204
    23  H   -0.513908   0.688641
    24  H    0.118428  -0.005454
    25  H    0.090659   0.044910
    26  H    0.101697   0.029670
    27  H    0.023184   0.126528
    28  H   -0.488637   0.782893
    29  H   -0.408420   0.550554
    30  H    0.048631   0.123135
    31  H   -0.019526   0.179050
 Sum of Mulliken charges =  -1.00000   1.00000

 Dipole moment (field-independent basis, Debye):
    X=             -2.5874    Y=              4.5710    Z=             -1.1775  Tot=              5.3829
 Quadrupole moment (field-independent basis, Debye-Ang):
   XX=           -141.8491   YY=           -150.5564   ZZ=           -116.3137
   XY=             13.0903   XZ=             -0.2898   YZ=              6.9044

 Summary of Natural Population Analysis:

                                       Natural Population
                Natural  -----------------------------------------------
    Atom  No    Charge         Core      Valence    Rydberg      Total
 -----------------------------------------------------------------------
      C    1   -0.27992      0.99966     2.27638    0.00388     3.27992
      C    2   -0.20594      0.99960     2.19780    0.00854     3.20594
      C    3    0.24415      0.99962     1.73838    0.01785     2.75585
      N    4   -0.27679      0.99964     2.76784    0.00931     3.77679
      C    5    0.21808      0.99955     1.76730    0.01507     2.78192
      C    6   -0.16487      0.99948     2.15698    0.00840     3.16487
      C    7    0.24179      0.99950     1.74375    0.01496     2.75821
      N    8   -0.27693      0.99964     2.76825    0.00904     3.77693
      N    9   -0.11508      0.99962     2.60329    0.01218     3.61508
      C   10    0.00568      0.99950     1.98418    0.01064     2.99432
      C   11   -0.07592      0.99953     2.06670    0.00969     3.07592
      C   12   -0.01231      0.99959     1.99820    0.01452     3.01231
      N   13   -0.11603      0.99973     2.60579    0.01051     3.61603
      C   14   -0.29019      0.99964     2.28603    0.00452     3.29019
      N   15   -0.30238      0.99967     2.79109    0.01163     3.80238
      C   16   -0.17739      0.99965     2.16872    0.00902     3.17739
      H   17    0.10298      0.00000     0.39579    0.00123     0.39702
      H   18    0.09118      0.00000     0.40765    0.00118     0.40882
      H   19    0.09674      0.00000     0.40213    0.00113     0.40326
      H   20    0.10221      0.00000     0.39657    0.00122     0.39779
      H   21    0.10048      0.00000     0.39822    0.00130     0.39952
      H   22    0.10763      0.00000     0.39101    0.00136     0.39237
      H   23    0.10715      0.00000     0.39140    0.00145     0.39285
      H   24    0.09121      0.00000     0.40795    0.00084     0.40879
      H   25    0.09942      0.00000     0.39944    0.00113     0.40058
      H   26    0.09886      0.00000     0.40003    0.00111     0.40114
      H   27    0.10365      0.00000     0.39550    0.00085     0.39635
      H   28    0.19545      0.00000     0.29270    0.01185     0.30455
      H   29    0.09604      0.00000     0.40269    0.00128     0.40396
      H   30    0.10086      0.00000     0.39781    0.00133     0.39914
      H   31    0.09019      0.00000     0.40845    0.00136     0.40981
 =======================================================================
   * Total *    0.00000     15.99362    41.80802    0.19836    58.00000

 Normal termination of Gaussian 16 at Thu Dec 10 23:19:09 2020.
