 Gaussian 16, Revision A.03,

 -----------------------------------------------------------
 # opt freq B3LYP/6-31G(d) empiricaldispersion=gd3bj scf=xqc
 -----------------------------------------------------------

 ------------------------------
 CID_71124130_JID_6522_neutraal
 ------------------------------
 Symbolic Z-matrix:
 Charge =  0 Multiplicity = 1

 SCF Done:  E(RB3LYP) =  -663.760983964     A.U. after   14 cycles
 SCF Done:  E(RB3LYP) =  -663.764265065     A.U. after   11 cycles
 SCF Done:  E(RB3LYP) =  -663.764355274     A.U. after   12 cycles
 SCF Done:  E(RB3LYP) =  -663.764970399     A.U. after   11 cycles
 SCF Done:  E(RB3LYP) =  -663.765009013     A.U. after   11 cycles
 SCF Done:  E(RB3LYP) =  -663.765082504     A.U. after   10 cycles
 SCF Done:  E(RB3LYP) =  -663.765090505     A.U. after    9 cycles
 SCF Done:  E(RB3LYP) =  -663.765092037     A.U. after    9 cycles
 SCF Done:  E(RB3LYP) =  -663.765094056     A.U. after    7 cycles
 SCF Done:  E(RB3LYP) =  -663.765095539     A.U. after    8 cycles
 SCF Done:  E(RB3LYP) =  -663.765095906     A.U. after    7 cycles
 SCF Done:  E(RB3LYP) =  -663.765096019     A.U. after    6 cycles
 Optimization completed.
    -- Stationary point found.
 Normal termination of Gaussian 16 at Thu Dec 10 23:27:18 2020.

 --------------------------------------------------------------------
 #N Geom=AllCheck Guess=TCheck SCRF=Check GenChk RB3LYP/6-31G(d) Freq
 --------------------------------------------------------------------

 Structure from the checkpoint file:  "JID_6522.chk"
 ------------------------------
 CID_71124130_JID_6522_neutraal
 ------------------------------
 Charge =  0 Multiplicity = 1

 SCF Done:  E(RB3LYP) =  -663.765096019     A.U. after    1 cycles

  Exact polarizability: 177.264  -6.140 159.720   3.078   2.638 138.919
 Approx polarizability: 218.101 -10.513 239.270   4.752   4.628 207.322

                      1                      2                      3
                      A                      A                      A
 Frequencies --     25.5880                44.0017                48.9177
 Red. masses --      3.7772                 3.3527                 3.0592
 Frc consts  --      0.0015                 0.0038                 0.0043
 IR Inten    --      0.0582                 0.4724                 0.0628

                      4                      5                      6
                      A                      A                      A
 Frequencies --     64.7230                98.8310               101.1830
 Red. masses --      3.1435                 2.7802                 2.9824
 Frc consts  --      0.0078                 0.0160                 0.0180
 IR Inten    --      0.4963                 0.3159                 0.1733

                      7                      8                      9
                      A                      A                      A
 Frequencies --    153.4065               164.0437               179.0833
 Red. masses --      2.6105                 1.3161                 2.0084
 Frc consts  --      0.0362                 0.0209                 0.0379
 IR Inten    --      0.4825                 0.6398                 0.4008

                     10                     11                     12
                      A                      A                      A
 Frequencies --    202.3332               224.7784               235.3748
 Red. masses --      2.5927                 1.6783                 1.2159
 Frc consts  --      0.0625                 0.0500                 0.0397
 IR Inten    --      0.3675                 0.8494                 0.1948

                     13                     14                     15
                      A                      A                      A
 Frequencies --    243.5010               248.1949               260.0761
 Red. masses --      1.2382                 1.2600                 1.5119
 Frc consts  --      0.0433                 0.0457                 0.0603
 IR Inten    --      0.6775                 0.1178                 0.5051

                     16                     17                     18
                      A                      A                      A
 Frequencies --    260.9976               285.0524               291.5721
 Red. masses --      1.9337                 1.2628                 2.0223
 Frc consts  --      0.0776                 0.0605                 0.1013
 IR Inten    --      0.4391                 3.8147                17.6976

                     19                     20                     21
                      A                      A                      A
 Frequencies --    308.2798               330.3579               355.2428
 Red. masses --      1.1629                 2.2197                 2.2806
 Frc consts  --      0.0651                 0.1427                 0.1696
 IR Inten    --     61.8332                 0.6008                 7.3078

                     22                     23                     24
                      A                      A                      A
 Frequencies --    373.4226               388.1150               418.9728
 Red. masses --      2.2010                 2.4771                 2.2246
 Frc consts  --      0.1808                 0.2198                 0.2301
 IR Inten    --      1.7441                 4.5548                 1.5802

                     25                     26                     27
                      A                      A                      A
 Frequencies --    439.4426               455.7905               484.6001
 Red. masses --      2.5530                 2.7820                 2.8079
 Frc consts  --      0.2905                 0.3405                 0.3885
 IR Inten    --      3.5371                 6.5935                 1.4181

                     28                     29                     30
                      A                      A                      A
 Frequencies --    521.2500               567.3812               574.1276
 Red. masses --      2.7184                 2.5598                 3.0617
 Frc consts  --      0.4352                 0.4855                 0.5946
 IR Inten    --      3.9472                 4.3241                 0.2721

                     31                     32                     33
                      A                      A                      A
 Frequencies --    609.6703               642.4619               716.6185
 Red. masses --      2.6591                 3.0824                 2.2909
 Frc consts  --      0.5823                 0.7496                 0.6932
 IR Inten    --      1.7697                 1.5251                 5.8020

                     34                     35                     36
                      A                      A                      A
 Frequencies --    736.1619               792.1969               805.2939
 Red. masses --      2.5320                 2.1795                 1.8303
 Frc consts  --      0.8085                 0.8059                 0.6993
 IR Inten    --      0.5943                 0.7384                 9.1776

                     37                     38                     39
                      A                      A                      A
 Frequencies --    849.8657               872.4687               906.7761
 Red. masses --      2.3146                 2.0832                 1.8368
 Frc consts  --      0.9850                 0.9343                 0.8898
 IR Inten    --      1.9406                 0.1900                 0.2232

                     40                     41                     42
                      A                      A                      A
 Frequencies --    917.3592               931.0301               934.0107
 Red. masses --      2.0350                 2.1948                 1.5547
 Frc consts  --      1.0090                 1.1209                 0.7991
 IR Inten    --      0.0551                26.8581                 2.6267

                     43                     44                     45
                      A                      A                      A
 Frequencies --    967.6167               974.7047               984.4816
 Red. masses --      2.0019                 1.5993                 1.5809
 Frc consts  --      1.1043                 0.8952                 0.9028
 IR Inten    --      2.8816                 1.9250                 2.7776

                     46                     47                     48
                      A                      A                      A
 Frequencies --    995.2728              1004.6565              1018.8054
 Red. masses --      2.3134                 1.4906                 1.5806
 Frc consts  --      1.3501                 0.8864                 0.9666
 IR Inten    --      0.1524                 1.0572                 3.6912

                     49                     50                     51
                      A                      A                      A
 Frequencies --   1036.7759              1043.2874              1056.3521
 Red. masses --      1.4049                 1.4755                 1.8306
 Frc consts  --      0.8897                 0.9462                 1.2036
 IR Inten    --      1.6121                 1.0044                 5.5932

                     52                     53                     54
                      A                      A                      A
 Frequencies --   1070.9265              1094.7499              1111.7166
 Red. masses --      1.8447                 2.0106                 1.5858
 Frc consts  --      1.2465                 1.4198                 1.1547
 IR Inten    --      2.3069                 6.6287                12.0723

                     55                     56                     57
                      A                      A                      A
 Frequencies --   1118.9825              1123.9812              1134.5776
 Red. masses --      1.7885                 1.6258                 2.4215
 Frc consts  --      1.3194                 1.2101                 1.8366
 IR Inten    --      9.4996                 2.9063                 4.3945

                     58                     59                     60
                      A                      A                      A
 Frequencies --   1167.9402              1173.1663              1196.2064
 Red. masses --      1.6143                 1.5089                 1.8276
 Frc consts  --      1.2974                 1.2236                 1.5408
 IR Inten    --      4.5382                35.3192                20.5941

                     61                     62                     63
                      A                      A                      A
 Frequencies --   1211.5129              1223.8085              1236.8186
 Red. masses --      1.5797                 2.1987                 1.7721
 Frc consts  --      1.3661                 1.9402                 1.5972
 IR Inten    --      6.0751                 1.5419                17.5394

                     64                     65                     66
                      A                      A                      A
 Frequencies --   1263.4904              1277.6697              1289.9670
 Red. masses --      1.5665                 1.5531                 1.5863
 Frc consts  --      1.4734                 1.4938                 1.5553
 IR Inten    --      4.6892                 5.9744                 4.3237

                     67                     68                     69
                      A                      A                      A
 Frequencies --   1330.5376              1341.8138              1345.8825
 Red. masses --      1.6730                 1.3224                 1.5999
 Frc consts  --      1.7450                 1.4028                 1.7075
 IR Inten    --      1.0409                 1.0925                 0.7098

                     70                     71                     72
                      A                      A                      A
 Frequencies --   1355.9101              1369.0454              1376.6251
 Red. masses --      1.3007                 1.3565                 1.3678
 Frc consts  --      1.4089                 1.4980                 1.5273
 IR Inten    --      7.5665                 6.7522                18.4579

                     73                     74                     75
                      A                      A                      A
 Frequencies --   1380.1035              1391.8263              1408.2532
 Red. masses --      1.7561                 1.4900                 1.5556
 Frc consts  --      1.9707                 1.7007                 1.8176
 IR Inten    --      5.0497                 1.2698                 4.7304

                     76                     77                     78
                      A                      A                      A
 Frequencies --   1418.9817              1426.7221              1428.8289
 Red. masses --      1.4107                 1.3287                 1.3645
 Frc consts  --      1.6736                 1.5935                 1.6413
 IR Inten    --     10.3647                 9.5286                 6.3677

                     79                     80                     81
                      A                      A                      A
 Frequencies --   1431.3167              1434.8937              1445.7826
 Red. masses --      1.2773                 1.3031                 1.2563
 Frc consts  --      1.5417                 1.5807                 1.5472
 IR Inten    --      0.8208                12.0790                 6.3442

                     82                     83                     84
                      A                      A                      A
 Frequencies --   1446.3888              1505.4983              1507.8892
 Red. masses --      1.2649                 1.0728                 1.0622
 Frc consts  --      1.5592                 1.4326                 1.4230
 IR Inten    --      1.8985                 1.5800                 2.2233

                     85                     86                     87
                      A                      A                      A
 Frequencies --   1512.4433              1513.3604              1515.6063
 Red. masses --      1.0647                 1.0672                 1.0705
 Frc consts  --      1.4350                 1.4401                 1.4489
 IR Inten    --      1.6922                 3.3206                 7.3244

                     88                     89                     90
                      A                      A                      A
 Frequencies --   1518.5098              1521.0931              1524.8829
 Red. masses --      1.0615                 1.0618                 1.0722
 Frc consts  --      1.4422                 1.4475                 1.4689
 IR Inten    --      3.8324                 4.1489                 6.1382

                     91                     92                     93
                      A                      A                      A
 Frequencies --   1526.3510              1527.6259              1531.4527
 Red. masses --      1.0697                 1.0469                 1.0608
 Frc consts  --      1.4683                 1.4395                 1.4658
 IR Inten    --      7.1613                 2.6770                 1.2904

                     94                     95                     96
                      A                      A                      A
 Frequencies --   1532.2660              1532.7742              1535.0075
 Red. masses --      1.0688                 1.0488                 1.0860
 Frc consts  --      1.4784                 1.4517                 1.5077
 IR Inten    --      2.0303                 4.2359                 0.1076

                     97                     98                     99
                      A                      A                      A
 Frequencies --   1543.0153              1739.7126              3013.0992
 Red. masses --      1.0724                 7.5656                 1.0809
 Frc consts  --      1.5044                13.4911                 5.7817
 IR Inten    --      5.1818                 0.1207                41.6438

                    100                    101                    102
                      A                      A                      A
 Frequencies --   3016.7288              3025.0367              3025.5870
 Red. masses --      1.0707                 1.0600                 1.0490
 Frc consts  --      5.7408                 5.7150                 5.6579
 IR Inten    --     11.0769                45.8451                15.4494

                    103                    104                    105
                      A                      A                      A
 Frequencies --   3036.8093              3038.2951              3040.8503
 Red. masses --      1.0553                 1.0443                 1.0357
 Frc consts  --      5.7339                 5.6799                 5.6424
 IR Inten    --      8.2048                31.3418                33.1956

                    106                    107                    108
                      A                      A                      A
 Frequencies --   3041.9153              3043.4473              3052.6428
 Red. masses --      1.0383                 1.0437                 1.0636
 Frc consts  --      5.6606                 5.6957                 5.8397
 IR Inten    --     57.0654                34.4105                35.4295

                    109                    110                    111
                      A                      A                      A
 Frequencies --   3054.7523              3064.4318              3065.1936
 Red. masses --      1.0688                 1.1013                 1.0985
 Frc consts  --      5.8763                 6.0934                 6.0809
 IR Inten    --     37.5167                30.1183                30.3802

                    112                    113                    114
                      A                      A                      A
 Frequencies --   3070.0682              3094.3206              3097.8938
 Red. masses --      1.0829                 1.0899                 1.0980
 Frc consts  --      6.0137                 6.1482                 6.2085
 IR Inten    --     44.5335                38.2545                13.3106

                    115                    116                    117
                      A                      A                      A
 Frequencies --   3099.5591              3101.0302              3108.4670
 Red. masses --      1.1041                 1.0986                 1.0976
 Frc consts  --      6.2499                 6.2245                 6.2487
 IR Inten    --     31.3098                 3.7273                83.6154

                    118                    119                    120
                      A                      A                      A
 Frequencies --   3108.5082              3111.1528              3112.7359
 Red. masses --      1.1023                 1.1019                 1.1012
 Frc consts  --      6.2758                 6.2838                 6.2866
 IR Inten    --     27.1715                36.7644                47.1206

                    121                    122                    123
                      A                      A                      A
 Frequencies --   3114.6575              3118.6621              3129.4543
 Red. masses --      1.0944                 1.0947                 1.1020
 Frc consts  --      6.2550                 6.2729                 6.3590
 IR Inten    --      6.7931                44.9781                42.1134

                    124                    125                    126
                      A                      A                      A
 Frequencies --   3133.0937              3141.6730              3728.4697
 Red. masses --      1.0946                 1.1003                 1.0659
 Frc consts  --      6.3305                 6.3984                 8.7306
 IR Inten    --     24.0631                24.7244                 5.2045

 - Thermochemistry -
 -------------------
 Temperature   298.150 Kelvin.  Pressure   1.00000 Atm.
 Atom     1 has atomic number  6 and mass  12.00000

 Molecular mass:   224.21402 amu.
 Principal axes and moments of inertia in atomic units:
                           1         2         3
     Eigenvalues --  2090.979086168.964096696.04316
           X            0.99998   0.00109  -0.00588
           Y           -0.00106   0.99998   0.00582
           Z            0.00589  -0.00581   0.99997
 This molecule is an asymmetric top.
 Rotational symmetry number  1.
 Warning -- assumption of classical behavior for rotation
           may cause significant error
 Rotational temperatures (Kelvin)      0.04142     0.01404     0.01294
 Rotational constants (GHZ):           0.86311     0.29255     0.26952
 Zero-point vibrational energy    1067959.9 (Joules/Mol)
                                  255.24855 (Kcal/Mol)
 Warning -- explicit consideration of  31 degrees of freedom as
           vibrations may cause significant error
 Vibrational temperatures:     36.82    63.31    70.38    93.12   142.20
          (Kelvin)            145.58   220.72   236.02   257.66   291.11
                              323.41   338.65   350.34   357.10   374.19
                              375.52   410.13   419.51   443.55   475.31
                              511.12   537.27   558.41   602.81   632.26
                              655.78   697.23   749.96   816.34   826.04
                              877.18   924.36  1031.05  1059.17  1139.79
                             1158.64  1222.77  1255.29  1304.65  1319.88
                             1339.54  1343.83  1392.18  1402.38  1416.45
                             1431.98  1445.48  1465.83  1491.69  1501.06
                             1519.86  1540.82  1575.10  1599.51  1609.97
                             1617.16  1632.40  1680.41  1687.92  1721.07
                             1743.10  1760.79  1779.51  1817.88  1838.28
                             1855.97  1914.35  1930.57  1936.42  1950.85
                             1969.75  1980.66  1985.66  2002.53  2026.16
                             2041.60  2052.73  2055.77  2059.35  2064.49
                             2080.16  2081.03  2166.08  2169.52  2176.07
                             2177.39  2180.62  2184.80  2188.51  2193.97
                             2196.08  2197.91  2203.42  2204.59  2205.32
                             2208.53  2220.05  2503.06  4335.18  4340.40
                             4352.35  4353.14  4369.29  4371.43  4375.11
                             4376.64  4378.84  4392.07  4395.11  4409.03
                             4410.13  4417.14  4452.04  4457.18  4459.57
                             4461.69  4472.39  4472.45  4476.25  4478.53
                             4481.30  4487.06  4502.59  4507.82  4520.17
                             5364.44

 Zero-point correction=                           0.406764 (Hartree/Particle)
 Thermal correction to Energy=                    0.425881
 Thermal correction to Enthalpy=                  0.426825
 Thermal correction to Gibbs Free Energy=         0.360001
 Sum of electronic and zero-point Energies=           -663.358332
 Sum of electronic and thermal Energies=              -663.339215
 Sum of electronic and thermal Enthalpies=            -663.338271
 Sum of electronic and thermal Free Energies=         -663.405095

                     E (Thermal)             CV                S
                      KCal/Mol        Cal/Mol-Kelvin    Cal/Mol-Kelvin
 Total                  267.245             73.244            140.645
 Electronic               0.000              0.000              0.000
 Translational            0.889              2.981             42.125
 Rotational               0.889              2.981             32.824
 Vibrational            265.467             67.282             65.696
 Vibration     1          0.593              1.985              6.145
 Vibration     2          0.595              1.980              5.070
 Vibration     3          0.595              1.978              4.861
 Vibration     4          0.597              1.971              4.308
 Vibration     5          0.604              1.950              3.477
 Vibration     6          0.604              1.948              3.431
 Vibration     7          0.619              1.899              2.630
 Vibration     8          0.623              1.887              2.503
 Vibration     9          0.629              1.868              2.338
 Vibration    10          0.639              1.837              2.112
 Vibration    11          0.649              1.803              1.920
 Vibration    12          0.655              1.787              1.838
 Vibration    13          0.659              1.774              1.777
 Vibration    14          0.662              1.766              1.743
 Vibration    15          0.668              1.746              1.661
 Vibration    16          0.669              1.744              1.655
 Vibration    17          0.683              1.701              1.503
 Vibration    18          0.687              1.689              1.465
 Vibration    19          0.698              1.658              1.372
 Vibration    20          0.713              1.615              1.258
 Vibration    21          0.731              1.564              1.143
 Vibration    22          0.745              1.527              1.066
 Vibration    23          0.756              1.496              1.007
 Vibration    24          0.782              1.429              0.895
 Vibration    25          0.799              1.384              0.828
 Vibration    26          0.814              1.348              0.778
 Vibration    27          0.841              1.284              0.698
 Vibration    28          0.876              1.203              0.607
 Vibration    29          0.923              1.102              0.509
 Vibration    30          0.930              1.087              0.496
 Vibration    31          0.969              1.011              0.433

                           ! Non-Optimized Parameters !
 Normal termination of Gaussian 16 at Thu Dec 10 23:45:15 2020.

 ----------------------------------------------------------------------
 # B3LYP/6-311++G(d,p) empiricaldispersion=gd3bj scf=xqc pop=npa geom=c
 heck
 ----------------------------------------------------------------------

 --------------------------------------
 CID_71124130_JID_6522_Energie_neutraal
 --------------------------------------
 Structure from the checkpoint file:  "JID_6522.chk"
 Charge =  0 Multiplicity = 1

 SCF Done:  E(RB3LYP) =  -663.955582479     A.U. after   13 cycles
 Normal termination of Gaussian 16 at Thu Dec 10 23:53:34 2020.

 ----------------------------------------------------------------------
 # B3LYP/6-311++G(d,p) empiricaldispersion=gd3bj scf=xqc pop=npa geom=c
 heck
 ----------------------------------------------------------------------

 ------------------------------------
 CID_71124130_JID_6522_Energie_kation
 ------------------------------------
 Structure from the checkpoint file:  "JID_6522.chk"
 Charge =  1 Multiplicity = 2

 SCF Done:  E(UB3LYP) =  -663.671265659     A.U. after   21 cycles
 Normal termination of Gaussian 16 at Fri Dec 11 00:11:34 2020.
 Gaussian 16:  ES64L-G16RevA.03 25-Dec-2016

 ----------------------------------------------------------------------
 # B3LYP/6-311++G(d,p) empiricaldispersion=gd3bj scf=xqc pop=npa geom=c
 heck
 ----------------------------------------------------------------------

 -----------------------------------
 CID_71124130_JID_6522_Energie_anion
 -----------------------------------
 Structure from the checkpoint file:  "JID_6522.chk"
 Charge = -1 Multiplicity = 2

                         Standard orientation:
 ---------------------------------------------------------------------
 Center     Atomic      Atomic             Coordinates (Angstroms)
 Number     Number       Type             X           Y           Z
 ---------------------------------------------------------------------
      1          6           0       -4.309220    1.180945    0.403444
      2          6           0       -3.083702    1.083633   -0.521872
      3          6           0       -3.160047   -0.119195   -1.492683
      4          6           0       -2.357906   -1.240340   -0.798703
      5          6           0       -1.414944   -0.479983    0.118250
      6          6           0       -1.808462    0.798317    0.258771
      7          6           0       -1.190717    1.871934    1.103958
      8          6           0       -0.247530   -1.156838    0.786416
      9          6           0       -0.724912   -2.243414    1.766942
     10          6           0        0.746186   -1.762031   -0.228481
     11          6           0        1.190023   -0.814462   -1.352212
     12          6           0        1.787528    0.537962   -0.932761
     13          6           0        3.064211    0.533370   -0.075175
     14          6           0        4.150638   -0.383387   -0.649410
     15          6           0        3.590453    1.968952    0.061159
     16          8           0        2.673712    0.061418    1.230010
     17          1           0       -5.221194    1.380100   -0.171651
     18          1           0       -4.195434    1.985864    1.138512
     19          1           0       -4.451326    0.243724    0.954779
     20          1           0       -3.001628    2.031035   -1.074534
     21          1           0       -4.189765   -0.408247   -1.729722
     22          1           0       -2.667275    0.144555   -2.435652
     23          1           0       -3.010555   -1.906831   -0.215137
     24          1           0       -1.831959   -1.882484   -1.515700
     25          1           0       -0.273253    1.542567    1.599102
     26          1           0       -0.948123    2.755219    0.496326
     27          1           0       -1.886094    2.213866    1.882831
     28          1           0        0.307035   -0.414587    1.365630
     29          1           0       -1.270060   -3.039870    1.246028
     30          1           0        0.129509   -2.703141    2.277462
     31          1           0       -1.391510   -1.821348    2.527184
     32          1           0        1.618947   -2.111122    0.333110
     33          1           0        0.294193   -2.650230   -0.692614
     34          1           0        1.901502   -1.345025   -1.998552
     35          1           0        0.321449   -0.591004   -1.985157
     36          1           0        2.013409    1.101718   -1.847480
     37          1           0        1.033034    1.119636   -0.394196
     38          1           0        4.415667   -0.091737   -1.671999
     39          1           0        5.062900   -0.325923   -0.041373
     40          1           0        3.816278   -1.424075   -0.661545
     41          1           0        2.812666    2.618081    0.476267
     42          1           0        4.457743    2.000723    0.733593
     43          1           0        3.904938    2.375090   -0.906659
     44          1           0        3.469630    0.059315    1.785217
 ---------------------------------------------------------------------

 SCF Done:  E(UB3LYP) =  -663.942692838     A.U. after   33 cycles
 SCF Done:  E(UB3LYP) =  -663.942692838     a.u. after    1 cycles

 The electronic state is 2-A.
 Alpha  occ. eigenvalues --  -19.01400 -10.12570 -10.07853 -10.07167 -10.07081
 Alpha  occ. eigenvalues --  -10.06872 -10.06783 -10.06777 -10.06672 -10.06511
 Alpha  occ. eigenvalues --  -10.06374 -10.06234 -10.05947 -10.05924 -10.05674
 Alpha  occ. eigenvalues --  -10.05533  -0.91781  -0.76065  -0.71196  -0.68999
 Alpha  occ. eigenvalues --   -0.65191  -0.64876  -0.63364  -0.59125  -0.57882
 Alpha  occ. eigenvalues --   -0.57472  -0.55049  -0.52302  -0.49251  -0.46129
 Alpha  occ. eigenvalues --   -0.44524  -0.40224  -0.38947  -0.38372  -0.36950
 Alpha  occ. eigenvalues --   -0.36658  -0.35584  -0.34267  -0.33181  -0.32912
 Alpha  occ. eigenvalues --   -0.31849  -0.31553  -0.31012  -0.30398  -0.29937
 Alpha  occ. eigenvalues --   -0.29404  -0.28803  -0.28196  -0.27338  -0.26682
 Alpha  occ. eigenvalues --   -0.26493  -0.26006  -0.25112  -0.24662  -0.23868
 Alpha  occ. eigenvalues --   -0.23474  -0.23015  -0.22016  -0.21500  -0.20884
 Alpha  occ. eigenvalues --   -0.20368  -0.17085  -0.12981   0.04192
 Alpha virt. eigenvalues --    0.05731   0.07049   0.07117   0.07783   0.08283
 Alpha virt. eigenvalues --    0.08476   0.09196   0.09384   0.09911   0.10114
 Alpha virt. eigenvalues --    0.10343   0.10900   0.11270   0.12001   0.12333

  Beta  occ. eigenvalues --  -19.01365 -10.12569 -10.07846 -10.07159 -10.07071
  Beta  occ. eigenvalues --  -10.06869 -10.06776 -10.06762 -10.06656 -10.06507
  Beta  occ. eigenvalues --  -10.06366 -10.06224 -10.05941 -10.05908 -10.05632
  Beta  occ. eigenvalues --  -10.05495  -0.91705  -0.76053  -0.71175  -0.68969
  Beta  occ. eigenvalues --   -0.65172  -0.64848  -0.63339  -0.59054  -0.57845
  Beta  occ. eigenvalues --   -0.57441  -0.55014  -0.52263  -0.49210  -0.46087
  Beta  occ. eigenvalues --   -0.44476  -0.40195  -0.38899  -0.38344  -0.36926
  Beta  occ. eigenvalues --   -0.36633  -0.35562  -0.34222  -0.33156  -0.32885
  Beta  occ. eigenvalues --   -0.31826  -0.31528  -0.30978  -0.30375  -0.29919
  Beta  occ. eigenvalues --   -0.29381  -0.28766  -0.28172  -0.27315  -0.26652
  Beta  occ. eigenvalues --   -0.26472  -0.25972  -0.25076  -0.24638  -0.23847
  Beta  occ. eigenvalues --   -0.23452  -0.22992  -0.21996  -0.21474  -0.20869
  Beta  occ. eigenvalues --   -0.20336  -0.17048  -0.12966
  Beta virt. eigenvalues --    0.05980   0.06814   0.07231   0.07445   0.08271
  Beta virt. eigenvalues --    0.08634   0.08944   0.09409   0.09551   0.10227
  Beta virt. eigenvalues --    0.10433   0.10654   0.11119   0.11470   0.12219

 Mulliken charges and spin densities:
               1          2
     1  C    0.423691  -1.231426
     2  C   -1.207145   1.576808
     3  C    0.356097  -0.907719
     4  C   -0.156659  -0.185276
     5  C    0.265013  -0.094692
     6  C   -0.354761   0.381023
     7  C    0.101489  -0.752301
     8  C    0.658740  -0.300721
     9  C   -0.316496  -0.414202
    10  C   -1.162542   0.667760
    11  C    0.563113  -0.785384
    12  C    0.186340  -0.561925
    13  C   -1.655034   1.636984
    14  C    0.808107  -1.464399
    15  C    0.895037  -1.358825
    16  O   -0.153633   0.025093
    17  H   -0.147821   0.288176
    18  H   -0.046878   0.172493
    19  H    0.024690   0.130644
    20  H   -0.188582   0.405602
    21  H   -0.024357   0.185499
    22  H   -0.009928   0.145834
    23  H    0.054480   0.104064
    24  H    0.120458   0.019803
    25  H   -0.142573   0.279088
    26  H   -0.046582   0.209227
    27  H    0.067819   0.077218
    28  H    0.498550  -0.243301
    29  H    0.101895   0.046053
    30  H   -0.000745   0.140938
    31  H    0.065162   0.062158
    32  H    0.200187  -0.007893
    33  H    0.020669   0.124595
    34  H    0.118553   0.047660
    35  H    0.213292  -0.056942
    36  H   -0.442878   0.633042
    37  H    0.595353  -0.393034
    38  H   -0.089791   0.250420
    39  H   -0.443460   0.585943
    40  H   -0.138233   0.273024
    41  H    0.002437   0.147164
    42  H   -0.408075   0.545884
    43  H   -0.127383   0.268119
    44  H   -0.077618   0.327721
 Sum of Mulliken charges =  -1.00000   1.00000

 Dipole moment (field-independent basis, Debye):
    X=             -4.9100    Y=             -2.9299    Z=             -0.3488  Tot=              5.7284
 Quadrupole moment (field-independent basis, Debye-Ang):
   XX=           -204.8491   YY=           -143.3980   ZZ=           -141.8160
   XY=              0.2002   XZ=             -4.5843   YZ=              2.1486

 Summary of Natural Population Analysis:

                                       Natural Population
                Natural  -----------------------------------------------
    Atom  No    Charge         Core      Valence    Rydberg      Total
 -----------------------------------------------------------------------
      C    1   -0.28092      0.99965     2.27648    0.00479     3.28092
      C    2   -0.11855      0.99957     2.10790    0.01107     3.11855
      C    3   -0.18328      0.99963     2.17475    0.00889     3.18328
      C    4   -0.20157      0.99960     2.19509    0.00689     3.20157
      C    5   -0.00103      0.99940     1.98946    0.01217     3.00103
      C    6   -0.01028      0.99939     2.00057    0.01032     3.01028
      C    7   -0.30076      0.99962     2.29494    0.00620     3.30076
      C    8   -0.13368      0.99955     2.12433    0.00981     3.13368
      C    9   -0.27651      0.99965     2.27229    0.00457     3.27651
      C   10   -0.18512      0.99961     2.17629    0.00921     3.18512
      C   11   -0.18907      0.99962     2.18115    0.00830     3.18907
      C   12   -0.19677      0.99956     2.18700    0.01020     3.19677
      C   13    0.12521      0.99955     1.86056    0.01468     2.87479
      C   14   -0.29876      0.99961     2.29217    0.00698     3.29876
      C   15   -0.29312      0.99961     2.28669    0.00682     3.29312
      O   16   -0.38211      0.99989     3.37505    0.00717     4.38211
      H   17    0.09689      0.00000     0.40200    0.00111     0.40311
      H   18    0.09812      0.00000     0.40088    0.00100     0.40188
      H   19    0.09649      0.00000     0.40248    0.00103     0.40351
      H   20    0.09527      0.00000     0.40294    0.00179     0.40473
      H   21    0.09532      0.00000     0.40379    0.00089     0.40468
      H   22    0.09788      0.00000     0.40084    0.00128     0.40212
      H   23    0.09665      0.00000     0.40212    0.00123     0.40335
      H   24    0.09902      0.00000     0.39979    0.00119     0.40098
      H   25    0.10862      0.00000     0.39034    0.00104     0.39138
      H   26    0.10317      0.00000     0.39570    0.00114     0.39683
      H   27    0.10169      0.00000     0.39736    0.00095     0.39831
      H   28    0.11402      0.00000     0.38337    0.00261     0.38598
      H   29    0.09290      0.00000     0.40622    0.00088     0.40710
      H   30    0.09910      0.00000     0.40014    0.00076     0.40090
      H   31    0.09820      0.00000     0.40101    0.00079     0.40180
      H   32    0.10451      0.00000     0.39424    0.00125     0.39549
      H   33    0.09067      0.00000     0.40834    0.00099     0.40933
      H   34    0.09592      0.00000     0.40311    0.00097     0.40408
      H   35    0.09780      0.00000     0.40091    0.00129     0.40220
      H   36    0.10109      0.00000     0.39771    0.00121     0.39891
      H   37    0.10366      0.00000     0.39373    0.00260     0.39634
      H   38    0.10231      0.00000     0.39651    0.00118     0.39769
      H   39    0.10108      0.00000     0.39728    0.00164     0.39892
      H   40    0.10228      0.00000     0.39660    0.00113     0.39772
      H   41    0.10233      0.00000     0.39633    0.00135     0.39767
      H   42    0.09946      0.00000     0.39903    0.00151     0.40054
      H   43    0.10114      0.00000     0.39763    0.00123     0.39886
      H   44    0.23072      0.00000     0.26444    0.00483     0.26928
 =======================================================================
   * Total *    0.00000     15.99351    46.82955    0.17694    63.00000

 Normal termination of Gaussian 16 at Fri Dec 11 00:39:48 2020.
