 Gaussian 16, Revision A.03,

 -----------------------------------------------------------
 # opt freq B3LYP/6-31G(d) empiricaldispersion=gd3bj scf=xqc
 -----------------------------------------------------------

 ------------------------------
 CID_65736614_JID_9350_neutraal
 ------------------------------
 Symbolic Z-matrix:
 Charge =  0 Multiplicity = 1

 SCF Done:  E(RB3LYP) =  -1279.06537644     A.U. after   15 cycles
 SCF Done:  E(RB3LYP) =  -1279.07774211     A.U. after   13 cycles
 SCF Done:  E(RB3LYP) =  -1279.07609778     A.U. after   14 cycles
 SCF Done:  E(RB3LYP) =  -1279.07727188     A.U. after   13 cycles
 SCF Done:  E(RB3LYP) =  -1279.07951214     A.U. after   10 cycles
 SCF Done:  E(RB3LYP) =  -1279.08121501     A.U. after   14 cycles
 SCF Done:  E(RB3LYP) =  -1279.08198907     A.U. after   12 cycles
 SCF Done:  E(RB3LYP) =  -1279.08035111     A.U. after   12 cycles
 SCF Done:  E(RB3LYP) =  -1279.08222055     A.U. after   11 cycles
 SCF Done:  E(RB3LYP) =  -1279.08238910     A.U. after   11 cycles
 SCF Done:  E(RB3LYP) =  -1279.08251216     A.U. after    7 cycles
 SCF Done:  E(RB3LYP) =  -1279.08251228     A.U. after    7 cycles
 SCF Done:  E(RB3LYP) =  -1279.08251234     A.U. after    7 cycles
 SCF Done:  E(RB3LYP) =  -1279.08251241     A.U. after    7 cycles
 SCF Done:  E(RB3LYP) =  -1279.08251244     A.U. after    7 cycles
 Optimization completed.
    -- Stationary point found.
 Normal termination of Gaussian 16 at Mon Dec 14 13:42:08 2020.

 --------------------------------------------------------------------
 #N Geom=AllCheck Guess=TCheck SCRF=Check GenChk RB3LYP/6-31G(d) Freq
 --------------------------------------------------------------------

 Structure from the checkpoint file:  "JID_9350.chk"
 ------------------------------
 CID_65736614_JID_9350_neutraal
 ------------------------------
 Charge =  0 Multiplicity = 1

 SCF Done:  E(RB3LYP) =  -1279.08251244     A.U. after    1 cycles

  Exact polarizability: 208.670  -6.499 136.572   0.034  -5.160 150.583
 Approx polarizability: 265.194 -12.857 202.644  -6.674  -7.018 254.091

                      1                      2                      3
                      A                      A                      A
 Frequencies --     18.6025                27.6847                40.9912
 Red. masses --      4.2066                 5.3553                 4.1811
 Frc consts  --      0.0009                 0.0024                 0.0041
 IR Inten    --      0.7811                 0.9223                 0.5766

                      4                      5                      6
                      A                      A                      A
 Frequencies --     49.5645                68.0265                71.5486
 Red. masses --      3.5158                 3.2470                 3.7021
 Frc consts  --      0.0051                 0.0089                 0.0112
 IR Inten    --      4.5870                 0.3906                 5.9262

                      7                      8                      9
                      A                      A                      A
 Frequencies --     84.4216                90.3849               122.7573
 Red. masses --      2.1376                 2.9061                 3.0507
 Frc consts  --      0.0090                 0.0140                 0.0271
 IR Inten    --      0.3818                 1.0364                 2.8596

                     10                     11                     12
                      A                      A                      A
 Frequencies --    133.3471               153.1127               161.7858
 Red. masses --      5.3844                 3.5493                 3.8677
 Frc consts  --      0.0564                 0.0490                 0.0596
 IR Inten    --      1.6134                 0.4318                 4.0462

                     13                     14                     15
                      A                      A                      A
 Frequencies --    180.8658               199.4305               212.1484
 Red. masses --      1.3564                 1.6122                 2.2142
 Frc consts  --      0.0261                 0.0378                 0.0587
 IR Inten    --      0.5637                 0.4477                 3.0434

                     16                     17                     18
                      A                      A                      A
 Frequencies --    222.7535               250.2426               262.7942
 Red. masses --      1.7994                 1.5743                 3.9226
 Frc consts  --      0.0526                 0.0581                 0.1596
 IR Inten    --      0.5493                 0.3284                 2.4023

                     19                     20                     21
                      A                      A                      A
 Frequencies --    284.7742               286.4630               293.8676
 Red. masses --      3.6398                 2.8103                 5.6347
 Frc consts  --      0.1739                 0.1359                 0.2867
 IR Inten    --      2.1451                 5.6362                 4.0423

                     22                     23                     24
                      A                      A                      A
 Frequencies --    316.8411               338.6458               389.0680
 Red. masses --      3.3787                 3.0007                 2.9569
 Frc consts  --      0.1998                 0.2027                 0.2637
 IR Inten    --      2.4007                 5.6679                 0.6234

                     25                     26                     27
                      A                      A                      A
 Frequencies --    401.9929               420.1963               431.2220
 Red. masses --      1.3687                 2.4405                 3.6532
 Frc consts  --      0.1303                 0.2539                 0.4002
 IR Inten    --    140.4377                 3.6337                27.7728

                     28                     29                     30
                      A                      A                      A
 Frequencies --    466.9849               492.7421               497.2093
 Red. masses --      2.7656                 3.4737                 4.3589
 Frc consts  --      0.3553                 0.4969                 0.6349
 IR Inten    --     13.1061                35.1795                20.0758

                     31                     32                     33
                      A                      A                      A
 Frequencies --    533.5480               542.5687               571.6377
 Red. masses --      3.9011                 3.9549                 1.7062
 Frc consts  --      0.6543                 0.6860                 0.3285
 IR Inten    --      8.3758                 3.7153                59.2433

                     34                     35                     36
                      A                      A                      A
 Frequencies --    618.6531               641.9778               655.8744
 Red. masses --      4.2436                 3.6573                 2.3925
 Frc consts  --      0.9569                 0.8881                 0.6064
 IR Inten    --     75.5718                 8.3126                 2.5681

                     37                     38                     39
                      A                      A                      A
 Frequencies --    697.0749               739.1642               779.3479
 Red. masses --      5.1133                 3.5554                 1.3423
 Frc consts  --      1.4639                 1.1445                 0.4804
 IR Inten    --    233.3103                15.9782                 1.4652

                     40                     41                     42
                      A                      A                      A
 Frequencies --    786.5354               826.3393               832.6514
 Red. masses --      1.3433                 1.3185                 2.0113
 Frc consts  --      0.4896                 0.5304                 0.8216
 IR Inten    --      7.0644                30.6159                15.6785

                     43                     44                     45
                      A                      A                      A
 Frequencies --    865.1261               892.3273               965.2536
 Red. masses --      2.0807                 2.9694                 1.8656
 Frc consts  --      0.9175                 1.3931                 1.0241
 IR Inten    --      4.5512               105.0114                27.1672

                     46                     47                     48
                      A                      A                      A
 Frequencies --    974.8677               981.6338               991.3004
 Red. masses --      2.8771                 2.0341                 3.3777
 Frc consts  --      1.6110                 1.1548                 1.9556
 IR Inten    --     11.7998                 9.8987                61.9099

                     49                     50                     51
                      A                      A                      A
 Frequencies --    994.4009              1000.7749              1013.3400
 Red. masses --      1.2344                 3.0834                 1.8842
 Frc consts  --      0.7192                 1.8195                 1.1400
 IR Inten    --     11.7939                11.6283                25.6023

                     52                     53                     54
                      A                      A                      A
 Frequencies --   1051.3090              1057.5126              1099.8047
 Red. masses --      2.6974                 4.3645                 3.8772
 Frc consts  --      1.7565                 2.8758                 2.7631
 IR Inten    --     15.8608                48.0223                53.1194

                     55                     56                     57
                      A                      A                      A
 Frequencies --   1109.0736              1133.6356              1137.4370
 Red. masses --      2.7218                 2.4982                 1.7935
 Frc consts  --      1.9726                 1.8916                 1.3671
 IR Inten    --     71.4424                46.2942                86.8887

                     58                     59                     60
                      A                      A                      A
 Frequencies --   1149.8124              1153.8793              1172.9486
 Red. masses --      1.4851                 2.1766                 2.4967
 Frc consts  --      1.1568                 1.7074                 2.0238
 IR Inten    --     73.4769                21.8071                11.7222

                     61                     62                     63
                      A                      A                      A
 Frequencies --   1184.7237              1192.4515              1207.2386
 Red. masses --      1.9056                 1.7547                 1.1808
 Frc consts  --      1.5758                 1.4700                 1.0139
 IR Inten    --     52.9669                41.5003                47.6838

                     64                     65                     66
                      A                      A                      A
 Frequencies --   1221.5659              1235.4464              1262.9995
 Red. masses --      2.1714                 1.6531                 1.6639
 Frc consts  --      1.9090                 1.4866                 1.5639
 IR Inten    --     21.2982                13.9454                18.3402

                     67                     68                     69
                      A                      A                      A
 Frequencies --   1303.1800              1322.1104              1324.5163
 Red. masses --      4.7949                 1.5470                 4.6064
 Frc consts  --      4.7977                 1.5932                 4.7613
 IR Inten    --    114.2593                22.7493                 7.4040

                     70                     71                     72
                      A                      A                      A
 Frequencies --   1330.6194              1336.3768              1367.1488
 Red. masses --      1.2737                 1.1706                 1.2295
 Frc consts  --      1.3287                 1.2317                 1.3540
 IR Inten    --     29.3778                 8.6643                 2.9905

                     73                     74                     75
                      A                      A                      A
 Frequencies --   1371.1307              1397.7318              1415.8288
 Red. masses --      1.3848                 1.3920                 1.2501
 Frc consts  --      1.5339                 1.6023                 1.4765
 IR Inten    --      1.9910                 2.6250                11.8933

                     76                     77                     78
                      A                      A                      A
 Frequencies --   1421.3064              1427.7983              1431.1506
 Red. masses --      1.2966                 1.4438                 1.3542
 Frc consts  --      1.5432                 1.7342                 1.6343
 IR Inten    --     14.8147                87.3950                 9.1943

                     79                     80                     81
                      A                      A                      A
 Frequencies --   1433.3654              1441.7805              1446.8269
 Red. masses --      2.6275                 1.2458                 1.2727
 Frc consts  --      3.1806                 1.5258                 1.5697
 IR Inten    --      5.9058                 1.8005                23.8756

                     82                     83                     84
                      A                      A                      A
 Frequencies --   1467.4673              1496.9959              1506.1487
 Red. masses --      2.9013                 1.1372                 1.0569
 Frc consts  --      3.6812                 1.5015                 1.4127
 IR Inten    --     33.3451                 0.5023                 7.7287

                     85                     86                     87
                      A                      A                      A
 Frequencies --   1511.3407              1518.9799              1521.4687
 Red. masses --      1.0809                 1.0532                 1.0643
 Frc consts  --      1.4546                 1.4317                 1.4516
 IR Inten    --      1.7043                 1.6370                 1.5104

                     88                     89                     90
                      A                      A                      A
 Frequencies --   1523.0858              1530.7467              1532.6335
 Red. masses --      1.0995                 1.1114                 1.0515
 Frc consts  --      1.5028                 1.5344                 1.4553
 IR Inten    --      4.1655                 1.6013                 3.9634

                     91                     92                     93
                      A                      A                      A
 Frequencies --   1536.7250              1539.2499              1541.5715
 Red. masses --      4.0354                 1.0717                 1.0561
 Frc consts  --      5.6147                 1.4960                 1.4787
 IR Inten    --     27.0847                 6.4787                 2.4424

                     94                     95                     96
                      A                      A                      A
 Frequencies --   1545.1510              1627.4853              2995.5810
 Red. masses --      1.0554                 4.4995                 1.0522
 Frc consts  --      1.4845                 7.0218                 5.5632
 IR Inten    --      8.6010                 9.9083                41.7586

                     97                     98                     99
                      A                      A                      A
 Frequencies --   3007.1903              3019.6658              3033.8589
 Red. masses --      1.0635                 1.0736                 1.0636
 Frc consts  --      5.6667                 5.7676                 5.7680
 IR Inten    --     51.7186                42.8217                43.9526

                    100                    101                    102
                      A                      A                      A
 Frequencies --   3042.5825              3044.8138              3057.8441
 Red. masses --      1.0656                 1.0547                 1.0659
 Frc consts  --      5.8121                 5.7611                 5.8721
 IR Inten    --     10.4087                52.9399                18.3519

                    103                    104                    105
                      A                      A                      A
 Frequencies --   3068.7633              3070.4960              3082.5739
 Red. masses --      1.0391                 1.0990                 1.1012
 Frc consts  --      5.7654                 6.1048                 6.1653
 IR Inten    --     21.4370                50.1551                25.0368

                    106                    107                    108
                      A                      A                      A
 Frequencies --   3098.7664              3099.3968              3118.6130
 Red. masses --      1.0803                 1.0962                 1.0992
 Frc consts  --      6.1117                 6.2042                 6.2988
 IR Inten    --     37.4835                 8.5687                35.2074

                    109                    110                    111
                      A                      A                      A
 Frequencies --   3123.2548              3130.4505              3140.7507
 Red. masses --      1.1024                 1.1016                 1.1053
 Frc consts  --      6.3361                 6.3604                 6.4241
 IR Inten    --     44.3391                39.4805                24.1627

                    112                    113                    114
                      A                      A                      A
 Frequencies --   3145.5606              3174.4330              3280.2127
 Red. masses --      1.0903                 1.0999                 1.0965
 Frc consts  --      6.3560                 6.5305                 6.9514
 IR Inten    --     10.2630                 5.9073                 1.2693

                    115                    116                    117
                      A                      A                      A
 Frequencies --   3302.9466              3650.8285              3727.5468
 Red. masses --      1.0980                 1.0803                 1.0661
 Frc consts  --      7.0575                 8.4835                 8.7277
 IR Inten    --      2.8474                97.0407                15.6095

 - Thermochemistry -
 -------------------
 Temperature   298.150 Kelvin.  Pressure   1.00000 Atm.
 Atom     1 has atomic number  6 and mass  12.00000

 Molecular mass:   290.13003 amu.
 Principal axes and moments of inertia in atomic units:
                           1         2         3
     Eigenvalues --  3059.667558400.457629387.96834
           X            0.99999   0.00258  -0.00292
           Y           -0.00262   0.99991  -0.01352
           Z            0.00288   0.01352   0.99990
 This molecule is an asymmetric top.
 Rotational symmetry number  1.
 Warning -- assumption of classical behavior for rotation
           may cause significant error
 Rotational temperatures (Kelvin)      0.02831     0.01031     0.00923
 Rotational constants (GHZ):           0.58985     0.21484     0.19224
 Zero-point vibrational energy     914130.9 (Joules/Mol)
                                  218.48254 (Kcal/Mol)
 Warning -- explicit consideration of  34 degrees of freedom as
           vibrations may cause significant error
 Vibrational temperatures:     26.76    39.83    58.98    71.31    97.87
          (Kelvin)            102.94   121.46   130.04   176.62   191.86
                              220.30   232.77   260.23   286.94   305.23
                              320.49   360.04   378.10   409.73   412.16
                              422.81   455.86   487.24   559.78   578.38
                              604.57   620.43   671.89   708.95   715.37
                              767.66   780.64   822.46   890.10   923.66
                              943.66  1002.94  1063.49  1121.31  1131.65
                             1188.92  1198.00  1244.72  1283.86  1388.78
                             1402.62  1412.35  1426.26  1430.72  1439.89
                             1457.97  1512.60  1521.52  1582.37  1595.71
                             1631.05  1636.52  1654.32  1660.17  1687.61
                             1704.55  1715.67  1736.95  1757.56  1777.53
                             1817.17  1874.99  1902.22  1905.68  1914.46
                             1922.75  1967.02  1972.75  2011.02  2037.06
                             2044.94  2054.28  2059.11  2062.29  2074.40
                             2081.66  2111.36  2153.84  2167.01  2174.48
                             2185.47  2189.05  2191.38  2202.40  2205.12
                             2211.00  2214.64  2217.98  2223.13  2341.59
                             4309.97  4326.68  4344.63  4365.05  4377.60
                             4380.81  4399.56  4415.27  4417.76  4435.14
                             4458.43  4459.34  4486.99  4493.67  4504.02
                             4518.84  4525.76  4567.30  4719.49  4752.20
                             5252.73  5363.11

 Zero-point correction=                           0.348174 (Hartree/Particle)
 Thermal correction to Energy=                    0.369756
 Thermal correction to Enthalpy=                  0.370701
 Thermal correction to Gibbs Free Energy=         0.295923
 Sum of electronic and zero-point Energies=          -1278.734338
 Sum of electronic and thermal Energies=             -1278.712756
 Sum of electronic and thermal Enthalpies=           -1278.711812
 Sum of electronic and thermal Free Energies=        -1278.786590

                     E (Thermal)             CV                S
                      KCal/Mol        Cal/Mol-Kelvin    Cal/Mol-Kelvin
 Total                  232.026             78.617            157.384
 Electronic               0.000              0.000              0.000
 Translational            0.889              2.981             42.893
 Rotational               0.889              2.981             33.844
 Vibrational            230.248             72.656             80.646
 Vibration     1          0.593              1.986              6.778
 Vibration     2          0.593              1.984              5.989
 Vibration     3          0.594              1.981              5.211
 Vibration     4          0.595              1.978              4.835
 Vibration     5          0.598              1.969              4.210
 Vibration     6          0.598              1.968              4.110
 Vibration     7          0.601              1.960              3.785
 Vibration     8          0.602              1.956              3.652
 Vibration     9          0.610              1.930              3.056
 Vibration    10          0.613              1.920              2.897
 Vibration    11          0.619              1.899              2.633
 Vibration    12          0.622              1.889              2.529
 Vibration    13          0.630              1.866              2.319
 Vibration    14          0.638              1.841              2.138
 Vibration    15          0.643              1.822              2.025
 Vibration    16          0.648              1.806              1.937
 Vibration    17          0.663              1.762              1.729
 Vibration    18          0.670              1.741              1.643
 Vibration    19          0.683              1.702              1.505
 Vibration    20          0.684              1.699              1.495
 Vibration    21          0.689              1.685              1.452
 Vibration    22          0.704              1.641              1.326
 Vibration    23          0.719              1.598              1.219
 Vibration    24          0.757              1.494              1.004
 Vibration    25          0.768              1.466              0.955
 Vibration    26          0.783              1.426              0.891
 Vibration    27          0.792              1.402              0.855
 Vibration    28          0.824              1.323              0.746
 Vibration    29          0.848              1.266              0.677
 Vibration    30          0.853              1.256              0.665
 Vibration    31          0.889              1.176              0.579
 Vibration    32          0.898              1.156              0.560
 Vibration    33          0.928              1.093              0.501
 Vibration    34          0.979              0.992              0.419

                           ! Non-Optimized Parameters !
 Normal termination of Gaussian 16 at Mon Dec 14 14:07:04 2020.

 ----------------------------------------------------------------------
 # B3LYP/6-311++G(d,p) empiricaldispersion=gd3bj scf=xqc pop=npa geom=c
 heck
 ----------------------------------------------------------------------

 --------------------------------------
 CID_65736614_JID_9350_Energie_neutraal
 --------------------------------------
 Structure from the checkpoint file:  "JID_9350.chk"
 Charge =  0 Multiplicity = 1

 SCF Done:  E(RB3LYP) =  -1279.37449704     A.U. after   15 cycles
 Normal termination of Gaussian 16 at Mon Dec 14 14:18:53 2020.

 ----------------------------------------------------------------------
 # B3LYP/6-311++G(d,p) empiricaldispersion=gd3bj scf=xqc pop=npa geom=c
 heck
 ----------------------------------------------------------------------

 ------------------------------------
 CID_65736614_JID_9350_Energie_kation
 ------------------------------------
 Structure from the checkpoint file:  "JID_9350.chk"
 Charge =  1 Multiplicity = 2

 SCF Done:  E(UB3LYP) =  -1279.08132296     A.U. after   25 cycles
 Normal termination of Gaussian 16 at Mon Dec 14 14:47:06 2020.
 Gaussian 16:  ES64L-G16RevA.03 25-Dec-2016

 ----------------------------------------------------------------------
 # B3LYP/6-311++G(d,p) empiricaldispersion=gd3bj scf=xqc pop=npa geom=c
 heck
 ----------------------------------------------------------------------

 -----------------------------------
 CID_65736614_JID_9350_Energie_anion
 -----------------------------------
 Structure from the checkpoint file:  "JID_9350.chk"
 Charge = -1 Multiplicity = 2

                         Standard orientation:
 ---------------------------------------------------------------------
 Center     Atomic      Atomic             Coordinates (Angstroms)
 Number     Number       Type             X           Y           Z
 ---------------------------------------------------------------------
      1          6           0        5.126601   -0.368268   -0.439115
      2          6           0        3.690720   -0.697313   -0.022173
      3          6           0        2.660969    0.326093   -0.536113
      4          6           0        2.495217    0.331045   -2.056804
      5          7           0        1.342080    0.237336    0.158499
      6          6           0        1.262260    1.015731    1.406730
      7          6           0        0.947349    2.489952    1.160727
      8          8           0       -0.378082    2.699244    0.713310
      9          6           0       -0.519347    2.750607   -0.694892
     10         16           0        0.606481   -1.291180    0.270361
     11          8           0        0.920951   -2.003774   -0.972926
     12          8           0        0.892344   -1.914188    1.572364
     13          6           0       -1.091651   -0.861549    0.265645
     14          6           0       -1.907312   -0.870842    1.381182
     15          7           0       -3.141094   -0.460908    0.969182
     16          6           0       -3.139460   -0.205197   -0.390622
     17          6           0       -1.867992   -0.451357   -0.858031
     18          6           0       -4.388146    0.271776   -1.059418
     19          8           0       -5.540663   -0.438294   -0.602838
     20          1           0        5.256947   -0.415684   -1.525402
     21          1           0        5.831205   -1.077783    0.007423
     22          1           0        5.415973    0.638551   -0.111507
     23          1           0        3.412827   -1.692470   -0.383267
     24          1           0        3.628223   -0.734941    1.072422
     25          1           0        3.020680    1.321838   -0.247597
     26          1           0        2.166151   -0.644181   -2.417986
     27          1           0        1.753748    1.080705   -2.350541
     28          1           0        3.444435    0.586470   -2.538800
     29          1           0        0.463774    0.610365    2.029865
     30          1           0        2.195011    0.920619    1.982887
     31          1           0        1.044451    3.017449    2.118344
     32          1           0        1.670824    2.939844    0.463082
     33          1           0        0.084301    3.566121   -1.125517
     34          1           0       -0.235477    1.806441   -1.169562
     35          1           0       -1.575554    2.949515   -0.895910
     36          1           0       -1.689376   -1.157357    2.398079
     37          1           0       -3.976667   -0.419193    1.535186
     38          1           0       -1.520329   -0.359507   -1.876408
     39          1           0       -4.594896    1.319820   -0.813249
     40          1           0       -4.263860    0.209834   -2.149645
     41          1           0       -5.414630   -1.370549   -0.843433
 ---------------------------------------------------------------------

 SCF Done:  E(UB3LYP) =  -1279.36730541     A.U. after   33 cycles
 SCF Done:  E(UB3LYP) =  -1279.36730541     a.u. after    1 cycles

 The electronic state is 2-A.
 Alpha  occ. eigenvalues --  -88.97184 -19.03889 -19.03722 -19.02261 -19.02149
 Alpha  occ. eigenvalues --  -14.27955 -14.25191 -10.14018 -10.13644 -10.13141
 Alpha  occ. eigenvalues --  -10.12709 -10.12280 -10.11982 -10.11967 -10.10298
 Alpha  occ. eigenvalues --  -10.08507 -10.08347 -10.08215 -10.07168  -8.03283
 Alpha  occ. eigenvalues --   -5.99559  -5.99534  -5.99393  -1.02438  -0.95132
 Alpha  occ. eigenvalues --   -0.94012  -0.91399  -0.90268  -0.84878  -0.72282
 Alpha  occ. eigenvalues --   -0.70997  -0.68036  -0.67299  -0.64577  -0.61078
 Alpha  occ. eigenvalues --   -0.59341  -0.58157  -0.55410  -0.52629  -0.51679
 Alpha  occ. eigenvalues --   -0.50441  -0.46773  -0.45484  -0.42830  -0.41564
 Alpha  occ. eigenvalues --   -0.41195  -0.40236  -0.39282  -0.38755  -0.37629
 Alpha  occ. eigenvalues --   -0.37171  -0.36477  -0.36205  -0.35344  -0.34742
 Alpha  occ. eigenvalues --   -0.33812  -0.33315  -0.32149  -0.32007  -0.31161
 Alpha  occ. eigenvalues --   -0.30828  -0.30441  -0.29620  -0.28518  -0.27756
 Alpha  occ. eigenvalues --   -0.26092  -0.25935  -0.25469  -0.25062  -0.23542
 Alpha  occ. eigenvalues --   -0.23069  -0.22170  -0.21146  -0.20348  -0.19126
 Alpha  occ. eigenvalues --   -0.17654  -0.15521  -0.14028   0.03632
 Alpha virt. eigenvalues --    0.04879   0.06395   0.06524   0.07310   0.07597
 Alpha virt. eigenvalues --    0.08111   0.08739   0.08913   0.09040   0.09570
 Alpha virt. eigenvalues --    0.10388   0.10623   0.11022   0.11252   0.11743

  Beta  occ. eigenvalues --  -88.97183 -19.03882 -19.03663 -19.02259 -19.02146
  Beta  occ. eigenvalues --  -14.27905 -14.25188 -10.13988 -10.13628 -10.13133
  Beta  occ. eigenvalues --  -10.12699 -10.12274 -10.11969 -10.11966 -10.10302
  Beta  occ. eigenvalues --  -10.08483 -10.08344 -10.08196 -10.07157  -8.03282
  Beta  occ. eigenvalues --   -5.99557  -5.99534  -5.99392  -1.02432  -0.95120
  Beta  occ. eigenvalues --   -0.93894  -0.91394  -0.90213  -0.84869  -0.72254
  Beta  occ. eigenvalues --   -0.70963  -0.67985  -0.67274  -0.64552  -0.61043
  Beta  occ. eigenvalues --   -0.59280  -0.58108  -0.55371  -0.52592  -0.51642
  Beta  occ. eigenvalues --   -0.50386  -0.46721  -0.45453  -0.42803  -0.41544
  Beta  occ. eigenvalues --   -0.41111  -0.40215  -0.39259  -0.38734  -0.37611
  Beta  occ. eigenvalues --   -0.37143  -0.36423  -0.36178  -0.35312  -0.34719
  Beta  occ. eigenvalues --   -0.33770  -0.33292  -0.32098  -0.31986  -0.31143
  Beta  occ. eigenvalues --   -0.30806  -0.30421  -0.29600  -0.28496  -0.27736
  Beta  occ. eigenvalues --   -0.26074  -0.25886  -0.25454  -0.25049  -0.23517
  Beta  occ. eigenvalues --   -0.23057  -0.22162  -0.21131  -0.20291  -0.19094
  Beta  occ. eigenvalues --   -0.17613  -0.15481  -0.13993
  Beta virt. eigenvalues --    0.05470   0.06210   0.06802   0.06914   0.07843
  Beta virt. eigenvalues --    0.08025   0.08424   0.08907   0.09128   0.09332
  Beta virt. eigenvalues --    0.09684   0.10662   0.10864   0.11197   0.11407

 Mulliken charges and spin densities:
               1          2
     1  C    0.123819  -0.843924
     2  C   -0.450660   0.461229
     3  C   -0.580587   0.043240
     4  C    0.036807  -0.575025
     5  N    0.311759  -0.003106
     6  C   -0.645142   0.506612
     7  C    0.309847  -0.725543
     8  O   -0.077903   0.021478
     9  C   -0.022222  -0.269927
    10  S    0.777640  -0.552966
    11  O   -0.108654  -0.005863
    12  O   -0.051156   0.014036
    13  C   -0.168379  -0.506096
    14  C   -0.187550   0.131010
    15  N   -0.261452   0.140236
    16  C   -1.514063   1.620692
    17  C    0.105158  -0.277719
    18  C    2.119215  -2.512487
    19  O   -0.250526   0.020114
    20  H    0.091163   0.054080
    21  H    0.043893   0.094180
    22  H   -0.282258   0.424483
    23  H    0.189427  -0.001085
    24  H    0.173534  -0.014949
    25  H    0.220193  -0.081979
    26  H    0.164966   0.030517
    27  H    0.029453   0.105555
    28  H   -0.099997   0.220258
    29  H    0.244054   0.034091
    30  H   -0.084450   0.221427
    31  H   -0.145304   0.326226
    32  H   -0.111605   0.224084
    33  H   -0.127452   0.254528
    34  H    0.101539  -0.002730
    35  H    0.161108   0.012027
    36  H   -0.168079   0.377942
    37  H   -0.186334   0.544996
    38  H    0.005317   0.174774
    39  H   -0.057562   0.255772
    40  H   -0.426634   0.604898
    41  H   -0.200928   0.454913
 Sum of Mulliken charges =  -1.00000   1.00000

 Dipole moment (field-independent basis, Debye):
    X=              5.3622    Y=              1.2268    Z=             -0.1177  Tot=              5.5021
 Quadrupole moment (field-independent basis, Debye-Ang):
   XX=           -230.5447   YY=           -171.0744   ZZ=           -157.6987
   XY=             -9.7616   XZ=             -1.7534   YZ=             -0.8048

 Summary of Natural Population Analysis:

                                       Natural Population
                Natural  -----------------------------------------------
    Atom  No    Charge         Core      Valence    Rydberg      Total
 -----------------------------------------------------------------------
      C    1   -0.28623      0.99967     2.28169    0.00487     3.28623
      C    2   -0.20574      0.99960     2.19698    0.00915     3.20574
      C    3   -0.00384      0.99958     1.99079    0.01347     3.00384
      C    4   -0.29263      0.99963     2.28635    0.00665     3.29263
      N    5   -0.37970      0.99971     2.86372    0.01627     3.87970
      C    6   -0.10210      0.99958     2.09081    0.01171     3.10210
      C    7   -0.01122      0.99956     1.99853    0.01312     3.01122
      O    8   -0.29768      0.99989     3.28783    0.00997     4.29768
      C    9   -0.09786      0.99960     2.08902    0.00923     3.09786
      S   10    1.12153      4.99907     1.77935    0.10005     6.87847
      O   11   -0.46629      0.99991     3.46120    0.00519     4.46629
      O   12   -0.46834      0.99991     3.46364    0.00479     4.46834
      C   13   -0.19652      0.99936     2.18063    0.01653     3.19652
      C   14    0.00738      0.99950     1.97951    0.01361     2.99262
      N   15   -0.25398      0.99966     2.74370    0.01062     3.75398
      C   16    0.05669      0.99953     1.92936    0.01443     2.94331
      C   17   -0.12513      0.99945     2.11470    0.01098     3.12513
      C   18   -0.02221      0.99955     2.00945    0.01321     3.02221
      O   19   -0.36616      0.99991     3.35934    0.00691     4.36616
      H   20    0.09667      0.00000     0.40252    0.00081     0.40333
      H   21    0.09939      0.00000     0.39998    0.00063     0.40061
      H   22    0.09697      0.00000     0.40194    0.00109     0.40303
      H   23    0.10666      0.00000     0.39209    0.00125     0.39334
      H   24    0.10150      0.00000     0.39740    0.00110     0.39850
      H   25    0.09604      0.00000     0.40117    0.00279     0.40396
      H   26    0.11325      0.00000     0.38576    0.00099     0.38675
      H   27    0.10165      0.00000     0.39726    0.00109     0.39835
      H   28    0.09805      0.00000     0.40125    0.00070     0.40195
      H   29    0.11059      0.00000     0.38778    0.00163     0.38941
      H   30    0.09397      0.00000     0.40476    0.00128     0.40603
      H   31    0.09038      0.00000     0.40844    0.00118     0.40962
      H   32    0.08030      0.00000     0.41785    0.00185     0.41970
      H   33    0.07476      0.00000     0.42416    0.00108     0.42524
      H   34    0.08778      0.00000     0.41042    0.00180     0.41222
      H   35    0.08986      0.00000     0.40901    0.00114     0.41014
      H   36    0.11195      0.00000     0.38693    0.00112     0.38805
      H   37    0.21245      0.00000     0.28193    0.00561     0.28755
      H   38    0.11381      0.00000     0.38497    0.00121     0.38619
      H   39    0.09346      0.00000     0.40498    0.00156     0.40654
      H   40    0.08777      0.00000     0.41062    0.00161     0.41223
      H   41    0.23276      0.00000     0.25685    0.01038     0.26724
 =======================================================================
   * Total *    0.00000     22.99265    54.67469    0.33266    78.00000

 Normal termination of Gaussian 16 at Mon Dec 14 15:24:07 2020.
