 Gaussian 16, Revision A.03,

 -----------------------------------------------------------
 # opt freq B3LYP/6-31G(d) empiricaldispersion=gd3bj scf=xqc
 -----------------------------------------------------------

 -------------------------------
 CID_129932749_JID_3324_neutraal
 -------------------------------
 Symbolic Z-matrix:
 Charge =  0 Multiplicity = 1

 SCF Done:  E(RB3LYP) =  -573.005842955     A.U. after   14 cycles
 SCF Done:  E(RB3LYP) =  -573.008896960     A.U. after   12 cycles
 SCF Done:  E(RB3LYP) =  -573.009395853     A.U. after   12 cycles
 SCF Done:  E(RB3LYP) =  -573.009828692     A.U. after   12 cycles
 SCF Done:  E(RB3LYP) =  -573.009900286     A.U. after   13 cycles
 SCF Done:  E(RB3LYP) =  -573.010372177     A.U. after   12 cycles
 SCF Done:  E(RB3LYP) =  -573.010888569     A.U. after   12 cycles
 SCF Done:  E(RB3LYP) =  -573.011420774     A.U. after   14 cycles
 SCF Done:  E(RB3LYP) =  -573.011598057     A.U. after   13 cycles
 SCF Done:  E(RB3LYP) =  -573.011637586     A.U. after   12 cycles
 SCF Done:  E(RB3LYP) =  -573.012933565     A.U. after   11 cycles
 SCF Done:  E(RB3LYP) =  -573.012951025     A.U. after   11 cycles
 SCF Done:  E(RB3LYP) =  -573.012951165     A.U. after    8 cycles
 SCF Done:  E(RB3LYP) =  -573.012951149     A.U. after    7 cycles
 SCF Done:  E(RB3LYP) =  -573.012951200     A.U. after    7 cycles
 Optimization completed.
    -- Stationary point found.
 Normal termination of Gaussian 16 at Wed Dec  9 23:03:01 2020.

 --------------------------------------------------------------------
 #N Geom=AllCheck Guess=TCheck SCRF=Check GenChk RB3LYP/6-31G(d) Freq
 --------------------------------------------------------------------

 Structure from the checkpoint file:  "JID_3324.chk"
 -------------------------------
 CID_129932749_JID_3324_neutraal
 -------------------------------
 Charge =  0 Multiplicity = 1

 SCF Done:  E(RB3LYP) =  -573.012951199     A.U. after    1 cycles

  Exact polarizability: 142.386  16.113 106.036  -4.803  13.049  91.089
 Approx polarizability: 201.234  35.224 160.313  -4.211  35.995 153.399

                      1                      2                      3
                      A                      A                      A
 Frequencies --     28.3336                65.0427                78.1948
 Red. masses --      4.3748                 3.7752                 3.4815
 Frc consts  --      0.0021                 0.0094                 0.0125
 IR Inten    --      1.3009                 0.7663                 1.4151

                      4                      5                      6
                      A                      A                      A
 Frequencies --    128.8144               207.6893               209.5183
 Red. masses --      3.6699                 1.4756                 2.4679
 Frc consts  --      0.0359                 0.0375                 0.0638
 IR Inten    --      3.6735                 0.8665                 1.5292

                      7                      8                      9
                      A                      A                      A
 Frequencies --    227.6642               275.9420               281.2324
 Red. masses --      3.3830                 1.9797                 3.1883
 Frc consts  --      0.1033                 0.0888                 0.1486
 IR Inten    --      1.8340                 0.4632                 2.3186

                     10                     11                     12
                      A                      A                      A
 Frequencies --    339.0789               413.7705               451.3039
 Red. masses --      5.9181                 3.1822                 4.3479
 Frc consts  --      0.4009                 0.3210                 0.5218
 IR Inten    --      0.5214                 2.8435                 0.1609

                     13                     14                     15
                      A                      A                      A
 Frequencies --    493.1153               543.4867               624.3283
 Red. masses --      3.4303                 3.3182                 6.4322
 Frc consts  --      0.4915                 0.5775                 1.4772
 IR Inten    --      1.7069                22.9926                 4.4156

                     16                     17                     18
                      A                      A                      A
 Frequencies --    656.7345               660.2959               707.9421
 Red. masses --      4.0334                 3.1685                 4.9831
 Frc consts  --      1.0249                 0.8139                 1.4714
 IR Inten    --     15.4312                27.1354                 4.8376

                     19                     20                     21
                      A                      A                      A
 Frequencies --    734.8594               778.7149               809.5259
 Red. masses --      1.9830                 1.3591                 2.5681
 Frc consts  --      0.6309                 0.4856                 0.9916
 IR Inten    --     22.5708                26.5329                21.0787

                     22                     23                     24
                      A                      A                      A
 Frequencies --    835.9877               869.4128               940.6996
 Red. masses --      1.9622                 3.7684                 4.2682
 Frc consts  --      0.8080                 1.6782                 2.2253
 IR Inten    --     12.0029                22.8478                 1.2466

                     25                     26                     27
                      A                      A                      A
 Frequencies --    946.6825               969.3674               983.5035
 Red. masses --      1.3805                 1.5882                 1.9442
 Frc consts  --      0.7289                 0.8793                 1.1080
 IR Inten    --      0.2600                 0.6911                 6.1289

                     28                     29                     30
                      A                      A                      A
 Frequencies --   1001.9518              1013.0094              1046.7870
 Red. masses --      1.3570                 2.0322                 3.3483
 Frc consts  --      0.8027                 1.2287                 2.1617
 IR Inten    --      1.0287                 3.1362                23.3686

                     31                     32                     33
                      A                      A                      A
 Frequencies --   1053.1139              1070.8991              1074.4662
 Red. masses --      2.0167                 3.2688                 2.5734
 Frc consts  --      1.3177                 2.2087                 1.7504
 IR Inten    --     20.6939                39.6657                 9.7665

                     34                     35                     36
                      A                      A                      A
 Frequencies --   1132.2023              1143.6370              1190.4863
 Red. masses --      1.9342                 1.7415                 1.2744
 Frc consts  --      1.4608                 1.3420                 1.0641
 IR Inten    --     23.7260                18.7239                 1.0383

                     37                     38                     39
                      A                      A                      A
 Frequencies --   1205.8834              1217.3046              1225.8357
 Red. masses --      1.1493                 1.4271                 1.7179
 Frc consts  --      0.9847                 1.2459                 1.5209
 IR Inten    --      4.0784                 3.0456                 5.6126

                     40                     41                     42
                      A                      A                      A
 Frequencies --   1249.4485              1264.0844              1293.9658
 Red. masses --      1.7938                 1.5610                 1.7984
 Frc consts  --      1.6499                 1.4696                 1.7741
 IR Inten    --      2.7375                51.7552                39.7801

                     43                     44                     45
                      A                      A                      A
 Frequencies --   1309.0139              1342.1886              1356.4147
 Red. masses --      5.5595                 1.9273                 2.5305
 Frc consts  --      5.6127                 2.0457                 2.7431
 IR Inten    --      5.2318                71.6825                69.6347

                     46                     47                     48
                      A                      A                      A
 Frequencies --   1381.3201              1400.7126              1461.5924
 Red. masses --      1.4929                 1.3791                 1.4149
 Frc consts  --      1.6783                 1.5943                 1.7808
 IR Inten    --      3.8885                14.2060                24.2406

                     49                     50                     51
                      A                      A                      A
 Frequencies --   1474.0917              1497.9240              1515.0393
 Red. masses --      2.1961                 1.2184                 1.0472
 Frc consts  --      2.8115                 1.6107                 1.4163
 IR Inten    --     17.0216                 1.4220                 6.5674

                     52                     53                     54
                      A                      A                      A
 Frequencies --   1529.1105              1534.1206              1559.1704
 Red. masses --      2.2006                 1.0491                 1.0927
 Frc consts  --      3.0316                 1.4548                 1.5652
 IR Inten    --     13.4023                13.0068                 6.5508

                     55                     56                     57
                      A                      A                      A
 Frequencies --   1636.7050              1651.1945              1737.7530
 Red. masses --      5.4037                 5.7340                 7.2728
 Frc consts  --      8.5287                 9.2109                12.9398
 IR Inten    --     17.6962                 2.8251               111.4266

                     58                     59                     60
                      A                      A                      A
 Frequencies --   2939.8058              2951.6208              3021.4499
 Red. masses --      1.0816                 1.0759                 1.0860
 Frc consts  --      5.5077                 5.5225                 5.8412
 IR Inten    --     53.8569               127.3392                69.7642

                     61                     62                     63
                      A                      A                      A
 Frequencies --   3032.3250              3092.3841              3156.4114
 Red. masses --      1.0340                 1.1066                 1.0892
 Frc consts  --      5.6017                 6.2348                 6.3938
 IR Inten    --     44.4568                37.8707                32.6830

                     64                     65                     66
                      A                      A                      A
 Frequencies --   3168.8376              3168.9635              3200.6347
 Red. masses --      1.0902                 1.0999                 1.0916
 Frc consts  --      6.4502                 6.5077                 6.5887
 IR Inten    --     14.9438                25.1267                23.3901

                     67                     68                     69
                      A                      A                      A
 Frequencies --   3221.8333              3247.3326              3556.7960
 Red. masses --      1.0936                 1.0943                 1.0756
 Frc consts  --      6.6881                 6.7992                 8.0170
 IR Inten    --      7.5267                 9.3719                 1.1842

 - Thermochemistry -
 -------------------
 Temperature   298.150 Kelvin.  Pressure   1.00000 Atm.
 Atom     1 has atomic number  6 and mass  12.00000

 Molecular mass:   176.09496 amu.
 Principal axes and moments of inertia in atomic units:
                           1         2         3
     Eigenvalues --  1342.523983085.988293848.85559
           X            0.99995  -0.00960  -0.00215
           Y            0.00958   0.99991  -0.00984
           Z            0.00224   0.00982   0.99995
 This molecule is an asymmetric top.
 Rotational symmetry number  1.
 Warning -- assumption of classical behavior for rotation
           may cause significant error
 Rotational temperatures (Kelvin)      0.06452     0.02807     0.02250
 Rotational constants (GHZ):           1.34429     0.58482     0.46890
 Zero-point vibrational energy     547824.3 (Joules/Mol)
                                  130.93314 (Kcal/Mol)
 Warning -- explicit consideration of  14 degrees of freedom as
           vibrations may cause significant error
 Vibrational temperatures:     40.77    93.58   112.50   185.34   298.82
          (Kelvin)            301.45   327.56   397.02   404.63   487.86
                              595.32   649.33   709.48   781.96   898.27
                              944.89   950.02  1018.57  1057.30  1120.40
                             1164.73  1202.80  1250.89  1353.46  1362.06
                             1394.70  1415.04  1441.59  1457.49  1506.09
                             1515.20  1540.78  1545.92  1628.99  1645.44
                             1712.84  1735.00  1751.43  1763.70  1797.68
                             1818.74  1861.73  1883.38  1931.11  1951.58
                             1987.41  2015.31  2102.91  2120.89  2155.18
                             2179.80  2200.05  2207.26  2243.30  2354.85
                             2375.70  2500.24  4229.72  4246.72  4347.19
                             4362.84  4449.25  4541.37  4559.25  4559.43
                             4605.00  4635.50  4672.19  5117.44

 Zero-point correction=                           0.208655 (Hartree/Particle)
 Thermal correction to Energy=                    0.219992
 Thermal correction to Enthalpy=                  0.220936
 Thermal correction to Gibbs Free Energy=         0.170158
 Sum of electronic and zero-point Energies=           -572.804296
 Sum of electronic and thermal Energies=              -572.792959
 Sum of electronic and thermal Enthalpies=            -572.792015
 Sum of electronic and thermal Free Energies=         -572.842793

                     E (Thermal)             CV                S
                      KCal/Mol        Cal/Mol-Kelvin    Cal/Mol-Kelvin
 Total                  138.047             43.061            106.872
 Electronic               0.000              0.000              0.000
 Translational            0.889              2.981             41.405
 Rotational               0.889              2.981             31.145
 Vibrational            136.270             37.099             34.322
 Vibration     1          0.593              1.984              5.943
 Vibration     2          0.597              1.971              4.298
 Vibration     3          0.599              1.964              3.936
 Vibration     4          0.611              1.924              2.964
 Vibration     5          0.641              1.829              2.064
 Vibration     6          0.642              1.826              2.048
 Vibration     7          0.651              1.799              1.897
 Vibration     8          0.678              1.718              1.559
 Vibration     9          0.681              1.708              1.526
 Vibration    10          0.719              1.597              1.216
 Vibration    11          0.777              1.440              0.913
 Vibration    12          0.810              1.358              0.792
 Vibration    13          0.849              1.265              0.676
 Vibration    14          0.899              1.154              0.558

                           ! Non-Optimized Parameters !
 Normal termination of Gaussian 16 at Wed Dec  9 23:09:37 2020.

 ----------------------------------------------------------------------
 # B3LYP/6-311++G(d,p) empiricaldispersion=gd3bj scf=xqc pop=npa geom=c
 heck
 ----------------------------------------------------------------------

 ---------------------------------------
 CID_129932749_JID_3324_Energie_neutraal
 ---------------------------------------
 Structure from the checkpoint file:  "JID_3324.chk"
 Charge =  0 Multiplicity = 1

 SCF Done:  E(RB3LYP) =  -573.170717054     A.U. after   15 cycles
 Normal termination of Gaussian 16 at Wed Dec  9 23:12:36 2020.

 ----------------------------------------------------------------------
 # B3LYP/6-311++G(d,p) empiricaldispersion=gd3bj scf=xqc pop=npa geom=c
 heck
 ----------------------------------------------------------------------

 -------------------------------------
 CID_129932749_JID_3324_Energie_kation
 -------------------------------------
 Structure from the checkpoint file:  "JID_3324.chk"
 Charge =  1 Multiplicity = 2

 SCF Done:  E(UB3LYP) =  -572.877970440     A.U. after   26 cycles
 Normal termination of Gaussian 16 at Wed Dec  9 23:19:41 2020.
 Gaussian 16:  ES64L-G16RevA.03 25-Dec-2016

 ----------------------------------------------------------------------
 # B3LYP/6-311++G(d,p) empiricaldispersion=gd3bj scf=xqc pop=npa geom=c
 heck
 ----------------------------------------------------------------------

 ------------------------------------
 CID_129932749_JID_3324_Energie_anion
 ------------------------------------
 Structure from the checkpoint file:  "JID_3324.chk"
 Charge = -1 Multiplicity = 2

                         Standard orientation:
 ---------------------------------------------------------------------
 Center     Atomic      Atomic             Coordinates (Angstroms)
 Number     Number       Type             X           Y           Z
 ---------------------------------------------------------------------
      1          6           0        2.182033   -2.496092    0.563486
      2          8           0        1.245067   -1.652118   -0.092767
      3          6           0        1.545945   -0.338082   -0.093622
      4          6           0        2.590622    0.335467    0.401724
      5          6           0        2.442648    1.798424    0.083183
      6          7           0        1.051862    1.903934   -0.402953
      7          6           0        0.556907    0.575958   -0.789868
      8          6           0       -0.877469    0.326882   -0.358641
      9          6           0       -1.680536   -0.586437   -1.046762
     10          7           0       -2.936059   -0.895526   -0.703676
     11          6           0       -3.441520   -0.279195    0.372042
     12          6           0       -2.731277    0.652907    1.130131
     13          6           0       -1.424944    0.959243    0.757433
     14          1           0        1.792651   -3.511650    0.481995
     15          1           0        2.279708   -2.217353    1.620339
     16          1           0        3.166776   -2.433337    0.082602
     17          1           0        3.439447   -0.073596    0.934309
     18          1           0        3.183838    2.119413   -0.671303
     19          1           0        2.590534    2.442127    0.962547
     20          1           0        0.953829    2.575578   -1.156148
     21          1           0        0.619050    0.387476   -1.877759
     22          1           0       -1.286042   -1.096544   -1.925455
     23          1           0       -4.464982   -0.540656    0.636128
     24          1           0       -3.195468    1.127055    1.990061
     25          1           0       -0.824947    1.685128    1.296599
 ---------------------------------------------------------------------

 SCF Done:  E(UB3LYP) =  -573.158419038     A.U. after   33 cycles
 SCF Done:  E(UB3LYP) =  -573.158419038     a.u. after    1 cycles

 The electronic state is 2-A.
 Alpha  occ. eigenvalues --  -19.05402 -14.19828 -14.19365 -10.12102 -10.11722
 Alpha  occ. eigenvalues --  -10.10668 -10.09949 -10.09371 -10.08988 -10.07592
 Alpha  occ. eigenvalues --  -10.07538 -10.07221 -10.05207  -0.97120  -0.83545
 Alpha  occ. eigenvalues --   -0.81897  -0.70164  -0.66951  -0.66137  -0.62274
 Alpha  occ. eigenvalues --   -0.58633  -0.52863  -0.52166  -0.48472  -0.44889
 Alpha  occ. eigenvalues --   -0.42924  -0.41261  -0.38964  -0.37006  -0.36246
 Alpha  occ. eigenvalues --   -0.35426  -0.34765  -0.32827  -0.30808  -0.30150
 Alpha  occ. eigenvalues --   -0.29499  -0.28676  -0.27398  -0.27038  -0.25717
 Alpha  occ. eigenvalues --   -0.23577  -0.23357  -0.18050  -0.15400  -0.15277
 Alpha  occ. eigenvalues --   -0.13336  -0.11143   0.04565
 Alpha virt. eigenvalues --    0.06750   0.07142   0.07468   0.08063   0.08617
 Alpha virt. eigenvalues --    0.09371   0.10011   0.10253   0.10506   0.11353
 Alpha virt. eigenvalues --    0.12200   0.12837   0.13304   0.13613   0.14107

  Beta  occ. eigenvalues --  -19.05396 -14.19712 -14.19346 -10.12107 -10.11676
  Beta  occ. eigenvalues --  -10.10653 -10.09948 -10.09342 -10.08958 -10.07605
  Beta  occ. eigenvalues --  -10.07522 -10.07125 -10.05181  -0.97102  -0.83398
  Beta  occ. eigenvalues --   -0.81851  -0.70036  -0.66879  -0.66084  -0.62206
  Beta  occ. eigenvalues --   -0.58566  -0.52740  -0.52074  -0.48394  -0.44842
  Beta  occ. eigenvalues --   -0.42859  -0.41205  -0.38905  -0.36959  -0.36200
  Beta  occ. eigenvalues --   -0.35374  -0.34718  -0.32797  -0.30755  -0.29986
  Beta  occ. eigenvalues --   -0.29429  -0.28574  -0.27270  -0.26957  -0.25677
  Beta  occ. eigenvalues --   -0.23539  -0.23324  -0.17548  -0.15256  -0.15120
  Beta  occ. eigenvalues --   -0.13286  -0.11103
  Beta virt. eigenvalues --    0.07018   0.07552   0.07792   0.08096   0.08344
  Beta virt. eigenvalues --    0.08982   0.09727   0.10508   0.10564   0.11109
  Beta virt. eigenvalues --    0.11996   0.12588   0.13056   0.13569   0.13814

 Mulliken charges and spin densities:
               1          2
     1  C    0.856165  -1.124980
     2  O   -0.155608   0.063908
     3  C    1.387473  -1.795035
     4  C   -1.827930   2.112248
     5  C    2.574138  -3.312294
     6  N   -0.300086   0.185095
     7  C   -0.475302  -0.124725
     8  C   -0.062417   0.751649
     9  C   -0.023982  -0.480604
    10  N   -0.071976   0.056754
    11  C   -0.318686  -0.047897
    12  C   -0.146214  -0.152086
    13  C   -0.292334   0.602486
    14  H   -0.264708   0.412026
    15  H   -0.212979   0.362289
    16  H   -0.345021   0.503174
    17  H   -0.847190   1.039830
    18  H   -0.470465   0.626136
    19  H   -0.118789   0.266376
    20  H   -0.034785   0.280594
    21  H   -0.296031   0.530216
    22  H    0.119343   0.059369
    23  H    0.126397   0.015560
    24  H    0.064047   0.089717
    25  H    0.136939   0.080193
 Sum of Mulliken charges =  -1.00000   1.00000

 Dipole moment (field-independent basis, Debye):
    X=             -6.0565    Y=              0.8557    Z=              1.1526  Tot=              6.2243
 Quadrupole moment (field-independent basis, Debye-Ang):
   XX=           -144.1506   YY=           -117.3871   ZZ=           -105.0669
   XY=             -1.7342   XZ=             -6.1893   YZ=              4.0849

 Summary of Natural Population Analysis:

                                       Natural Population
                Natural  -----------------------------------------------
    Atom  No    Charge         Core      Valence    Rydberg      Total
 -----------------------------------------------------------------------
      C    1   -0.09908      0.99960     2.09055    0.00894     3.09908
      O    2   -0.27042      0.99985     3.26058    0.00999     4.27042
      C    3    0.17039      0.99932     1.81463    0.01566     2.82961
      C    4   -0.15775      0.99945     2.14884    0.00947     3.15775
      C    5   -0.08651      0.99964     2.07497    0.01190     3.08651
      N    6   -0.34214      0.99975     2.83029    0.01210     3.84214
      C    7   -0.02833      0.99952     2.01432    0.01448     3.02833
      C    8   -0.03580      0.99948     2.02381    0.01250     3.03580
      C    9    0.03721      0.99952     1.94958    0.01369     2.96279
      N   10   -0.22379      0.99972     2.71192    0.01215     3.72379
      C   11    0.01636      0.99960     1.96944    0.01460     2.98364
      C   12   -0.12435      0.99956     2.11582    0.00897     3.12435
      C   13   -0.06301      0.99950     2.05494    0.00857     3.06301
      H   14    0.09129      0.00000     0.40772    0.00099     0.40871
      H   15    0.08662      0.00000     0.41168    0.00171     0.41338
      H   16    0.08828      0.00000     0.40943    0.00229     0.41172
      H   17    0.10861      0.00000     0.38867    0.00273     0.39139
      H   18    0.08666      0.00000     0.41075    0.00259     0.41334
      H   19    0.08844      0.00000     0.40981    0.00175     0.41156
      H   20    0.18079      0.00000     0.31636    0.00285     0.31921
      H   21    0.09355      0.00000     0.40397    0.00248     0.40645
      H   22    0.08910      0.00000     0.40884    0.00205     0.41090
      H   23    0.08463      0.00000     0.41424    0.00113     0.41537
      H   24    0.09834      0.00000     0.40080    0.00086     0.40166
      H   25    0.11092      0.00000     0.38765    0.00142     0.38908
 =======================================================================
   * Total *   -0.00000     12.99450    33.82963    0.17587    47.00000

 Normal termination of Gaussian 16 at Wed Dec  9 23:28:48 2020.
