 Gaussian 16, Revision A.03,

 -----------------------------------------------------------
 # opt freq B3LYP/6-31G(d) empiricaldispersion=gd3bj scf=xqc
 -----------------------------------------------------------

 ----------------------------
 CID_196296_JID_8266_neutraal
 ----------------------------
 Symbolic Z-matrix:
 Charge =  0 Multiplicity = 1

 SCF Done:  E(RB3LYP) =  -792.809612652     A.U. after   17 cycles
 SCF Done:  E(RB3LYP) =  -792.841386101     A.U. after   14 cycles
 SCF Done:  E(RB3LYP) =  -792.852005807     A.U. after   14 cycles
 SCF Done:  E(RB3LYP) =  -792.853281880     A.U. after   16 cycles
 SCF Done:  E(RB3LYP) =  -792.853611611     A.U. after   14 cycles
 SCF Done:  E(RB3LYP) =  -792.850939243     A.U. after   14 cycles
 SCF Done:  E(RB3LYP) =  -792.851621688     A.U. after   14 cycles
 SCF Done:  E(RB3LYP) =  -792.854658331     A.U. after   11 cycles
 SCF Done:  E(RB3LYP) =  -792.854696004     A.U. after   13 cycles
 SCF Done:  E(RB3LYP) =  -792.854903198     A.U. after   13 cycles
 SCF Done:  E(RB3LYP) =  -792.854957892     A.U. after   12 cycles
 SCF Done:  E(RB3LYP) =  -792.854971390     A.U. after   11 cycles
 SCF Done:  E(RB3LYP) =  -792.854974273     A.U. after    9 cycles
 SCF Done:  E(RB3LYP) =  -792.854974840     A.U. after    9 cycles
 SCF Done:  E(RB3LYP) =  -792.854974981     A.U. after    8 cycles
 Optimization completed.
    -- Stationary point found.
 Normal termination of Gaussian 16 at Fri Dec 11 19:51:07 2020.

 --------------------------------------------------------------------
 #N Geom=AllCheck Guess=TCheck SCRF=Check GenChk RB3LYP/6-31G(d) Freq
 --------------------------------------------------------------------

 Structure from the checkpoint file:  "JID_8266.chk"
 ----------------------------
 CID_196296_JID_8266_neutraal
 ----------------------------
 Charge =  0 Multiplicity = 1

 SCF Done:  E(RB3LYP) =  -792.854974981     A.U. after    1 cycles

  Exact polarizability: 153.794   2.834 172.673 -25.004  -3.299 131.367
 Approx polarizability: 247.213   6.482 312.903 -63.381 -19.394 271.855

                      1                      2                      3
                      A                      A                      A
 Frequencies --     34.8589                50.5412                71.9249
 Red. masses --      5.2811                 5.8331                 5.6662
 Frc consts  --      0.0038                 0.0088                 0.0173
 IR Inten    --      2.5165                 1.9856                 1.1307

                      4                      5                      6
                      A                      A                      A
 Frequencies --     93.4423               103.9604               130.1680
 Red. masses --      5.2449                 5.0781                 5.4364
 Frc consts  --      0.0270                 0.0323                 0.0543
 IR Inten    --     11.6815                 1.3961                 1.6330

                      7                      8                      9
                      A                      A                      A
 Frequencies --    172.6676               180.3033               222.4694
 Red. masses --      4.4403                 2.7967                 2.9156
 Frc consts  --      0.0780                 0.0536                 0.0850
 IR Inten    --      4.0265                 1.1102                 5.1122

                     10                     11                     12
                      A                      A                      A
 Frequencies --    254.1619               297.1483               308.0712
 Red. masses --      3.1230                 4.6195                 3.3228
 Frc consts  --      0.1189                 0.2403                 0.1858
 IR Inten    --      8.9539                 9.3145                 3.3250

                     13                     14                     15
                      A                      A                      A
 Frequencies --    347.1570               349.7205               380.7142
 Red. masses --      3.3328                 7.5124                 3.9255
 Frc consts  --      0.2367                 0.5413                 0.3352
 IR Inten    --      2.0395                 2.0928                13.4230

                     16                     17                     18
                      A                      A                      A
 Frequencies --    397.2848               451.7257               482.3682
 Red. masses --      8.8863                 3.9342                 3.5422
 Frc consts  --      0.8264                 0.4730                 0.4856
 IR Inten    --      4.1131                11.2996                15.8503

                     19                     20                     21
                      A                      A                      A
 Frequencies --    504.9862               512.0397               545.1430
 Red. masses --      4.0906                 4.5311                 4.1384
 Frc consts  --      0.6146                 0.6999                 0.7246
 IR Inten    --      2.9097                 7.4525                 3.0681

                     22                     23                     24
                      A                      A                      A
 Frequencies --    611.9255               643.9376               672.9527
 Red. masses --      3.7360                 6.0239                 3.2557
 Frc consts  --      0.8242                 1.4717                 0.8687
 IR Inten    --      6.4880                 2.8779                16.4650

                     25                     26                     27
                      A                      A                      A
 Frequencies --    687.7299               720.6262               734.2006
 Red. masses --      3.6291                 6.1237                 4.7711
 Frc consts  --      1.0113                 1.8736                 1.5153
 IR Inten    --     14.3200                 8.1437                 4.4890

                     28                     29                     30
                      A                      A                      A
 Frequencies --    752.9582               780.4292               797.5732
 Red. masses --      1.7554                 3.4432                 2.2918
 Frc consts  --      0.5864                 1.2356                 0.8590
 IR Inten    --     28.0946                 2.3643                59.3483

                     31                     32                     33
                      A                      A                      A
 Frequencies --    818.8902               873.4247               887.5948
 Red. masses --      4.8393                 5.7094                 2.3077
 Frc consts  --      1.9120                 2.5662                 1.0712
 IR Inten    --     13.6757                13.6765                11.6519

                     34                     35                     36
                      A                      A                      A
 Frequencies --    896.6822               901.7703               914.8114
 Red. masses --      2.2578                 2.4144                 1.5588
 Frc consts  --      1.0696                 1.1568                 0.7686
 IR Inten    --     14.6505                 3.1152                13.9530

                     37                     38                     39
                      A                      A                      A
 Frequencies --    921.2681               951.8101               974.0263
 Red. masses --      2.6805                 2.4209                 1.9643
 Frc consts  --      1.3404                 1.2922                 1.0980
 IR Inten    --      8.2295                18.9256                 3.6645

                     40                     41                     42
                      A                      A                      A
 Frequencies --    996.7221              1002.1389              1020.6654
 Red. masses --      1.5057                 1.6072                 1.9431
 Frc consts  --      0.8813                 0.9510                 1.1927
 IR Inten    --      5.4377                 1.8283                21.8071

                     43                     44                     45
                      A                      A                      A
 Frequencies --   1025.9312              1050.0373              1076.9434
 Red. masses --      2.0214                 3.8859                 4.6261
 Frc consts  --      1.2536                 2.5243                 3.1612
 IR Inten    --      6.7394                29.0024                 7.5152

                     46                     47                     48
                      A                      A                      A
 Frequencies --   1077.9647              1091.1256              1112.9566
 Red. masses --      4.0471                 1.5536                 3.6404
 Frc consts  --      2.7708                 1.0898                 2.6568
 IR Inten    --     10.0107                12.8260                95.3338

                     49                     50                     51
                      A                      A                      A
 Frequencies --   1140.4745              1202.2035              1231.8316
 Red. masses --      2.4146                 3.8933                 1.1086
 Frc consts  --      1.8504                 3.3153                 0.9911
 IR Inten    --     17.0372                45.7926                 2.6370

                     52                     53                     54
                      A                      A                      A
 Frequencies --   1257.7145              1266.2764              1303.9768
 Red. masses --      1.1339                 1.3811                 1.2008
 Frc consts  --      1.0568                 1.3047                 1.2030
 IR Inten    --      0.5876                 0.8859                 6.8403

                     55                     56                     57
                      A                      A                      A
 Frequencies --   1339.5307              1374.4207              1387.6755
 Red. masses --      1.2988                 1.2990                 1.2865
 Frc consts  --      1.3731                 1.4458                 1.4596
 IR Inten    --     16.6883                16.9641                29.2760

                     58                     59                     60
                      A                      A                      A
 Frequencies --   1400.1562              1406.7863              1420.3380
 Red. masses --      1.1528                 1.2885                 1.2847
 Frc consts  --      1.3315                 1.5024                 1.5269
 IR Inten    --     12.7233                 8.0156                 4.3595

                     61                     62                     63
                      A                      A                      A
 Frequencies --   1425.0528              1463.2399              1514.9959
 Red. masses --      1.2988                 1.7001                 1.0871
 Frc consts  --      1.5541                 2.1447                 1.4700
 IR Inten    --      7.7181                24.4580                 8.4846

                     64                     65                     66
                      A                      A                      A
 Frequencies --   1526.5249              1555.0842              1603.5731
 Red. masses --      1.0996                 5.5093                10.1544
 Frc consts  --      1.5097                 7.8497                15.3845
 IR Inten    --      0.5397                 2.9630                41.5031

                     67                     68                     69
                      A                      A                      A
 Frequencies --   1616.7669              1641.8212              1675.9104
 Red. masses --      6.8773                 9.8336                 9.3726
 Frc consts  --     10.5916                15.6176                15.5100
 IR Inten    --     33.7677               100.7674                 1.3448

                     70                     71                     72
                      A                      A                      A
 Frequencies --   1701.7274              1703.0292              1752.4804
 Red. masses --      5.9397                 9.0602                10.2482
 Frc consts  --     10.1344                15.4822                18.5441
 IR Inten    --     39.2521               128.2724               346.0998

                     73                     74                     75
                      A                      A                      A
 Frequencies --   3037.1872              3043.8880              3102.7494
 Red. masses --      1.0652                 1.0694                 1.0934
 Frc consts  --      5.7893                 5.8378                 6.2021
 IR Inten    --     17.1828                63.2411                13.9526

                     76                     77                     78
                      A                      A                      A
 Frequencies --   3107.2703              3114.8255              3122.7714
 Red. masses --      1.0896                 1.0840                 1.0885
 Frc consts  --      6.1983                 6.1966                 6.2538
 IR Inten    --     23.7811                 1.8608                36.8432

                     79                     80                     81
                      A                      A                      A
 Frequencies --   3123.5546              3128.0062              3143.2624
 Red. masses --      1.0989                 1.0881                 1.0904
 Frc consts  --      6.3172                 6.2729                 6.3477
 IR Inten    --     51.9713                30.5762                51.8752

                     82                     83                     84
                      A                      A                      A
 Frequencies --   3171.6835              3181.0728              3209.0312
 Red. masses --      1.0928                 1.0879                 1.0941
 Frc consts  --      6.4770                 6.4861                 6.6382
 IR Inten    --     25.5311                 9.6613                 8.3187

 - Thermochemistry -
 -------------------
 Temperature   298.150 Kelvin.  Pressure   1.00000 Atm.
 Atom     1 has atomic number  6 and mass  12.00000

 Molecular mass:   240.11234 amu.
 Principal axes and moments of inertia in atomic units:
                           1         2         3
     Eigenvalues --  2552.836024158.128014871.11525
           X            0.99974  -0.00447  -0.02246
           Y            0.00455   0.99998   0.00361
           Z            0.02245  -0.00371   0.99974
 This molecule is an asymmetric top.
 Rotational symmetry number  1.
 Warning -- assumption of classical behavior for rotation
           may cause significant error
 Rotational temperatures (Kelvin)      0.03393     0.02083     0.01778
 Rotational constants (GHZ):           0.70696     0.43403     0.37050
 Zero-point vibrational energy     611799.2 (Joules/Mol)
                                  146.22353 (Kcal/Mol)
 Warning -- explicit consideration of  22 degrees of freedom as
           vibrations may cause significant error
 Vibrational temperatures:     50.15    72.72   103.48   134.44   149.58
          (Kelvin)            187.28   248.43   259.42   320.08   365.68
                              427.53   443.25   499.48   503.17   547.76
                              571.60   649.93   694.02   726.56   736.71
                              784.34   880.42   926.48   968.23   989.49
                             1036.82  1056.35  1083.34  1122.86  1147.53
                             1178.20  1256.66  1277.05  1290.13  1297.45
                             1316.21  1325.50  1369.44  1401.41  1434.06
                             1441.85  1468.51  1476.09  1510.77  1549.48
                             1550.95  1569.89  1601.30  1640.89  1729.70
                             1772.33  1809.57  1821.89  1876.13  1927.29
                             1977.48  1996.56  2014.51  2024.05  2043.55
                             2050.33  2105.28  2179.74  2196.33  2237.42
                             2307.18  2326.17  2362.21  2411.26  2448.41
                             2450.28  2521.43  4369.83  4379.48  4464.16
                             4470.67  4481.54  4492.97  4494.10  4500.50
                             4522.45  4563.35  4576.85  4617.08

 Zero-point correction=                           0.233022 (Hartree/Particle)
 Thermal correction to Energy=                    0.247963
 Thermal correction to Enthalpy=                  0.248907
 Thermal correction to Gibbs Free Energy=         0.190503
 Sum of electronic and zero-point Energies=           -792.621953
 Sum of electronic and thermal Energies=              -792.607012
 Sum of electronic and thermal Enthalpies=            -792.606068
 Sum of electronic and thermal Free Energies=         -792.664472

                     E (Thermal)             CV                S
                      KCal/Mol        Cal/Mol-Kelvin    Cal/Mol-Kelvin
 Total                  155.599             57.930            122.922
 Electronic               0.000              0.000              0.000
 Translational            0.889              2.981             42.329
 Rotational               0.889              2.981             32.314
 Vibrational            153.822             51.968             48.279
 Vibration     1          0.594              1.983              5.532
 Vibration     2          0.595              1.977              4.796
 Vibration     3          0.598              1.967              4.100
 Vibration     4          0.602              1.954              3.587
 Vibration     5          0.605              1.946              3.379
 Vibration     6          0.612              1.923              2.944
 Vibration     7          0.626              1.876              2.406
 Vibration     8          0.629              1.866              2.325
 Vibration     9          0.648              1.807              1.939
 Vibration    10          0.665              1.756              1.702
 Vibration    11          0.691              1.679              1.433
 Vibration    12          0.698              1.658              1.373
 Vibration    13          0.725              1.581              1.179
 Vibration    14          0.727              1.576              1.167
 Vibration    15          0.750              1.511              1.036
 Vibration    16          0.764              1.476              0.973
 Vibration    17          0.810              1.357              0.791
 Vibration    18          0.839              1.289              0.704
 Vibration    19          0.860              1.239              0.646
 Vibration    20          0.867              1.223              0.629
 Vibration    21          0.900              1.150              0.554
 Vibration    22          0.971              1.007              0.430

                           ! Non-Optimized Parameters !
 Normal termination of Gaussian 16 at Fri Dec 11 20:04:05 2020.

 ----------------------------------------------------------------------
 # B3LYP/6-311++G(d,p) empiricaldispersion=gd3bj scf=xqc pop=npa geom=c
 heck
 ----------------------------------------------------------------------

 ------------------------------------
 CID_196296_JID_8266_Energie_neutraal
 ------------------------------------
 Structure from the checkpoint file:  "JID_8266.chk"
 Charge =  0 Multiplicity = 1

 SCF Done:  E(RB3LYP) =  -793.060722093     A.U. after   17 cycles
 Normal termination of Gaussian 16 at Fri Dec 11 20:09:17 2020.

 ----------------------------------------------------------------------
 # B3LYP/6-311++G(d,p) empiricaldispersion=gd3bj scf=xqc pop=npa geom=c
 heck
 ----------------------------------------------------------------------

 ----------------------------------
 CID_196296_JID_8266_Energie_kation
 ----------------------------------
 Structure from the checkpoint file:  "JID_8266.chk"
 Charge =  1 Multiplicity = 2

 SCF Done:  E(UB3LYP) =  -792.757700715     A.U. after   33 cycles
 SCF Done:  E(UB3LYP) =  -792.757700714     a.u. after    1 cycles
 Normal termination of Gaussian 16 at Fri Dec 11 20:22:46 2020.
 Gaussian 16:  ES64L-G16RevA.03 25-Dec-2016

 ----------------------------------------------------------------------
 # B3LYP/6-311++G(d,p) empiricaldispersion=gd3bj scf=xqc pop=npa geom=c
 heck
 ----------------------------------------------------------------------

 ---------------------------------
 CID_196296_JID_8266_Energie_anion
 ---------------------------------
 Structure from the checkpoint file:  "JID_8266.chk"
 Charge = -1 Multiplicity = 2

                         Standard orientation:
 ---------------------------------------------------------------------
 Center     Atomic      Atomic             Coordinates (Angstroms)
 Number     Number       Type             X           Y           Z
 ---------------------------------------------------------------------
      1          6           0       -2.074578    0.989801    1.311332
      2          6           0       -1.794893    1.940918    0.386317
      3          6           0       -2.007888    1.773506   -1.044735
      4          7           0       -1.986356    0.677975   -1.718351
      5          6           0       -1.613208   -0.503723   -1.036840
      6          7           0       -0.540993   -1.097575   -1.365496
      7          6           0       -0.172902   -2.347795   -0.701406
      8          6           0        0.048878   -2.273442    0.842764
      9          7           0        0.317190   -0.933037    1.343256
     10          6           0        1.371357   -0.332937    0.954027
     11          7           0        1.483345    1.035878    1.445567
     12          6           0        1.676350    1.991739    0.619056
     13          6           0        1.819956    1.461707   -0.765477
     14          6           0        3.059714    0.942195   -0.971232
     15          6           0        3.146189   -0.491864   -0.683372
     16          7           0        2.385513   -1.008729    0.224817
     17          7           0       -2.549310   -0.973273   -0.095526
     18          6           0       -2.672401   -0.299978    0.994219
     19          1           0       -1.974988    1.229989    2.365883
     20          1           0       -1.496138    2.930677    0.723976
     21          1           0       -2.230285    2.683041   -1.609120
     22          1           0       -0.935993   -3.112667   -0.899137
     23          1           0        0.757807   -2.676561   -1.168909
     24          1           0       -0.848374   -2.627797    1.355896
     25          1           0        0.878440   -2.947403    1.094811
     26          1           0        1.788656    3.016872    0.969691
     27          1           0        0.979721    0.830587   -1.065547
     28          1           0        3.961630    1.512909   -0.733062
     29          1           0        3.954050   -1.119074   -1.064757
     30          1           0       -3.319692   -0.729999    1.762497
 ---------------------------------------------------------------------

 SCF Done:  E(UB3LYP) =  -793.105844088     A.U. after   28 cycles

 The electronic state is 2-A.
 Alpha  occ. eigenvalues --  -14.19122 -14.18903 -14.18444 -14.17038 -14.15587
 Alpha  occ. eigenvalues --  -14.14750 -10.12729 -10.12506 -10.10492 -10.10275
 Alpha  occ. eigenvalues --  -10.09861 -10.08559 -10.06759 -10.06550 -10.06192
 Alpha  occ. eigenvalues --  -10.05925 -10.03590 -10.02983  -0.86178  -0.84496
 Alpha  occ. eigenvalues --   -0.77984  -0.77570  -0.76478  -0.75035  -0.67512
 Alpha  occ. eigenvalues --   -0.64726  -0.60716  -0.56175  -0.55220  -0.53249
 Alpha  occ. eigenvalues --   -0.51878  -0.47869  -0.44103  -0.43941  -0.40931
 Alpha  occ. eigenvalues --   -0.39612  -0.38169  -0.36422  -0.34756  -0.34288
 Alpha  occ. eigenvalues --   -0.33321  -0.32750  -0.32010  -0.30884  -0.29604
 Alpha  occ. eigenvalues --   -0.29245  -0.28577  -0.27648  -0.24737  -0.23786
 Alpha  occ. eigenvalues --   -0.22865  -0.21570  -0.21248  -0.19470  -0.18258
 Alpha  occ. eigenvalues --   -0.16069  -0.13980  -0.13590  -0.12448  -0.12008
 Alpha  occ. eigenvalues --   -0.11330  -0.10776  -0.09635   0.01016
 Alpha virt. eigenvalues --    0.03366   0.08024   0.08893   0.09114   0.09345
 Alpha virt. eigenvalues --    0.09610   0.10365   0.10571   0.11178   0.11488
 Alpha virt. eigenvalues --    0.12189   0.12776   0.13214   0.14078   0.14562

  Beta  occ. eigenvalues --  -14.18903 -14.18863 -14.18159 -14.16807 -14.15568
  Beta  occ. eigenvalues --  -14.14679 -10.12747 -10.12499 -10.10506 -10.10236
  Beta  occ. eigenvalues --  -10.09869 -10.08400 -10.06641 -10.06450 -10.06187
  Beta  occ. eigenvalues --  -10.05925 -10.03578 -10.02463  -0.85899  -0.84246
  Beta  occ. eigenvalues --   -0.77628  -0.77315  -0.76251  -0.74846  -0.67200
  Beta  occ. eigenvalues --   -0.64200  -0.60617  -0.55791  -0.55133  -0.52622
  Beta  occ. eigenvalues --   -0.51772  -0.47789  -0.43927  -0.43503  -0.40762
  Beta  occ. eigenvalues --   -0.39510  -0.38030  -0.36160  -0.34568  -0.34135
  Beta  occ. eigenvalues --   -0.33202  -0.32523  -0.31838  -0.30475  -0.29435
  Beta  occ. eigenvalues --   -0.29082  -0.28439  -0.27390  -0.24445  -0.23338
  Beta  occ. eigenvalues --   -0.22515  -0.21244  -0.20492  -0.19257  -0.17641
  Beta  occ. eigenvalues --   -0.15180  -0.13670  -0.13132  -0.12238  -0.11522
  Beta  occ. eigenvalues --   -0.11045  -0.10521  -0.08127
  Beta virt. eigenvalues --    0.05317   0.06861   0.08069   0.08946   0.09313
  Beta virt. eigenvalues --    0.09403   0.09823   0.10459   0.10788   0.11288
  Beta virt. eigenvalues --    0.11820   0.12229   0.12777   0.13211   0.14096

 Mulliken charges and spin densities:
               1          2
     1  C   -0.229504   0.088372
     2  C    0.358572   0.071392
     3  C   -0.555988   0.035376
     4  N    0.135265   0.122479
     5  C   -0.730990  -0.015326
     6  N    0.096351   0.007781
     7  C   -0.439492   0.004716
     8  C   -0.157664   0.006209
     9  N    0.195812   0.034751
    10  C   -1.130188  -0.011635
    11  N    0.160669   0.000247
    12  C   -0.308555   0.027512
    13  C   -0.050660   0.313292
    14  C   -0.043331   0.035385
    15  C   -0.120971   0.106601
    16  N    0.133719   0.101546
    17  N    0.093065   0.091758
    18  C   -0.283863  -0.005631
    19  H    0.156264  -0.007951
    20  H    0.156355  -0.009823
    21  H    0.144541   0.012556
    22  H    0.129094  -0.000191
    23  H    0.175373  -0.001818
    24  H    0.161614   0.000273
    25  H    0.135659  -0.001495
    26  H    0.172741   0.002932
    27  H    0.254729  -0.019546
    28  H    0.106514   0.010023
    29  H    0.133673  -0.002292
    30  H    0.151197   0.002506
 Sum of Mulliken charges =  -1.00000   1.00000

 Dipole moment (field-independent basis, Debye):
    X=             -0.8814    Y=              1.2837    Z=              2.4648  Tot=              2.9155
 Quadrupole moment (field-independent basis, Debye-Ang):
   XX=           -132.0059   YY=           -113.9884   ZZ=           -129.8159
   XY=             -2.3750   XZ=             -6.3863   YZ=              2.9548

 Summary of Natural Population Analysis:

                                       Natural Population
                Natural  -----------------------------------------------
    Atom  No    Charge         Core      Valence    Rydberg      Total
 -----------------------------------------------------------------------
      C    1   -0.07496      0.99954     2.06641    0.00901     3.07496
      C    2   -0.10168      0.99954     2.09349    0.00864     3.10168
      C    3    0.04486      0.99961     1.94159    0.01394     2.95514
      N    4   -0.18193      0.99965     2.66781    0.01446     3.68193
      C    5    0.28564      0.99952     1.69362    0.02122     2.71436
      N    6   -0.26263      0.99962     2.74949    0.01352     3.76263
      C    7   -0.10224      0.99961     2.09273    0.00990     3.10224
      C    8   -0.10481      0.99962     2.09521    0.00998     3.10481
      N    9   -0.25660      0.99962     2.74166    0.01533     3.75660
      C   10    0.28225      0.99951     1.69750    0.02074     2.71775
      N   11   -0.22798      0.99965     2.71529    0.01304     3.72798
      C   12    0.06842      0.99957     1.91682    0.01520     2.93158
      C   13    0.00269      0.99934     1.98120    0.01677     2.99731
      C   14   -0.15332      0.99945     2.14466    0.00922     3.15332
      C   15    0.08928      0.99959     1.89654    0.01459     2.91072
      N   16   -0.23480      0.99964     2.72187    0.01330     3.73480
      N   17   -0.21195      0.99965     2.69853    0.01377     3.71195
      C   18    0.05607      0.99961     1.93004    0.01429     2.94393
      H   19    0.10071      0.00000     0.39824    0.00105     0.39929
      H   20    0.09668      0.00000     0.40179    0.00154     0.40332
      H   21    0.08245      0.00000     0.41611    0.00144     0.41755
      H   22    0.08837      0.00000     0.41031    0.00132     0.41163
      H   23    0.09392      0.00000     0.40494    0.00114     0.40608
      H   24    0.08739      0.00000     0.41146    0.00115     0.41261
      H   25    0.09428      0.00000     0.40431    0.00141     0.40572
      H   26    0.08196      0.00000     0.41658    0.00146     0.41804
      H   27    0.10793      0.00000     0.38971    0.00236     0.39207
      H   28    0.09253      0.00000     0.40614    0.00133     0.40747
      H   29    0.07564      0.00000     0.42286    0.00151     0.42436
      H   30    0.08186      0.00000     0.41671    0.00144     0.41814
 =======================================================================
   * Total *   -0.00000     17.99231    44.74362    0.26407    63.00000

 Normal termination of Gaussian 16 at Fri Dec 11 20:34:17 2020.
