 Gaussian 16, Revision A.03,

 -----------------------------------------------------------
 # opt freq B3LYP/6-31G(d) empiricaldispersion=gd3bj scf=xqc
 -----------------------------------------------------------

 ------------------------------
 CID_64704689_JID_4250_neutraal
 ------------------------------
 Symbolic Z-matrix:
 Charge =  0 Multiplicity = 1

 SCF Done:  E(RB3LYP) =  -1087.57443630     A.U. after   15 cycles
 SCF Done:  E(RB3LYP) =  -1087.58275551     A.U. after   13 cycles
 SCF Done:  E(RB3LYP) =  -1087.56844104     A.U. after   16 cycles
 SCF Done:  E(RB3LYP) =  -1087.58023680     A.U. after   13 cycles
 SCF Done:  E(RB3LYP) =  -1087.58437825     A.U. after   11 cycles
 SCF Done:  E(RB3LYP) =  -1087.58378321     A.U. after   13 cycles
 SCF Done:  E(RB3LYP) =  -1087.58588389     A.U. after   13 cycles
 SCF Done:  E(RB3LYP) =  -1087.58639114     A.U. after   13 cycles
 SCF Done:  E(RB3LYP) =  -1087.58651161     A.U. after   13 cycles
 SCF Done:  E(RB3LYP) =  -1087.58654792     A.U. after   12 cycles
 SCF Done:  E(RB3LYP) =  -1087.58680137     A.U. after   10 cycles
 SCF Done:  E(RB3LYP) =  -1087.58680043     A.U. after    9 cycles
 SCF Done:  E(RB3LYP) =  -1087.58680302     A.U. after    9 cycles
 SCF Done:  E(RB3LYP) =  -1087.58680323     A.U. after    7 cycles
 SCF Done:  E(RB3LYP) =  -1087.58680336     A.U. after    7 cycles
 SCF Done:  E(RB3LYP) =  -1087.58680336     A.U. after    7 cycles
 Optimization completed.
    -- Stationary point found.
 Normal termination of Gaussian 16 at Thu Dec 10 09:33:49 2020.

 --------------------------------------------------------------------
 #N Geom=AllCheck Guess=TCheck SCRF=Check GenChk RB3LYP/6-31G(d) Freq
 --------------------------------------------------------------------

 Structure from the checkpoint file:  "JID_4250.chk"
 ------------------------------
 CID_64704689_JID_4250_neutraal
 ------------------------------
 Charge =  0 Multiplicity = 1

 SCF Done:  E(RB3LYP) =  -1087.58680336     A.U. after    1 cycles

  Exact polarizability: 122.481  -3.877 114.794  -3.722   7.074  97.739
 Approx polarizability: 173.640  -4.298 167.058  -9.951  20.231 164.949

                      1                      2                      3
                      A                      A                      A
 Frequencies --     59.9082                72.5046                77.1548
 Red. masses --      3.5222                 2.5203                 2.8516
 Frc consts  --      0.0074                 0.0078                 0.0100
 IR Inten    --      2.7979                 1.5506                 4.2693

                      4                      5                      6
                      A                      A                      A
 Frequencies --     77.8985                97.2535               111.1249
 Red. masses --      2.1757                 4.4764                 4.6647
 Frc consts  --      0.0078                 0.0249                 0.0339
 IR Inten    --      0.3217                 8.3066                 0.2633

                      7                      8                      9
                      A                      A                      A
 Frequencies --    145.8015               166.4022               183.8344
 Red. masses --      6.5027                 1.0989                 3.6247
 Frc consts  --      0.0814                 0.0179                 0.0722
 IR Inten    --      0.8699                 1.1782                 3.6933

                     10                     11                     12
                      A                      A                      A
 Frequencies --    187.5624               203.6285               218.6969
 Red. masses --      3.5911                 4.9153                 6.2522
 Frc consts  --      0.0744                 0.1201                 0.1762
 IR Inten    --      0.7082                 5.3665                 2.5185

                     13                     14                     15
                      A                      A                      A
 Frequencies --    257.9654               280.6878               301.1755
 Red. masses --      3.8222                 5.3331                 2.8530
 Frc consts  --      0.1499                 0.2476                 0.1525
 IR Inten    --      1.3940                10.2284                13.3906

                     16                     17                     18
                      A                      A                      A
 Frequencies --    333.7343               356.6659               398.6602
 Red. masses --      1.1445                 3.8353                 2.4012
 Frc consts  --      0.0751                 0.2875                 0.2248
 IR Inten    --      0.9938                 5.9542                10.4065

                     19                     20                     21
                      A                      A                      A
 Frequencies --    415.6191               426.7273               432.6537
 Red. masses --      5.5028                 2.3918                 3.2417
 Frc consts  --      0.5600                 0.2566                 0.3575
 IR Inten    --     24.3040                 8.5483                 7.7320

                     22                     23                     24
                      A                      A                      A
 Frequencies --    506.4618               522.1762               559.5125
 Red. masses --      5.2315                 3.9409                 6.5871
 Frc consts  --      0.7906                 0.6331                 1.2150
 IR Inten    --     13.1352                12.2498                19.8733

                     25                     26                     27
                      A                      A                      A
 Frequencies --    641.2976               659.2626               727.8257
 Red. masses --      2.8679                 3.9035                 5.2817
 Frc consts  --      0.6949                 0.9996                 1.6485
 IR Inten    --      4.5560                26.6924                28.7597

                     28                     29                     30
                      A                      A                      A
 Frequencies --    784.1192               820.3423               871.7295
 Red. masses --      3.2050                 5.5563                 2.5949
 Frc consts  --      1.1610                 2.2031                 1.1618
 IR Inten    --      1.5293                49.3100                10.0830

                     31                     32                     33
                      A                      A                      A
 Frequencies --    880.9345               903.6630               944.8341
 Red. masses --      1.9178                 2.4151                 2.7178
 Frc consts  --      0.8769                 1.1620                 1.4295
 IR Inten    --      4.4329                 0.1258                14.2161

                     34                     35                     36
                      A                      A                      A
 Frequencies --   1005.8922              1028.9013              1042.4341
 Red. masses --      1.5687                 1.3990                 4.6843
 Frc consts  --      0.9351                 0.8726                 2.9991
 IR Inten    --      4.5703                 1.9224                14.5601

                     37                     38                     39
                      A                      A                      A
 Frequencies --   1065.7440              1100.9934              1123.7806
 Red. masses --      1.7982                 7.2041                 1.6441
 Frc consts  --      1.2034                 5.1452                 1.2233
 IR Inten    --      6.4587               162.2619                15.0546

                     40                     41                     42
                      A                      A                      A
 Frequencies --   1150.5719              1169.0142              1194.8379
 Red. masses --      2.1111                 1.4445                 1.2715
 Frc consts  --      1.6466                 1.1631                 1.0695
 IR Inten    --      5.0008                57.0941                 3.1998

                     43                     44                     45
                      A                      A                      A
 Frequencies --   1215.6470              1227.4717              1259.8313
 Red. masses --      1.8345                 1.4193                 1.4434
 Frc consts  --      1.5973                 1.2599                 1.3498
 IR Inten    --     30.3977                 1.1369                11.6602

                     46                     47                     48
                      A                      A                      A
 Frequencies --   1277.6599              1315.6965              1328.7155
 Red. masses --      1.7081                 1.9231                 2.4395
 Frc consts  --      1.6429                 1.9614                 2.5376
 IR Inten    --     76.0091                35.9443                19.8007

                     49                     50                     51
                      A                      A                      A
 Frequencies --   1343.0186              1346.6549              1395.5959
 Red. masses --      1.5161                 2.9536                 1.3696
 Frc consts  --      1.6112                 3.1559                 1.5717
 IR Inten    --      6.3463               374.1569                 1.3994

                     52                     53                     54
                      A                      A                      A
 Frequencies --   1417.0657              1444.6172              1467.6974
 Red. masses --      1.3161                 1.2231                 1.1122
 Frc consts  --      1.5571                 1.5038                 1.4115
 IR Inten    --     45.0346                10.6257                17.5881

                     55                     56                     57
                      A                      A                      A
 Frequencies --   1488.2948              1495.5030              1497.1626
 Red. masses --      1.0573                 1.2750                 1.0907
 Frc consts  --      1.3798                 1.6800                 1.4404
 IR Inten    --      8.2335                37.3425                 5.2873

                     58                     59                     60
                      A                      A                      A
 Frequencies --   1502.2899              1511.5118              1533.3341
 Red. masses --      1.0635                 1.0440                 1.0402
 Frc consts  --      1.4141                 1.4054                 1.4409
 IR Inten    --     13.8479                 2.2122                 6.8112

                     61                     62                     63
                      A                      A                      A
 Frequencies --   1533.8155              1558.2554              1799.8292
 Red. masses --      1.0478                 1.0486                10.2771
 Frc consts  --      1.4523                 1.5002                19.6148
 IR Inten    --      5.8418                 3.8216               209.8611

                     64                     65                     66
                      A                      A                      A
 Frequencies --   1812.1590              3046.3981              3051.6397
 Red. masses --     10.0452                 1.0610                 1.0547
 Frc consts  --     19.4358                 5.8013                 5.7870
 IR Inten    --    161.3164                 3.2278                12.9645

                     67                     68                     69
                      A                      A                      A
 Frequencies --   3064.7561              3071.9029              3087.2775
 Red. masses --      1.0384                 1.0833                 1.0307
 Frc consts  --      5.7468                 6.0233                 5.7880
 IR Inten    --     19.3971                 4.3570                37.6546

                     70                     71                     72
                      A                      A                      A
 Frequencies --   3121.5788              3130.6423              3132.2192
 Red. masses --      1.0594                 1.1003                 1.0864
 Frc consts  --      6.0822                 6.3537                 6.2800
 IR Inten    --      2.4603                12.0744                 5.1115

                     73                     74                     75
                      A                      A                      A
 Frequencies --   3142.4487              3163.1858              3176.9008
 Red. masses --      1.0954                 1.1032                 1.1049
 Frc consts  --      6.3733                 6.5038                 6.5700
 IR Inten    --      0.8663                 1.1674                10.4364

                     76                     77                     78
                      A                      A                      A
 Frequencies --   3186.3614              3194.0483              3203.5877
 Red. masses --      1.1037                 1.1076                 1.1094
 Frc consts  --      6.6022                 6.6573                 6.7080
 IR Inten    --      6.0620                 0.3474                 4.6298

 - Thermochemistry -
 -------------------
 Temperature   298.150 Kelvin.  Pressure   1.00000 Atm.
 Atom     1 has atomic number  6 and mass  12.00000

 Molecular mass:   222.05620 amu.
 Principal axes and moments of inertia in atomic units:
                           1         2         3
     Eigenvalues --  2364.889513002.670943959.69955
           X            0.99796  -0.06157  -0.01683
           Y            0.06190   0.99788   0.02030
           Z            0.01554  -0.02130   0.99965
 This molecule is an asymmetric top.
 Rotational symmetry number  1.
 Warning -- assumption of classical behavior for rotation
           may cause significant error
 Rotational temperatures (Kelvin)      0.03662     0.02885     0.02187
 Rotational constants (GHZ):           0.76314     0.60105     0.45578
 Zero-point vibrational energy     592479.1 (Joules/Mol)
                                  141.60589 (Kcal/Mol)
 Warning -- explicit consideration of  24 degrees of freedom as
           vibrations may cause significant error
 Vibrational temperatures:     86.19   104.32   111.01   112.08   139.93
          (Kelvin)            159.88   209.78   239.42   264.50   269.86
                              292.98   314.66   371.15   403.85   433.32
                              480.17   513.16   573.58   597.98   613.97
                              622.49   728.69   751.30   805.01   922.68
                              948.53  1047.18  1128.17  1180.29  1254.22
                             1267.47  1300.17  1359.41  1447.25  1480.36
                             1499.83  1533.37  1584.08  1616.87  1655.42
                             1681.95  1719.11  1749.04  1766.06  1812.62
                             1838.27  1892.99  1911.73  1932.30  1937.54
                             2007.95  2038.84  2078.48  2111.69  2141.32
                             2151.70  2154.08  2161.46  2174.73  2206.13
                             2206.82  2241.98  2589.55  2607.29  4383.09
                             4390.63  4409.50  4419.78  4441.90  4491.26
                             4504.30  4506.56  4521.28  4551.12  4570.85
                             4584.46  4595.52  4609.25

 Zero-point correction=                           0.225663 (Hartree/Particle)
 Thermal correction to Energy=                    0.241619
 Thermal correction to Enthalpy=                  0.242563
 Thermal correction to Gibbs Free Energy=         0.182625
 Sum of electronic and zero-point Energies=          -1087.361140
 Sum of electronic and thermal Energies=             -1087.345184
 Sum of electronic and thermal Enthalpies=           -1087.344240
 Sum of electronic and thermal Free Energies=        -1087.404178

                     E (Thermal)             CV                S
                      KCal/Mol        Cal/Mol-Kelvin    Cal/Mol-Kelvin
 Total                  151.618             57.203            126.150
 Electronic               0.000              0.000              0.000
 Translational            0.889              2.981             42.096
 Rotational               0.889              2.981             31.709
 Vibrational            149.841             51.241             52.345
 Vibration     1          0.597              1.973              4.460
 Vibration     2          0.599              1.967              4.084
 Vibration     3          0.599              1.964              3.962
 Vibration     4          0.599              1.964              3.943
 Vibration     5          0.603              1.951              3.509
 Vibration     6          0.607              1.940              3.249
 Vibration     7          0.617              1.907              2.726
 Vibration     8          0.624              1.884              2.476
 Vibration     9          0.631              1.862              2.289
 Vibration    10          0.632              1.857              2.252
 Vibration    11          0.639              1.835              2.100
 Vibration    12          0.646              1.813              1.970
 Vibration    13          0.667              1.749              1.676
 Vibration    14          0.680              1.709              1.529
 Vibration    15          0.693              1.671              1.410
 Vibration    16          0.715              1.608              1.242
 Vibration    17          0.732              1.562              1.137
 Vibration    18          0.765              1.473              0.968
 Vibration    19          0.779              1.436              0.907
 Vibration    20          0.788              1.412              0.869
 Vibration    21          0.794              1.399              0.850
 Vibration    22          0.862              1.236              0.642
 Vibration    23          0.877              1.201              0.605
 Vibration    24          0.915              1.119              0.525

 Optimization completed.
    -- Stationary point found.
 Normal termination of Gaussian 16 at Thu Dec 10 09:42:35 2020.

 ----------------------------------------------------------------------
 # B3LYP/6-311++G(d,p) empiricaldispersion=gd3bj scf=xqc pop=npa geom=c
 heck
 ----------------------------------------------------------------------

 --------------------------------------
 CID_64704689_JID_4250_Energie_neutraal
 --------------------------------------
 Structure from the checkpoint file:  "JID_4250.chk"
 Charge =  0 Multiplicity = 1

 SCF Done:  E(RB3LYP) =  -1087.82069478     A.U. after   16 cycles
 Normal termination of Gaussian 16 at Thu Dec 10 09:46:49 2020.

 ----------------------------------------------------------------------
 # B3LYP/6-311++G(d,p) empiricaldispersion=gd3bj scf=xqc pop=npa geom=c
 heck
 ----------------------------------------------------------------------

 ------------------------------------
 CID_64704689_JID_4250_Energie_kation
 ------------------------------------
 Structure from the checkpoint file:  "JID_4250.chk"
 Charge =  1 Multiplicity = 2

 SCF Done:  E(UB3LYP) =  -1087.47787416     A.U. after   26 cycles
 Normal termination of Gaussian 16 at Thu Dec 10 09:56:45 2020.
 Gaussian 16:  ES64L-G16RevA.03 25-Dec-2016

 ----------------------------------------------------------------------
 # B3LYP/6-311++G(d,p) empiricaldispersion=gd3bj scf=xqc pop=npa geom=c
 heck
 ----------------------------------------------------------------------

 -----------------------------------
 CID_64704689_JID_4250_Energie_anion
 -----------------------------------
 Structure from the checkpoint file:  "JID_4250.chk"
 Charge = -1 Multiplicity = 2

                         Standard orientation:
 ---------------------------------------------------------------------
 Center     Atomic      Atomic             Coordinates (Angstroms)
 Number     Number       Type             X           Y           Z
 ---------------------------------------------------------------------
      1          6           0       -1.428088    1.338403    1.575206
      2          6           0       -1.547830    1.104325    0.069238
      3          6           0       -0.604965    1.903798   -0.851073
      4          6           0        0.901328    1.764303   -0.631516
      5          8           0        1.552586    1.009059   -1.328618
      6          6           0        1.550101    2.652403    0.408036
      7         16           0       -1.594085   -0.703752   -0.324952
      8          8           0       -2.929502   -1.162384    0.094756
      9          8           0       -1.125725   -0.905832   -1.700727
     10          6           0       -0.453141   -1.585663    0.820286
     11          6           0        0.997889   -1.169292    0.774126
     12          8           0        1.462657   -0.284685    1.468985
     13          8           0        1.685635   -1.897971   -0.100987
     14          6           0        3.074421   -1.536278   -0.267318
     15          1           0       -0.459403    1.018841    1.964990
     16          1           0       -2.221494    0.801391    2.103484
     17          1           0       -1.553203    2.406426    1.783750
     18          1           0       -2.569734    1.352890   -0.240912
     19          1           0       -0.806352    1.611193   -1.883804
     20          1           0       -0.884834    2.958136   -0.724309
     21          1           0        1.617635    3.672091    0.004165
     22          1           0        0.959466    2.705110    1.326104
     23          1           0        2.552385    2.286764    0.632708
     24          1           0       -0.851121   -1.438966    1.823842
     25          1           0       -0.582993   -2.624661    0.509865
     26          1           0        3.134774   -0.519656   -0.656291
     27          1           0        3.596904   -1.611133    0.689489
     28          1           0        3.469827   -2.255890   -0.983029
 ---------------------------------------------------------------------

 SCF Done:  E(UB3LYP) =  -1087.81819324     A.U. after   29 cycles

 The electronic state is 2-A.
 Alpha  occ. eigenvalues --  -88.92673 -19.06172 -19.00156 -19.00111 -18.99899
 Alpha  occ. eigenvalues --  -18.96995 -10.18815 -10.11796 -10.11571 -10.10975
 Alpha  occ. eigenvalues --  -10.10818 -10.06642 -10.06128 -10.04523  -7.99257
 Alpha  occ. eigenvalues --   -5.95500  -5.95432  -5.95324  -1.00377  -0.99270
 Alpha  occ. eigenvalues --   -0.91255  -0.90728  -0.89090  -0.71518  -0.68478
 Alpha  occ. eigenvalues --   -0.62890  -0.61568  -0.59221  -0.55215  -0.49056
 Alpha  occ. eigenvalues --   -0.45816  -0.42380  -0.40176  -0.39301  -0.38872
 Alpha  occ. eigenvalues --   -0.37545  -0.36583  -0.35666  -0.34573  -0.33278
 Alpha  occ. eigenvalues --   -0.32724  -0.31683  -0.30924  -0.30659  -0.29944
 Alpha  occ. eigenvalues --   -0.28923  -0.27775  -0.27522  -0.25706  -0.25663
 Alpha  occ. eigenvalues --   -0.24193  -0.22358  -0.21859  -0.20963  -0.20131
 Alpha  occ. eigenvalues --   -0.19274  -0.17938  -0.17083  -0.11916   0.04657
 Alpha virt. eigenvalues --    0.07249   0.07756   0.08607   0.09138   0.09552
 Alpha virt. eigenvalues --    0.10421   0.10862   0.11279   0.12036   0.12686
 Alpha virt. eigenvalues --    0.13145   0.13354   0.13973   0.14596   0.15339

  Beta  occ. eigenvalues --  -88.92637 -19.06094 -19.00154 -19.00103 -18.99813
  Beta  occ. eigenvalues --  -18.96795 -10.18614 -10.11799 -10.11318 -10.10930
  Beta  occ. eigenvalues --  -10.10790 -10.06617 -10.06127 -10.04524  -7.99218
  Beta  occ. eigenvalues --   -5.95474  -5.95356  -5.95295  -1.00179  -0.99206
  Beta  occ. eigenvalues --   -0.91073  -0.90326  -0.89066  -0.71411  -0.68280
  Beta  occ. eigenvalues --   -0.62659  -0.61475  -0.59149  -0.55089  -0.48799
  Beta  occ. eigenvalues --   -0.45657  -0.42180  -0.39865  -0.39056  -0.38708
  Beta  occ. eigenvalues --   -0.37397  -0.36410  -0.35487  -0.34501  -0.33158
  Beta  occ. eigenvalues --   -0.32511  -0.31563  -0.30836  -0.30523  -0.29722
  Beta  occ. eigenvalues --   -0.28583  -0.27642  -0.27332  -0.25593  -0.25491
  Beta  occ. eigenvalues --   -0.24089  -0.21891  -0.21466  -0.20878  -0.19732
  Beta  occ. eigenvalues --   -0.19184  -0.17870  -0.16970  -0.11744
  Beta virt. eigenvalues --    0.07512   0.08208   0.08754   0.09009   0.09868
  Beta virt. eigenvalues --    0.10161   0.10956   0.11490   0.11951   0.12230
  Beta virt. eigenvalues --    0.12884   0.13277   0.13523   0.14037   0.14966

 Mulliken charges and spin densities:
               1          2
     1  C    0.108649  -0.742733
     2  C   -0.360203   0.333091
     3  C    0.084969  -0.794830
     4  C   -0.278581   0.707494
     5  O   -0.258936   0.061891
     6  C    0.360186  -0.938604
     7  S    0.821262  -0.346286
     8  O   -0.191947   0.000856
     9  O   -0.155044   0.009772
    10  C   -0.622960  -0.167918
    11  C   -0.408660   0.295268
    12  O   -0.195821   0.012521
    13  O    0.048093   0.008558
    14  C   -0.139715  -0.018816
    15  H    0.195077  -0.006936
    16  H    0.071049   0.088492
    17  H   -0.312076   0.483794
    18  H   -0.293756   0.603610
    19  H    0.154352   0.095943
    20  H   -0.508590   0.698568
    21  H   -0.372715   0.539044
    22  H    0.154955   0.007920
    23  H    0.123546   0.022405
    24  H    0.249957   0.012599
    25  H    0.283075  -0.016365
    26  H    0.212458   0.007046
    27  H    0.103381   0.035749
    28  H    0.127994   0.007867
 Sum of Mulliken charges =  -1.00000   1.00000

 Dipole moment (field-independent basis, Debye):
    X=              3.5250    Y=             -6.1333    Z=              3.0598  Tot=              7.7075
 Quadrupole moment (field-independent basis, Debye-Ang):
   XX=           -129.3863   YY=           -136.9141   ZZ=           -115.0510
   XY=             -2.1689   XZ=             -1.9068   YZ=             -2.2065

 Summary of Natural Population Analysis:

                                       Natural Population
                Natural  -----------------------------------------------
    Atom  No    Charge         Core      Valence    Rydberg      Total
 -----------------------------------------------------------------------
      C    1   -0.30596      0.99962     2.29917    0.00716     3.30596
      C    2   -0.18819      0.99955     2.17181    0.01683     3.18819
      C    3   -0.24542      0.99955     2.23377    0.01210     3.24542
      C    4    0.31976      0.99968     1.65844    0.02212     2.68024
      O    5   -0.28227      0.99987     3.27540    0.00700     4.28227
      C    6   -0.33131      0.99961     2.32607    0.00563     3.33131
      S    7    1.02766      4.99921     1.87833    0.09480     6.97234
      O    8   -0.47830      0.99991     3.47241    0.00598     4.47830
      O    9   -0.45808      0.99991     3.45208    0.00609     4.45808
      C   10   -0.32950      0.99953     2.31867    0.01130     3.32950
      C   11    0.42272      0.99969     1.55257    0.02502     2.57728
      O   12   -0.30785      0.99987     3.30208    0.00590     4.30785
      O   13   -0.26367      0.99985     3.25529    0.00853     4.26367
      C   14   -0.10954      0.99960     2.10229    0.00766     3.10954
      H   15    0.11486      0.00000     0.38376    0.00137     0.38514
      H   16    0.10454      0.00000     0.39446    0.00100     0.39546
      H   17    0.10962      0.00000     0.38917    0.00121     0.39038
      H   18    0.12068      0.00000     0.37667    0.00265     0.37932
      H   19    0.12158      0.00000     0.37706    0.00136     0.37842
      H   20    0.11271      0.00000     0.38250    0.00479     0.38729
      H   21    0.11092      0.00000     0.38648    0.00259     0.38908
      H   22    0.10407      0.00000     0.39483    0.00110     0.39593
      H   23    0.10711      0.00000     0.39197    0.00092     0.39289
      H   24    0.11922      0.00000     0.37984    0.00094     0.38078
      H   25    0.12304      0.00000     0.37571    0.00125     0.37696
      H   26    0.11177      0.00000     0.38708    0.00115     0.38823
      H   27    0.08457      0.00000     0.41428    0.00115     0.41543
      H   28    0.08523      0.00000     0.41404    0.00073     0.41477
 =======================================================================
   * Total *    0.00000     17.99545    40.74622    0.25833    59.00000

 Normal termination of Gaussian 16 at Thu Dec 10 10:08:00 2020.
