 Gaussian 16, Revision A.03,

 -----------------------------------------------------------
 # opt freq B3LYP/6-31G(d) empiricaldispersion=gd3bj scf=xqc
 -----------------------------------------------------------

 -----------------------------
 CID_4254751_JID_5071_neutraal
 -----------------------------
 Symbolic Z-matrix:
 Charge =  0 Multiplicity = 1

 SCF Done:  E(RB3LYP) =  -659.118064944     A.U. after   13 cycles
 SCF Done:  E(RB3LYP) =  -659.123037797     A.U. after   11 cycles
 SCF Done:  E(RB3LYP) =  -659.123368521     A.U. after   10 cycles
 SCF Done:  E(RB3LYP) =  -659.123855102     A.U. after   10 cycles
 SCF Done:  E(RB3LYP) =  -659.123963888     A.U. after   10 cycles
 SCF Done:  E(RB3LYP) =  -659.124036197     A.U. after   10 cycles
 SCF Done:  E(RB3LYP) =  -659.124076611     A.U. after    9 cycles
 SCF Done:  E(RB3LYP) =  -659.124101003     A.U. after    9 cycles
 SCF Done:  E(RB3LYP) =  -659.124118324     A.U. after    9 cycles
 SCF Done:  E(RB3LYP) =  -659.124150385     A.U. after   10 cycles
 SCF Done:  E(RB3LYP) =  -659.124413842     A.U. after    9 cycles
 SCF Done:  E(RB3LYP) =  -659.124407458     A.U. after   10 cycles
 SCF Done:  E(RB3LYP) =  -659.124419492     A.U. after    9 cycles
 SCF Done:  E(RB3LYP) =  -659.124419024     A.U. after    9 cycles
 SCF Done:  E(RB3LYP) =  -659.124420869     A.U. after    8 cycles
 SCF Done:  E(RB3LYP) =  -659.124421002     A.U. after    7 cycles
 Optimization completed.
    -- Stationary point found.
 Normal termination of Gaussian 16 at Thu Dec 10 15:08:25 2020.

 --------------------------------------------------------------------
 #N Geom=AllCheck Guess=TCheck SCRF=Check GenChk RB3LYP/6-31G(d) Freq
 --------------------------------------------------------------------

 Structure from the checkpoint file:  "JID_5071.chk"
 -----------------------------
 CID_4254751_JID_5071_neutraal
 -----------------------------
 Charge =  0 Multiplicity = 1

 SCF Done:  E(RB3LYP) =  -659.124421002     A.U. after    1 cycles

  Exact polarizability: 145.047   2.157 125.635  -2.036   3.115 122.292
 Approx polarizability: 187.982   0.980 184.521   0.924  -0.928 188.947

                      1                      2                      3
                      A                      A                      A
 Frequencies --     47.8213               113.1034               134.9117
 Red. masses --      2.1196                 2.8690                 2.9344
 Frc consts  --      0.0029                 0.0216                 0.0315
 IR Inten    --      0.0089                 0.7020                 0.2646

                      4                      5                      6
                      A                      A                      A
 Frequencies --    198.6377               214.7477               227.7592
 Red. masses --      2.3670                 2.9694                 2.1188
 Frc consts  --      0.0550                 0.0807                 0.0648
 IR Inten    --      0.6155                 0.2807                 1.7733

                      7                      8                      9
                      A                      A                      A
 Frequencies --    240.1700               262.9576               274.8065
 Red. masses --      2.6981                 1.6016                 2.0418
 Frc consts  --      0.0917                 0.0652                 0.0908
 IR Inten    --      1.0353                70.6261                 8.5822

                     10                     11                     12
                      A                      A                      A
 Frequencies --    298.6299               305.2675               317.7735
 Red. masses --      2.0549                 2.0239                 3.0649
 Frc consts  --      0.1080                 0.1111                 0.1824
 IR Inten    --     56.2170                27.3692                52.3944

                     13                     14                     15
                      A                      A                      A
 Frequencies --    370.2375               381.1895               438.8273
 Red. masses --      2.4020                 1.9822                 2.5994
 Frc consts  --      0.1940                 0.1697                 0.2949
 IR Inten    --     12.2677                29.9824                 2.4920

                     16                     17                     18
                      A                      A                      A
 Frequencies --    450.1241               462.0714               500.7512
 Red. masses --      3.4904                 3.7664                 3.8422
 Frc consts  --      0.4167                 0.4738                 0.5676
 IR Inten    --      3.1368                 9.7036                 4.1109

                     19                     20                     21
                      A                      A                      A
 Frequencies --    510.9959               533.2898               553.5659
 Red. masses --      2.7769                 3.4926                 3.5229
 Frc consts  --      0.4272                 0.5852                 0.6361
 IR Inten    --      2.1541                 2.8034                 6.2499

                     22                     23                     24
                      A                      A                      A
 Frequencies --    643.6555               667.4073               735.4534
 Red. masses --      2.5231                 3.1616                 2.1095
 Frc consts  --      0.6159                 0.8297                 0.6723
 IR Inten    --      9.1496                 1.9039                 2.7276

                     25                     26                     27
                      A                      A                      A
 Frequencies --    751.4659               771.4273               787.3705
 Red. masses --      2.6185                 1.6840                 2.5566
 Frc consts  --      0.8712                 0.5905                 0.9338
 IR Inten    --      3.5810                 0.3517                 6.2712

                     28                     29                     30
                      A                      A                      A
 Frequencies --    812.1005               851.8379               863.5819
 Red. masses --      1.9090                 2.4975                 2.6409
 Frc consts  --      0.7418                 1.0677                 1.1604
 IR Inten    --      3.4721                 1.3933                 0.8191

                     31                     32                     33
                      A                      A                      A
 Frequencies --    888.9253               899.2792               909.4582
 Red. masses --      1.8264                 2.4839                 2.0614
 Frc consts  --      0.8503                 1.1835                 1.0046
 IR Inten    --      3.7342                 6.5428                 0.7947

                     34                     35                     36
                      A                      A                      A
 Frequencies --    941.4237               966.1296               979.6313
 Red. masses --      2.1117                 2.4561                 2.1045
 Frc consts  --      1.1027                 1.3507                 1.1899
 IR Inten    --      3.3182                 8.6906                 8.5805

                     37                     38                     39
                      A                      A                      A
 Frequencies --    991.8494              1027.7077              1053.0300
 Red. masses --      2.0331                 2.2622                 3.1040
 Frc consts  --      1.1784                 1.4077                 2.0279
 IR Inten    --     13.0854                 2.9946                17.5035

                     40                     41                     42
                      A                      A                      A
 Frequencies --   1054.5966              1070.1443              1078.7724
 Red. masses --      2.3745                 1.9244                 2.8555
 Frc consts  --      1.5559                 1.2985                 1.9579
 IR Inten    --     47.6300                 4.3609                38.0046

                     43                     44                     45
                      A                      A                      A
 Frequencies --   1084.2247              1104.8957              1118.3853
 Red. masses --      2.4315                 2.1188                 2.2642
 Frc consts  --      1.6841                 1.5240                 1.6686
 IR Inten    --     18.0752                 7.3447                 1.5173

                     46                     47                     48
                      A                      A                      A
 Frequencies --   1130.8358              1142.9450              1146.8275
 Red. masses --      2.6983                 2.8923                 2.2206
 Frc consts  --      2.0330                 2.2261                 1.7208
 IR Inten    --      1.5767                19.4624                10.0037

                     49                     50                     51
                      A                      A                      A
 Frequencies --   1158.3320              1193.9995              1209.5607
 Red. masses --      2.2906                 1.1885                 1.1668
 Frc consts  --      1.8108                 0.9983                 1.0057
 IR Inten    --      5.7436                 0.3416                 7.1858

                     52                     53                     54
                      A                      A                      A
 Frequencies --   1221.0888              1234.4494              1250.8413
 Red. masses --      1.1989                 1.2253                 1.2302
 Frc consts  --      1.0532                 1.1001                 1.1340
 IR Inten    --      5.6756                13.4956                 8.7747

                     55                     56                     57
                      A                      A                      A
 Frequencies --   1268.4358              1281.5909              1293.2849
 Red. masses --      1.1627                 1.2509                 1.3350
 Frc consts  --      1.1022                 1.2105                 1.3156
 IR Inten    --     14.1744                15.1074                 8.9463

                     58                     59                     60
                      A                      A                      A
 Frequencies --   1301.1507              1318.2836              1336.7834
 Red. masses --      1.2609                 1.2005                 1.4317
 Frc consts  --      1.2577                 1.2292                 1.5074
 IR Inten    --     14.0340                 1.7429                 8.7769

                     61                     62                     63
                      A                      A                      A
 Frequencies --   1348.4915              1363.8575              1369.5495
 Red. masses --      1.2509                 1.2982                 1.5122
 Frc consts  --      1.3402                 1.4227                 1.6712
 IR Inten    --      2.8425                10.8719                 3.5231

                     64                     65                     66
                      A                      A                      A
 Frequencies --   1371.2669              1374.9098              1377.6053
 Red. masses --      1.3462                 1.3309                 1.4248
 Frc consts  --      1.4914                 1.4824                 1.5931
 IR Inten    --      7.5634                 4.5551                 1.2293

                     67                     68                     69
                      A                      A                      A
 Frequencies --   1380.3209              1392.0780              1396.4699
 Red. masses --      1.3478                 1.4693                 1.4214
 Frc consts  --      1.5130                 1.6776                 1.6332
 IR Inten    --     18.3400                 0.6692                 4.2031

                     70                     71                     72
                      A                      A                      A
 Frequencies --   1401.7997              1407.2610              1417.4691
 Red. masses --      1.3710                 1.3826                 1.2902
 Frc consts  --      1.5873                 1.6132                 1.5274
 IR Inten    --      2.4583                 3.4342                 1.0369

                     73                     74                     75
                      A                      A                      A
 Frequencies --   1420.0600              1425.9888              1467.6464
 Red. masses --      1.4551                 1.3671                 1.4555
 Frc consts  --      1.7288                 1.6379                 1.8472
 IR Inten    --      8.3052                 7.5206                 3.9002

                     76                     77                     78
                      A                      A                      A
 Frequencies --   1515.4027              1516.2458              1519.8273
 Red. masses --      1.0775                 1.0754                 1.0832
 Frc consts  --      1.4579                 1.4567                 1.4742
 IR Inten    --      0.5223                 0.6623                 1.0771

                     79                     80                     81
                      A                      A                      A
 Frequencies --   1524.7204              1532.7336              1534.6546
 Red. masses --      1.0879                 1.0845                 1.0911
 Frc consts  --      1.4901                 1.5011                 1.5140
 IR Inten    --      2.9423                 3.8468                10.2378

                     82                     83                     84
                      A                      A                      A
 Frequencies --   1545.8222              1546.5637              3022.8641
 Red. masses --      1.0946                 1.0948                 1.0781
 Frc consts  --      1.5411                 1.5428                 5.8040
 IR Inten    --      2.3699                 8.2115                23.4164

                     85                     86                     87
                      A                      A                      A
 Frequencies --   3024.6797              3036.6437              3039.2454
 Red. masses --      1.0703                 1.0663                 1.0744
 Frc consts  --      5.7689                 5.7934                 5.8471
 IR Inten    --     19.4192                 9.0285                39.5113

                     88                     89                     90
                      A                      A                      A
 Frequencies --   3042.5019              3044.8256              3049.1629
 Red. masses --      1.0796                 1.0709                 1.0637
 Frc consts  --      5.8882                 5.8496                 5.8266
 IR Inten    --     79.2412                30.1699                38.0579

                     91                     92                     93
                      A                      A                      A
 Frequencies --   3053.3219              3059.3476              3061.5033
 Red. masses --      1.0710                 1.0709                 1.0728
 Frc consts  --      5.8828                 5.9056                 5.9245
 IR Inten    --     22.2073                71.9194                56.6348

                     94                     95                     96
                      A                      A                      A
 Frequencies --   3066.2256              3069.4456              3076.2615
 Red. masses --      1.0901                 1.0865                 1.0792
 Frc consts  --      6.0385                 6.0312                 6.0172
 IR Inten    --     19.5087                45.0561                63.5108

                     97                     98                     99
                      A                      A                      A
 Frequencies --   3078.5714              3081.6352              3087.2441
 Red. masses --      1.0984                 1.0927                 1.0999
 Frc consts  --      6.1335                 6.1138                 6.1766
 IR Inten    --     16.4450                21.9682                16.8484

                    100                    101                    102
                      A                      A                      A
 Frequencies --   3098.3537              3104.7487              3115.2080
 Red. masses --      1.0992                 1.1001                 1.0954
 Frc consts  --      6.2173                 6.2477                 6.2632
 IR Inten    --     32.1741               104.5972                10.2194

                    103                    104                    105
                      A                      A                      A
 Frequencies --   3138.9636              3731.4281              3745.5211
 Red. masses --      1.0953                 1.0661                 1.0655
 Frc consts  --      6.3586                 8.7457                 8.8072
 IR Inten    --     31.5532                 6.4790                 5.1945

 - Thermochemistry -
 -------------------
 Temperature   298.150 Kelvin.  Pressure   1.00000 Atm.
 Atom     1 has atomic number  6 and mass  12.00000

 Molecular mass:   210.16198 amu.
 Principal axes and moments of inertia in atomic units:
                           1         2         3
     Eigenvalues --  1871.833253323.091183455.29973
           X            0.99973   0.01841  -0.01405
           Y           -0.01527   0.98017   0.19755
           Z            0.01741  -0.19728   0.98019
 This molecule is an asymmetric top.
 Rotational symmetry number  1.
 Warning -- assumption of classical behavior for rotation
           may cause significant error
 Rotational temperatures (Kelvin)      0.04627     0.02606     0.02507
 Rotational constants (GHZ):           0.96416     0.54309     0.52231
 Zero-point vibrational energy     893354.7 (Joules/Mol)
                                  213.51691 (Kcal/Mol)
 Warning -- explicit consideration of  21 degrees of freedom as
           vibrations may cause significant error
 Vibrational temperatures:     68.80   162.73   194.11   285.80   308.97
          (Kelvin)            327.69   345.55   378.34   395.39   429.66
                              439.21   457.21   532.69   548.45   631.37
                              647.63   664.82   720.47   735.21   767.29
                              796.46   926.08   960.25  1058.15  1081.19
                             1109.91  1132.85  1168.43  1225.60  1242.50
                             1278.97  1293.86  1308.51  1354.50  1390.05
                             1409.47  1427.05  1478.64  1515.08  1517.33
                             1539.70  1552.11  1559.96  1589.70  1609.11
                             1627.02  1644.44  1650.03  1666.58  1717.90
                             1740.29  1756.87  1776.10  1799.68  1825.00
                             1843.92  1860.75  1872.07  1896.72  1923.33
                             1940.18  1962.29  1970.48  1972.95  1978.19
                             1982.07  1985.97  2002.89  2009.21  2016.88
                             2024.73  2039.42  2043.15  2051.68  2111.62
                             2180.33  2181.54  2186.69  2193.73  2205.26
                             2208.03  2224.09  2225.16  4349.23  4351.84
                             4369.05  4372.80  4377.48  4380.82  4387.07
                             4393.05  4401.72  4404.82  4411.61  4416.25
                             4426.05  4429.38  4433.79  4441.86  4457.84
                             4467.04  4482.09  4516.27  5368.69  5388.97

 Zero-point correction=                           0.340261 (Hartree/Particle)
 Thermal correction to Energy=                    0.353630
 Thermal correction to Enthalpy=                  0.354574
 Thermal correction to Gibbs Free Energy=         0.301830
 Sum of electronic and zero-point Energies=           -658.784160
 Sum of electronic and thermal Energies=              -658.770791
 Sum of electronic and thermal Enthalpies=            -658.769847
 Sum of electronic and thermal Free Energies=         -658.822591

                     E (Thermal)             CV                S
                      KCal/Mol        Cal/Mol-Kelvin    Cal/Mol-Kelvin
 Total                  221.906             56.410            111.008
 Electronic               0.000              0.000              0.000
 Translational            0.889              2.981             41.932
 Rotational               0.889              2.981             31.442
 Vibrational            220.128             50.448             37.635
 Vibration     1          0.595              1.978              4.906
 Vibration     2          0.607              1.939              3.215
 Vibration     3          0.613              1.918              2.875
 Vibration     4          0.637              1.842              2.146
 Vibration     5          0.645              1.819              2.003
 Vibration     6          0.651              1.799              1.897
 Vibration     7          0.657              1.779              1.802
 Vibration     8          0.670              1.741              1.642
 Vibration     9          0.677              1.720              1.566
 Vibration    10          0.692              1.676              1.425
 Vibration    11          0.696              1.664              1.388
 Vibration    12          0.704              1.640              1.322
 Vibration    13          0.742              1.533              1.079
 Vibration    14          0.751              1.510              1.034
 Vibration    15          0.799              1.386              0.830
 Vibration    16          0.809              1.361              0.795
 Vibration    17          0.820              1.334              0.760
 Vibration    18          0.856              1.248              0.656
 Vibration    19          0.866              1.226              0.631
 Vibration    20          0.888              1.176              0.580
 Vibration    21          0.909              1.132              0.537

                           ! Non-Optimized Parameters !
 Normal termination of Gaussian 16 at Thu Dec 10 15:25:10 2020.

 ----------------------------------------------------------------------
 # B3LYP/6-311++G(d,p) empiricaldispersion=gd3bj scf=xqc pop=npa geom=c
 heck
 ----------------------------------------------------------------------

 -------------------------------------
 CID_4254751_JID_5071_Energie_neutraal
 -------------------------------------
 Structure from the checkpoint file:  "JID_5071.chk"
 Charge =  0 Multiplicity = 1

 SCF Done:  E(RB3LYP) =  -659.319663021     A.U. after   13 cycles
 Normal termination of Gaussian 16 at Thu Dec 10 15:32:58 2020.

 ----------------------------------------------------------------------
 # B3LYP/6-311++G(d,p) empiricaldispersion=gd3bj scf=xqc pop=npa geom=c
 heck
 ----------------------------------------------------------------------

 -----------------------------------
 CID_4254751_JID_5071_Energie_kation
 -----------------------------------
 Structure from the checkpoint file:  "JID_5071.chk"
 Charge =  1 Multiplicity = 2

 SCF Done:  E(UB3LYP) =  -658.993320929     A.U. after   26 cycles
 Normal termination of Gaussian 16 at Thu Dec 10 15:58:11 2020.
 Gaussian 16:  ES64L-G16RevA.03 25-Dec-2016

 ----------------------------------------------------------------------
 # B3LYP/6-311++G(d,p) empiricaldispersion=gd3bj scf=xqc pop=npa geom=c
 heck
 ----------------------------------------------------------------------

 ----------------------------------
 CID_4254751_JID_5071_Energie_anion
 ----------------------------------
 Structure from the checkpoint file:  "JID_5071.chk"
 Charge = -1 Multiplicity = 2

                         Standard orientation:
 ---------------------------------------------------------------------
 Center     Atomic      Atomic             Coordinates (Angstroms)
 Number     Number       Type             X           Y           Z
 ---------------------------------------------------------------------
      1          6           0       -2.603232   -0.764407    0.923536
      2          6           0       -2.894206    0.744683    0.855745
      3          6           0       -1.925932    1.503041   -0.083624
      4          6           0       -0.644120    0.740491   -0.460037
      5          6           0       -1.013594   -0.589220   -1.157637
      6          6           0       -2.165208   -1.353181   -0.425099
      7          6           0        0.241395   -1.463670   -1.464391
      8          6           0        1.423496   -1.257190   -0.482728
      9          6           0        2.421648   -0.160890   -0.967867
     10          6           0        2.765790    0.889125    0.100915
     11          6           0        1.526681    1.474960    0.825108
     12          6           0        0.296242    0.535166    0.796650
     13          6           0        0.807444   -0.915035    0.870285
     14          8           0        1.778800   -1.104479    1.903169
     15          8           0        0.001411    1.489060   -1.504985
     16          1           0       -1.828016   -0.949491    1.674157
     17          1           0       -3.493013   -1.297646    1.279154
     18          1           0       -3.919562    0.904407    0.502007
     19          1           0       -2.856646    1.161862    1.868612
     20          1           0       -2.427547    1.732911   -1.030452
     21          1           0       -1.643350    2.469088    0.358729
     22          1           0       -1.416857   -0.268552   -2.122924
     23          1           0       -3.040076   -1.373628   -1.087205
     24          1           0       -1.880205   -2.401288   -0.276900
     25          1           0       -0.064871   -2.516721   -1.451102
     26          1           0        0.588328   -1.257378   -2.481619
     27          1           0        1.959141   -2.205695   -0.369658
     28          1           0        1.991984    0.348969   -1.831785
     29          1           0        3.348439   -0.638979   -1.305571
     30          1           0        3.344083    1.698217   -0.361325
     31          1           0        3.408527    0.425222    0.852623
     32          1           0        1.261935    2.459113    0.419429
     33          1           0        1.790426    1.662658    1.870849
     34          1           0       -0.308039    0.744778    1.689342
     35          1           0       -0.023437   -1.607425    1.054482
     36          1           0        1.363304   -0.847398    2.741255
     37          1           0        0.185339    2.377100   -1.162706
 ---------------------------------------------------------------------

 SCF Done:  E(UB3LYP) =  -659.308139375     A.U. after   28 cycles

 The electronic state is 2-A.
 Alpha  occ. eigenvalues --  -19.01513 -19.01092 -10.12382 -10.10705 -10.07020
 Alpha  occ. eigenvalues --  -10.06490 -10.06490 -10.06436 -10.06346 -10.06036
 Alpha  occ. eigenvalues --  -10.05964 -10.05921 -10.05708 -10.05150 -10.05058
 Alpha  occ. eigenvalues --   -0.92218  -0.91349  -0.74257  -0.70786  -0.67313
 Alpha  occ. eigenvalues --   -0.64577  -0.63037  -0.61391  -0.56655  -0.52733
 Alpha  occ. eigenvalues --   -0.51390  -0.48937  -0.47746  -0.43425  -0.41847
 Alpha  occ. eigenvalues --   -0.40254  -0.39854  -0.38573  -0.36877  -0.35474
 Alpha  occ. eigenvalues --   -0.34046  -0.32887  -0.32392  -0.30466  -0.30172
 Alpha  occ. eigenvalues --   -0.28857  -0.28302  -0.27916  -0.27094  -0.26284
 Alpha  occ. eigenvalues --   -0.25631  -0.25350  -0.24206  -0.23329  -0.22872
 Alpha  occ. eigenvalues --   -0.21521  -0.21457  -0.20901  -0.20097  -0.18555
 Alpha  occ. eigenvalues --   -0.17630  -0.17106  -0.15432   0.04441
 Alpha virt. eigenvalues --    0.06795   0.07195   0.07630   0.09050   0.09117
 Alpha virt. eigenvalues --    0.09397   0.09971   0.10127   0.11319   0.11539
 Alpha virt. eigenvalues --    0.12157   0.12330   0.12548   0.12988   0.13484

  Beta  occ. eigenvalues --  -19.01496 -19.01055 -10.12379 -10.10696 -10.07017
  Beta  occ. eigenvalues --  -10.06479 -10.06472 -10.06433 -10.06340 -10.06013
  Beta  occ. eigenvalues --  -10.05944 -10.05897 -10.05678 -10.05142 -10.05053
  Beta  occ. eigenvalues --   -0.92180  -0.91272  -0.74227  -0.70753  -0.67282
  Beta  occ. eigenvalues --   -0.64544  -0.63000  -0.61351  -0.56618  -0.52682
  Beta  occ. eigenvalues --   -0.51347  -0.48895  -0.47704  -0.43376  -0.41796
  Beta  occ. eigenvalues --   -0.40199  -0.39812  -0.38529  -0.36830  -0.35440
  Beta  occ. eigenvalues --   -0.34026  -0.32851  -0.32361  -0.30432  -0.30147
  Beta  occ. eigenvalues --   -0.28825  -0.28275  -0.27884  -0.27062  -0.26250
  Beta  occ. eigenvalues --   -0.25597  -0.25320  -0.24172  -0.23300  -0.22844
  Beta  occ. eigenvalues --   -0.21490  -0.21427  -0.20875  -0.20065  -0.18531
  Beta  occ. eigenvalues --   -0.17594  -0.17078  -0.15400
  Beta virt. eigenvalues --    0.06723   0.07472   0.07920   0.08137   0.09295
  Beta virt. eigenvalues --    0.09565   0.09839   0.10302   0.10496   0.11595
  Beta virt. eigenvalues --    0.11805   0.12317   0.12574   0.12822   0.13440

 Mulliken charges and spin densities:
               1          2
     1  C   -0.117457  -0.076621
     2  C    1.373756  -1.826845
     3  C    0.449526  -0.591546
     4  C   -0.850769   0.604189
     5  C    0.532269  -0.190388
     6  C   -0.027512  -0.528283
     7  C   -0.756222  -0.207526
     8  C    0.728268   0.176016
     9  C   -0.312366  -0.338157
    10  C   -0.604432   0.291031
    11  C    1.883082  -2.567051
    12  C   -3.130388   3.464478
    13  C    1.286764  -2.321334
    14  O   -0.200289   0.034238
    15  O   -0.138403   0.005893
    16  H   -0.360832   0.499267
    17  H   -0.578108   0.782746
    18  H    0.039981   0.100630
    19  H   -0.298068   0.462873
    20  H   -0.028719   0.194821
    21  H   -0.316318   0.461966
    22  H    0.185286   0.069919
    23  H    0.044515   0.079439
    24  H   -0.097453   0.236624
    25  H   -0.023426   0.157618
    26  H    0.141175   0.001998
    27  H    0.150072   0.084562
    28  H    0.190484  -0.006607
    29  H   -0.031871   0.176158
    30  H   -0.128569   0.282800
    31  H    0.274297  -0.103152
    32  H   -0.118887   0.202089
    33  H   -0.405726   0.580565
    34  H   -0.154092   0.456103
    35  H    0.650520  -0.426238
    36  H   -0.260539   0.525854
    37  H    0.010449   0.251868
 Sum of Mulliken charges =  -1.00000   1.00000

 Dipole moment (field-independent basis, Debye):
    X=              1.3031    Y=             -1.8772    Z=             -5.8501  Tot=              6.2806
 Quadrupole moment (field-independent basis, Debye-Ang):
   XX=           -145.8256   YY=           -134.5738   ZZ=           -142.0025
   XY=             -1.5637   XZ=              3.5977   YZ=              1.3732

 Summary of Natural Population Analysis:

                                       Natural Population
                Natural  -----------------------------------------------
    Atom  No    Charge         Core      Valence    Rydberg      Total
 -----------------------------------------------------------------------
      C    1   -0.19249      0.99963     2.18443    0.00843     3.19249
      C    2   -0.19049      0.99963     2.18248    0.00839     3.19049
      C    3   -0.20125      0.99957     2.19081    0.01087     3.20125
      C    4    0.14838      0.99945     1.83577    0.01639     2.85162
      C    5   -0.11866      0.99953     2.10810    0.01103     3.11866
      C    6   -0.18924      0.99961     2.18031    0.00932     3.18924
      C    7   -0.17869      0.99960     2.17056    0.00852     3.17869
      C    8   -0.11543      0.99957     2.10517    0.01069     3.11543
      C    9   -0.19180      0.99961     2.18437    0.00782     3.19180
      C   10   -0.19234      0.99962     2.18402    0.00869     3.19234
      C   11   -0.18645      0.99961     2.17545    0.01140     3.18645
      C   12   -0.13772      0.99952     2.12176    0.01644     3.13772
      C   13    0.06505      0.99946     1.92065    0.01483     2.93495
      O   14   -0.37462      0.99989     3.36856    0.00616     4.37462
      O   15   -0.38175      0.99989     3.37492    0.00694     4.38175
      H   16    0.09633      0.00000     0.40143    0.00223     0.40367
      H   17    0.10068      0.00000     0.39797    0.00135     0.39932
      H   18    0.09524      0.00000     0.40365    0.00111     0.40476
      H   19    0.10195      0.00000     0.39636    0.00169     0.39805
      H   20    0.09977      0.00000     0.39890    0.00133     0.40023
      H   21    0.10118      0.00000     0.39730    0.00152     0.39882
      H   22    0.10613      0.00000     0.39261    0.00126     0.39387
      H   23    0.09555      0.00000     0.40335    0.00111     0.40445
      H   24    0.09755      0.00000     0.40127    0.00118     0.40245
      H   25    0.09552      0.00000     0.40339    0.00108     0.40448
      H   26    0.09872      0.00000     0.40032    0.00096     0.40128
      H   27    0.10211      0.00000     0.39692    0.00097     0.39789
      H   28    0.10537      0.00000     0.39324    0.00139     0.39463
      H   29    0.09399      0.00000     0.40504    0.00098     0.40601
      H   30    0.09412      0.00000     0.40500    0.00088     0.40588
      H   31    0.10256      0.00000     0.39614    0.00130     0.39744
      H   32    0.08996      0.00000     0.40822    0.00182     0.41004
      H   33    0.10496      0.00000     0.39357    0.00148     0.39504
      H   34    0.10828      0.00000     0.38793    0.00379     0.39172
      H   35    0.08519      0.00000     0.41273    0.00208     0.41481
      H   36    0.23230      0.00000     0.26302    0.00469     0.26770
      H   37    0.23002      0.00000     0.26695    0.00303     0.26998
 =======================================================================
   * Total *   -0.00000     14.99419    42.81264    0.19317    58.00000

 Normal termination of Gaussian 16 at Thu Dec 10 16:21:52 2020.
