 Gaussian 16, Revision A.03,

 -----------------------------------------------------------
 # opt freq B3LYP/6-31G(d) empiricaldispersion=gd3bj scf=xqc
 -----------------------------------------------------------

 -----------------------------
 CID_89318133_JID_938_neutraal
 -----------------------------
 Symbolic Z-matrix:
 Charge =  0 Multiplicity = 1

 SCF Done:  E(RB3LYP) =  -427.830376419     A.U. after   13 cycles
 SCF Done:  E(RB3LYP) =  -427.831826614     A.U. after   11 cycles
 SCF Done:  E(RB3LYP) =  -427.831994773     A.U. after   10 cycles
 SCF Done:  E(RB3LYP) =  -427.832014620     A.U. after    9 cycles
 SCF Done:  E(RB3LYP) =  -427.832018549     A.U. after    9 cycles
 SCF Done:  E(RB3LYP) =  -427.832021151     A.U. after    9 cycles
 SCF Done:  E(RB3LYP) =  -427.832021693     A.U. after    8 cycles
 SCF Done:  E(RB3LYP) =  -427.832021792     A.U. after    7 cycles
 Optimization completed.
    -- Stationary point found.

 1\1\GINC-NODE119\FOpt\RB3LYP\6-31G(d)\C9H16O1\VSC10255\08-Dec-2020\0\\
 # opt freq B3LYP/6-31G(d) empiricaldispersion=gd3bj scf=xqc\\CID_89318
 133_JID_938_neutraal\\0,1\C,1.0815255724,0.0806779518,-0.0366174743\C,
 0.3926926679,-1.168659579,-0.6052578046\C,1.411382913,-2.3127780174,-0
 .8158963716\C,1.9300532668,-2.882251137,0.5107342689\C,0.7529723561,-3
 .2376336934,1.4179044488\O,-0.1106020816,-2.1252466923,1.6115878413\C,
 -0.6728766954,-1.6712653042,0.3891394885\C,-0.2654838337,-0.844406325,
 -1.9724657126\C,-1.3528691245,0.1933183522,-1.9340494166\C,-1.26837632

 Normal termination of Gaussian 16 at Tue Dec  8 13:29:46 2020.

 --------------------------------------------------------------------
 #N Geom=AllCheck Guess=TCheck SCRF=Check GenChk RB3LYP/6-31G(d) Freq
 --------------------------------------------------------------------

 Structure from the checkpoint file:  "JID_938.chk"
 -----------------------------
 CID_89318133_JID_938_neutraal
 -----------------------------
 Charge =  0 Multiplicity = 1

 SCF Done:  E(RB3LYP) =  -427.832021792     A.U. after    1 cycles

  Exact polarizability: 120.117   1.842  85.121  -8.576   2.637  79.600
 Approx polarizability: 150.114  -1.604 124.573 -14.251   3.818 121.983

                      1                      2                      3
                      A                      A                      A
 Frequencies --     55.7999                89.3473               152.3490
 Red. masses --      2.6880                 2.9266                 2.3247
 Frc consts  --      0.0049                 0.0138                 0.0318
 IR Inten    --      0.0122                 0.0132                 0.2722

                      4                      5                      6
                      A                      A                      A
 Frequencies --    195.9854               209.6892               257.2426
 Red. masses --      2.3595                 1.3537                 1.7537
 Frc consts  --      0.0534                 0.0351                 0.0684
 IR Inten    --      0.8132                 0.9970                 2.0260

                      7                      8                      9
                      A                      A                      A
 Frequencies --    301.1998               325.8852               342.1616
 Red. masses --      2.9000                 2.1737                 2.6119
 Frc consts  --      0.1550                 0.1360                 0.1802
 IR Inten    --      0.2217                 0.2580                 2.5054

                     10                     11                     12
                      A                      A                      A
 Frequencies --    411.6321               413.8716               444.3051
 Red. masses --      1.8832                 2.2846                 1.8371
 Frc consts  --      0.1880                 0.2306                 0.2137
 IR Inten    --      2.6341                 0.3128                 1.7988

                     13                     14                     15
                      A                      A                      A
 Frequencies --    476.4313               496.6579               576.9456
 Red. masses --      3.2807                 2.3054                 1.9002
 Frc consts  --      0.4388                 0.3350                 0.3727
 IR Inten    --      3.1165                 0.6381                 3.0529

                     16                     17                     18
                      A                      A                      A
 Frequencies --    687.6589               754.7883               862.0711
 Red. masses --      1.8987                 2.7097                 2.6754
 Frc consts  --      0.5290                 0.9095                 1.1715
 IR Inten    --      7.8300                 3.3362                 3.9805

                     19                     20                     21
                      A                      A                      A
 Frequencies --    886.4023               894.3576               908.2090
 Red. masses --      1.5275                 1.6562                 2.3750
 Frc consts  --      0.7071                 0.7805                 1.1542
 IR Inten    --      8.7912                 0.7802                 8.7577

                     22                     23                     24
                      A                      A                      A
 Frequencies --    922.6352               941.0593               960.9414
 Red. masses --      1.8486                 1.3619                 2.2140
 Frc consts  --      0.9271                 0.7106                 1.2045
 IR Inten    --      1.5296                32.0718                 9.5341

                     25                     26                     27
                      A                      A                      A
 Frequencies --    976.5372               993.6075              1036.8811
 Red. masses --      1.9608                 1.6199                 1.1523
 Frc consts  --      1.1017                 0.9423                 0.7299
 IR Inten    --      1.9078                11.8370                 5.7704

                     28                     29                     30
                      A                      A                      A
 Frequencies --   1043.3045              1050.6443              1062.0856
 Red. masses --      1.9690                 1.5585                 1.7676
 Frc consts  --      1.2628                 1.0136                 1.1747
 IR Inten    --     11.9383                 8.3671                 2.7638

                     31                     32                     33
                      A                      A                      A
 Frequencies --   1123.2819              1140.5817              1187.7104
 Red. masses --      1.8597                 3.5339                 1.8526
 Frc consts  --      1.3826                 2.7087                 1.5398
 IR Inten    --     39.2949                75.7226                14.1925

                     34                     35                     36
                      A                      A                      A
 Frequencies --   1213.4215              1225.0682              1246.8583
 Red. masses --      1.9790                 2.2777                 1.4097
 Frc consts  --      1.7168                 2.0141                 1.2912
 IR Inten    --      7.0115                16.7593                 6.6570

                     37                     38                     39
                      A                      A                      A
 Frequencies --   1268.7168              1297.3713              1338.2533
 Red. masses --      1.4615                 1.3233                 1.2859
 Frc consts  --      1.3860                 1.3123                 1.3569
 IR Inten    --      3.3289                 8.9868                 0.9162

                     40                     41                     42
                      A                      A                      A
 Frequencies --   1345.5757              1362.4328              1370.7728
 Red. masses --      1.2203                 1.5260                 1.4319
 Frc consts  --      1.3018                 1.6689                 1.5853
 IR Inten    --      2.9493                 2.1572                 1.8455

                     43                     44                     45
                      A                      A                      A
 Frequencies --   1375.1152              1401.7792              1413.1080
 Red. masses --      1.3302                 1.3715                 1.3634
 Frc consts  --      1.4820                 1.5879                 1.6040
 IR Inten    --      0.4013                 0.3741                 5.0501

                     46                     47                     48
                      A                      A                      A
 Frequencies --   1431.7698              1447.0751              1474.7532
 Red. masses --      1.3030                 1.2950                 1.1776
 Frc consts  --      1.5738                 1.5977                 1.5090
 IR Inten    --      7.8857                 7.0989                 0.6341

                     49                     50                     51
                      A                      A                      A
 Frequencies --   1505.8430              1510.0351              1518.5130
 Red. masses --      1.0963                 1.0904                 1.0808
 Frc consts  --      1.4646                 1.4649                 1.4684
 IR Inten    --      1.8930                 3.2471                 0.7399

                     52                     53                     54
                      A                      A                      A
 Frequencies --   1519.5140              1525.9314              1537.0610
 Red. masses --      1.0989                 1.0691                 1.0910
 Frc consts  --      1.4950                 1.4668                 1.5186
 IR Inten    --      5.8837                 1.6183                 1.5917

                     55                     56                     57
                      A                      A                      A
 Frequencies --   1543.0910              1732.8248              2958.9866
 Red. masses --      1.0582                 4.4477                 1.0720
 Frc consts  --      1.4846                 7.8685                 5.5301
 IR Inten    --     11.6424                 6.3892                30.7890

                     58                     59                     60
                      A                      A                      A
 Frequencies --   2968.6514              3012.6896              3021.5892
 Red. masses --      1.0721                 1.0637                 1.0632
 Frc consts  --      5.5670                 5.6883                 5.7191
 IR Inten    --     91.3899                 5.1131                67.2002

                     61                     62                     63
                      A                      A                      A
 Frequencies --   3049.9974              3052.3951              3062.3963
 Red. masses --      1.0596                 1.0460                 1.0973
 Frc consts  --      5.8077                 5.7422                 6.0631
 IR Inten    --     22.8646                11.9631                 4.4679

                     64                     65                     66
                      A                      A                      A
 Frequencies --   3069.3863              3093.5387              3106.3722
 Red. masses --      1.0950                 1.1015                 1.0913
 Frc consts  --      6.0781                 6.2111                 6.2042
 IR Inten    --     60.3859                54.7003                42.8083

                     67                     68                     69
                      A                      A                      A
 Frequencies --   3109.0614              3118.5268              3143.5832
 Red. masses --      1.0936                 1.0979                 1.1004
 Frc consts  --      6.2281                 6.2911                 6.4071
 IR Inten    --     32.0389                28.7513                19.9580

                     70                     71                     72
                      A                      A                      A
 Frequencies --   3146.6983              3157.4662              3235.5546
 Red. masses --      1.0767                 1.0726                 1.1157
 Frc consts  --      6.2816                 6.3002                 6.8820
 IR Inten    --     25.4524                 6.2845                20.9892

 - Thermochemistry -
 -------------------
 Temperature   298.150 Kelvin.  Pressure   1.00000 Atm.
 Atom     1 has atomic number  6 and mass  12.00000

 Molecular mass:   140.12012 amu.
 Principal axes and moments of inertia in atomic units:
                           1         2         3
     Eigenvalues --   648.881172255.516162424.52279
           X            0.99989   0.01170  -0.00866
           Y           -0.01127   0.99874   0.04881
           Z            0.00922  -0.04870   0.99877
 This molecule is an asymmetric top.
 Rotational symmetry number  1.
 Warning -- assumption of classical behavior for rotation
           may cause significant error
 Rotational temperatures (Kelvin)      0.13348     0.03840     0.03572
 Rotational constants (GHZ):           2.78131     0.80015     0.74437
 Zero-point vibrational energy     622620.6 (Joules/Mol)
                                  148.80990 (Kcal/Mol)
 Warning -- explicit consideration of  15 degrees of freedom as
           vibrations may cause significant error
 Vibrational temperatures:     80.28   128.55   219.20   281.98   301.70
          (Kelvin)            370.11   433.36   468.88   492.29   592.25
                              595.47   639.26   685.48   714.58   830.10
                              989.39  1085.97  1240.33  1275.34  1286.78
                             1306.71  1327.47  1353.97  1382.58  1405.02
                             1429.58  1491.84  1501.08  1511.64  1528.10
                             1616.15  1641.04  1708.85  1745.84  1762.60
                             1793.95  1825.40  1866.63  1925.45  1935.98
                             1960.24  1972.24  1978.48  2016.85  2033.15
                             2060.00  2082.02  2121.84  2166.57  2172.60
                             2184.80  2186.24  2195.47  2211.49  2220.16
                             2493.15  4257.32  4271.23  4334.59  4347.39
                             4388.27  4391.72  4406.11  4416.16  4450.91
                             4469.38  4473.25  4486.86  4522.92  4527.40
                             4542.89  4655.24

 Zero-point correction=                           0.237144 (Hartree/Particle)
 Thermal correction to Energy=                    0.247481
 Thermal correction to Enthalpy=                  0.248425
 Thermal correction to Gibbs Free Energy=         0.201761
 Sum of electronic and zero-point Energies=           -427.594878
 Sum of electronic and thermal Energies=              -427.584541
 Sum of electronic and thermal Enthalpies=            -427.583597
 Sum of electronic and thermal Free Energies=         -427.630261

                     E (Thermal)             CV                S
                      KCal/Mol        Cal/Mol-Kelvin    Cal/Mol-Kelvin
 Total                  155.297             40.286             98.213
 Electronic               0.000              0.000              0.000
 Translational            0.889              2.981             40.724
 Rotational               0.889              2.981             29.652
 Vibrational            153.519             34.324             27.837
 Vibration     1          0.596              1.975              4.600
 Vibration     2          0.602              1.957              3.674
 Vibration     3          0.619              1.900              2.643
 Vibration     4          0.636              1.845              2.170
 Vibration     5          0.642              1.826              2.046
 Vibration     6          0.667              1.751              1.680
 Vibration     7          0.693              1.671              1.410
 Vibration     8          0.710              1.624              1.280
 Vibration     9          0.721              1.591              1.202
 Vibration    10          0.776              1.445              0.921
 Vibration    11          0.777              1.440              0.913
 Vibration    12          0.804              1.373              0.813
 Vibration    13          0.833              1.302              0.720
 Vibration    14          0.852              1.257              0.667
 Vibration    15          0.933              1.081              0.491

 Optimization completed.
    -- Stationary point found.

 1\1\GINC-NODE119\Freq\RB3LYP\6-31G(d)\C9H16O1\VSC10255\08-Dec-2020\0\\
 #N Geom=AllCheck Guess=TCheck SCRF=Check GenChk RB3LYP/6-31G(d) Freq\\
 CID_89318133_JID_938_neutraal\\0,1\C,1.0815255724,0.0806779518,-0.0366
 174743\C,0.3926926679,-1.168659579,-0.6052578046\C,1.411382913,-2.3127
 780174,-0.8158963716\C,1.9300532668,-2.882251137,0.5107342689\C,0.7529
 723561,-3.2376336934,1.4179044488\O,-0.1106020816,-2.1252466923,1.6115
 878413\C,-0.6728766954,-1.6712653042,0.3891394885\C,-0.2654838337,-0.8
 44406325,-1.9724657126\C,-1.3528691245,0.1933183522,-1.9340494166\C,-1

 Normal termination of Gaussian 16 at Tue Dec  8 13:36:06 2020.

 ----------------------------------------------------------------------
 # B3LYP/6-311++G(d,p) empiricaldispersion=gd3bj scf=xqc pop=npa geom=c
 heck
 ----------------------------------------------------------------------

 -------------------------------------
 CID_89318133_JID_938_Energie_neutraal
 -------------------------------------
 Structure from the checkpoint file:  "JID_938.chk"
 Charge =  0 Multiplicity = 1

 SCF Done:  E(RB3LYP) =  -427.953713556     A.U. after   13 cycles
 Normal termination of Gaussian 16 at Tue Dec  8 13:38:49 2020.

 ----------------------------------------------------------------------
 # B3LYP/6-311++G(d,p) empiricaldispersion=gd3bj scf=xqc pop=npa geom=c
 heck
 ----------------------------------------------------------------------

 -----------------------------------
 CID_89318133_JID_938_Energie_kation
 -----------------------------------
 Structure from the checkpoint file:  "JID_938.chk"
 Charge =  1 Multiplicity = 2

 SCF Done:  E(UB3LYP) =  -427.631684178     A.U. after   22 cycles
 Normal termination of Gaussian 16 at Tue Dec  8 13:46:33 2020.
 Gaussian 16:  ES64L-G16RevA.03 25-Dec-2016

 ----------------------------------
 CID_89318133_JID_938_Energie_anion
 ----------------------------------
 Structure from the checkpoint file:  "JID_938.chk"
 Charge = -1 Multiplicity = 2

                         Standard orientation:
 ---------------------------------------------------------------------
 Center     Atomic      Atomic             Coordinates (Angstroms)
 Number     Number       Type             X           Y           Z
 ---------------------------------------------------------------------
      1          6           0       -0.379901    0.495604    1.513856
      2          6           0       -0.138966    0.271258    0.013754
      3          6           0        0.921651    1.257344   -0.528306
      4          6           0        2.326291    0.955215    0.009256
      5          6           0        2.658839   -0.520054   -0.209301
      6          8           0        1.670937   -1.367548    0.362085
      7          6           0        0.391993   -1.157425   -0.218245
      8          6           0       -1.454734    0.485964   -0.780128
      9          6           0       -2.574218   -0.458126   -0.439240
     10          6           0       -3.708530   -0.107562    0.167611
     11          1           0        0.509690    0.244042    2.096834
     12          1           0       -1.204853   -0.129283    1.870327
     13          1           0       -0.641683    1.541788    1.713953
     14          1           0        0.941710    1.180704   -1.625554
     15          1           0        0.627366    2.287751   -0.290962
     16          1           0        2.384391    1.181225    1.080180
     17          1           0        3.072982    1.582560   -0.493978
     18          1           0        3.605321   -0.795885    0.265038
     19          1           0        2.744763   -0.727622   -1.291205
     20          1           0       -0.266210   -1.899488    0.242591
     21          1           0        0.435966   -1.363004   -1.303581
     22          1           0       -1.788069    1.519419   -0.617416
     23          1           0       -1.224296    0.395012   -1.852280
     24          1           0       -2.430225   -1.502438   -0.718088
     25          1           0       -4.488673   -0.830326    0.390600
     26          1           0       -3.900230    0.922618    0.461307
 ---------------------------------------------------------------------

 SCF Done:  E(UB3LYP) =  -427.935698071     A.U. after   32 cycles

 The electronic state is 2-A.
 Alpha  occ. eigenvalues --  -19.01764 -10.10660 -10.10635 -10.07822 -10.07441
 Alpha  occ. eigenvalues --  -10.06673 -10.06255 -10.05834 -10.05793 -10.04786
 Alpha  occ. eigenvalues --   -0.93239  -0.72862  -0.68030  -0.66093  -0.58694
 Alpha  occ. eigenvalues --   -0.58148  -0.54110  -0.50296  -0.45503  -0.43242
 Alpha  occ. eigenvalues --   -0.38935  -0.37519  -0.36201  -0.35303  -0.35059
 Alpha  occ. eigenvalues --   -0.32509  -0.30975  -0.30304  -0.28302  -0.26875
 Alpha  occ. eigenvalues --   -0.26242  -0.25862  -0.25034  -0.23627  -0.22557
 Alpha  occ. eigenvalues --   -0.20756  -0.19657  -0.16201  -0.14808   0.04854
 Alpha virt. eigenvalues --    0.06900   0.07846   0.08184   0.08960   0.09396
 Alpha virt. eigenvalues --    0.09587   0.10545   0.10575   0.11259   0.11591
 Alpha virt. eigenvalues --    0.12573   0.13439   0.13889   0.14502   0.14958

  Beta  occ. eigenvalues --  -19.01758 -10.10637 -10.10614 -10.07824 -10.07427
  Beta  occ. eigenvalues --  -10.06655 -10.06223 -10.05809 -10.05768 -10.04764
  Beta  occ. eigenvalues --   -0.93226  -0.72835  -0.67988  -0.66055  -0.58650
  Beta  occ. eigenvalues --   -0.58102  -0.54052  -0.50234  -0.45428  -0.43182
  Beta  occ. eigenvalues --   -0.38892  -0.37475  -0.36162  -0.35269  -0.35019
  Beta  occ. eigenvalues --   -0.32464  -0.30929  -0.30264  -0.28270  -0.26837
  Beta  occ. eigenvalues --   -0.26211  -0.25827  -0.24985  -0.23594  -0.22518
  Beta  occ. eigenvalues --   -0.20723  -0.19616  -0.16140  -0.14771
  Beta virt. eigenvalues --    0.07156   0.07943   0.08618   0.08792   0.09501
  Beta virt. eigenvalues --    0.09898   0.10127   0.10986   0.11158   0.11736
  Beta virt. eigenvalues --    0.12233   0.12886   0.13865   0.14434   0.14764

 Mulliken charges and spin densities:
               1          2
     1  C    1.046134  -1.741856
     2  C   -0.917821   1.581503
     3  C    0.472019  -0.682813
     4  C    0.049722  -0.429669
     5  C    1.095907  -1.361575
     6  O   -0.131231   0.043729
     7  C   -0.003928  -0.754270
     8  C    1.348072  -1.801962
     9  C   -1.414419   1.717115
    10  C    0.458770  -1.034112
    11  H    0.117175   0.044757
    12  H    0.236778  -0.076459
    13  H   -0.269967   0.418911
    14  H   -0.223859   0.390559
    15  H   -0.361644   0.517210
    16  H    0.087556   0.052980
    17  H   -0.761249   0.932984
    18  H   -0.319624   0.502809
    19  H   -0.089274   0.201824
    20  H    0.097240   0.093293
    21  H   -0.145622   0.306228
    22  H   -0.153403   0.307232
    23  H   -0.110438   0.259923
    24  H   -0.554268   0.719718
    25  H   -0.287976   0.410406
    26  H   -0.264650   0.381535
 Sum of Mulliken charges =  -1.00000   1.00000

 Dipole moment (field-independent basis, Debye):
    X=             -0.5163    Y=             -1.8127    Z=              1.9434  Tot=              2.7073
 Quadrupole moment (field-independent basis, Debye-Ang):
   XX=           -132.2771   YY=           -104.5633   ZZ=            -97.3632
   XY=             -5.0771   XZ=              3.0570   YZ=              1.2099

 Summary of Natural Population Analysis:

                                       Natural Population
                Natural  -----------------------------------------------
    Atom  No    Charge         Core      Valence    Rydberg      Total
 -----------------------------------------------------------------------
      C    1   -0.29087      0.99962     2.28341    0.00785     3.29087
      C    2   -0.05180      0.99956     2.03893    0.01331     3.05180
      C    3   -0.18931      0.99959     2.17792    0.01180     3.18931
      C    4   -0.20367      0.99963     2.19501    0.00903     3.20367
      C    5   -0.00766      0.99958     1.99486    0.01323     3.00766
      O    6   -0.30199      0.99989     3.29286    0.00924     4.30199
      C    7   -0.00791      0.99950     1.99440    0.01401     3.00791
      C    8   -0.20804      0.99957     2.19636    0.01212     3.20804
      C    9   -0.08233      0.99956     2.07088    0.01189     3.08233
      C   10   -0.18829      0.99955     2.18229    0.00645     3.18829
      H   11    0.10416      0.00000     0.39459    0.00125     0.39584
      H   12    0.10320      0.00000     0.39580    0.00101     0.39680
      H   13    0.09969      0.00000     0.39922    0.00109     0.40031
      H   14    0.09891      0.00000     0.39886    0.00224     0.40109
      H   15    0.10312      0.00000     0.39512    0.00176     0.39688
      H   16    0.09577      0.00000     0.40293    0.00130     0.40423
      H   17    0.10388      0.00000     0.39380    0.00232     0.39612
      H   18    0.09013      0.00000     0.40849    0.00137     0.40987
      H   19    0.07673      0.00000     0.42163    0.00164     0.42327
      H   20    0.09234      0.00000     0.40601    0.00165     0.40766
      H   21    0.08049      0.00000     0.41774    0.00177     0.41951
      H   22    0.10214      0.00000     0.39585    0.00201     0.39786
      H   23    0.10599      0.00000     0.39228    0.00173     0.39401
      H   24    0.09225      0.00000     0.40643    0.00132     0.40775
      H   25    0.09296      0.00000     0.40573    0.00131     0.40704
      H   26    0.09012      0.00000     0.40842    0.00146     0.40988
 =======================================================================
   * Total *    0.00000      9.99604    28.86982    0.13414    39.00000

 Normal termination of Gaussian 16 at Tue Dec  8 13:56:09 2020.
