 Gaussian 16, Revision A.03,

 -----------------------------------------------------------
 # opt freq B3LYP/6-31G(d) empiricaldispersion=gd3bj scf=xqc
 -----------------------------------------------------------

 -------------------------------
 CID_72006515_JID_10937_neutraal
 -------------------------------
 Symbolic Z-matrix:
 Charge =  0 Multiplicity = 1

 SCF Done:  E(RB3LYP) =  -936.121470059     A.U. after   15 cycles
 SCF Done:  E(RB3LYP) =  -936.135208559     A.U. after   13 cycles
 SCF Done:  E(RB3LYP) =  -936.137841433     A.U. after   12 cycles
 SCF Done:  E(RB3LYP) =  -936.139374268     A.U. after   13 cycles
 SCF Done:  E(RB3LYP) =  -936.140716210     A.U. after   12 cycles
 SCF Done:  E(RB3LYP) =  -936.142904375     A.U. after   13 cycles
 SCF Done:  E(RB3LYP) =  -936.135162074     A.U. after   13 cycles
 SCF Done:  E(RB3LYP) =  -936.138723773     A.U. after   13 cycles
 SCF Done:  E(RB3LYP) =  -936.143985977     A.U. after   11 cycles
 SCF Done:  E(RB3LYP) =  -936.144546190     A.U. after   11 cycles
 SCF Done:  E(RB3LYP) =  -936.147411099     A.U. after    7 cycles
 SCF Done:  E(RB3LYP) =  -936.147411648     A.U. after    8 cycles
 SCF Done:  E(RB3LYP) =  -936.147412374     A.U. after    8 cycles
 SCF Done:  E(RB3LYP) =  -936.147412695     A.U. after    8 cycles
 SCF Done:  E(RB3LYP) =  -936.147412760     A.U. after    7 cycles
 Optimization completed.
    -- Stationary point found.
 Normal termination of Gaussian 16 at Sat Dec 12 17:02:37 2020.

 --------------------------------------------------------------------
 #N Geom=AllCheck Guess=TCheck SCRF=Check GenChk RB3LYP/6-31G(d) Freq
 --------------------------------------------------------------------

 Structure from the checkpoint file:  "JID_10937.chk"
 -------------------------------
 CID_72006515_JID_10937_neutraal
 -------------------------------
 Charge =  0 Multiplicity = 1

 SCF Done:  E(RB3LYP) =  -936.147412760     A.U. after    1 cycles

  Exact polarizability: 211.589   5.159 149.696  -0.967   3.343 144.876
 Approx polarizability: 282.571   4.779 209.820   2.276  15.633 244.007

                      1                      2                      3
                      A                      A                      A
 Frequencies --     17.0139                27.4270                50.0420
 Red. masses --      4.0293                 6.5983                 4.4446
 Frc consts  --      0.0007                 0.0029                 0.0066
 IR Inten    --      0.0689                 0.5014                 1.2180

                      4                      5                      6
                      A                      A                      A
 Frequencies --     60.8880                87.9349                89.6206
 Red. masses --      4.1981                 3.3418                 4.3977
 Frc consts  --      0.0092                 0.0152                 0.0208
 IR Inten    --      0.3647                 0.7134                 3.1413

                      7                      8                      9
                      A                      A                      A
 Frequencies --     99.6697               110.6876               135.8910
 Red. masses --      6.1579                 5.6783                 1.1547
 Frc consts  --      0.0360                 0.0410                 0.0126
 IR Inten    --      4.1511                 2.4912                 0.0028

                     10                     11                     12
                      A                      A                      A
 Frequencies --    150.4080               162.1522               213.4964
 Red. masses --      4.2811                 4.7239                 3.0675
 Frc consts  --      0.0571                 0.0732                 0.0824
 IR Inten    --      0.2937                 0.0206                11.0126

                     13                     14                     15
                      A                      A                      A
 Frequencies --    224.3403               249.3985               261.6029
 Red. masses --      3.3976                 2.6058                 3.7706
 Frc consts  --      0.1007                 0.0955                 0.1520
 IR Inten    --      0.7806                 1.0880                 4.9117

                     16                     17                     18
                      A                      A                      A
 Frequencies --    292.9484               306.2115               339.3123
 Red. masses --      3.3963                 3.9530                 3.7303
 Frc consts  --      0.1717                 0.2184                 0.2530
 IR Inten    --      0.2749                 3.7770                 3.3028

                     19                     20                     21
                      A                      A                      A
 Frequencies --    350.6143               374.9268               400.4969
 Red. masses --      2.2204                 3.3873                 2.8901
 Frc consts  --      0.1608                 0.2805                 0.2731
 IR Inten    --      1.0364                 3.4492                 7.3951

                     22                     23                     24
                      A                      A                      A
 Frequencies --    432.5534               439.2162               486.7927
 Red. masses --      3.1287                 6.5984                 2.1476
 Frc consts  --      0.3449                 0.7500                 0.2998
 IR Inten    --      6.6058                 4.9529                 0.7344

                     25                     26                     27
                      A                      A                      A
 Frequencies --    508.8050               512.9187               547.0049
 Red. masses --      1.6471                 2.1612                 1.6115
 Frc consts  --      0.2512                 0.3350                 0.2841
 IR Inten    --      2.7112                 7.7601                47.2188

                     28                     29                     30
                      A                      A                      A
 Frequencies --    554.3532               586.6747               619.3158
 Red. masses --      1.7408                 1.3269                 2.8747
 Frc consts  --      0.3152                 0.2691                 0.6496
 IR Inten    --     52.2701                54.0242                41.4264

                     31                     32                     33
                      A                      A                      A
 Frequencies --    632.9241               667.2423               670.9982
 Red. masses --      3.7473                 5.5653                 4.3074
 Frc consts  --      0.8844                 1.4598                 1.1426
 IR Inten    --      0.2613                 1.7027                 1.6757

                     34                     35                     36
                      A                      A                      A
 Frequencies --    695.9049               725.5808               750.3720
 Red. masses --      4.5211                 1.5871                 2.5884
 Frc consts  --      1.2900                 0.4923                 0.8587
 IR Inten    --     16.5619                33.2755                 5.4476

                     37                     38                     39
                      A                      A                      A
 Frequencies --    770.7183               777.6184               813.8808
 Red. masses --      3.2201                 3.2279                 1.1982
 Frc consts  --      1.1270                 1.1500                 0.4676
 IR Inten    --     95.3346                 7.3647                33.5757

                     40                     41                     42
                      A                      A                      A
 Frequencies --    835.8280               842.4112               856.6220
 Red. masses --      2.8539                 2.8612                 2.7150
 Frc consts  --      1.1747                 1.1963                 1.1738
 IR Inten    --      9.4245                 1.0637                 6.0688

                     43                     44                     45
                      A                      A                      A
 Frequencies --    862.7318               875.3102               913.6009
 Red. masses --      1.3348                 1.5767                 2.3389
 Frc consts  --      0.5854                 0.7117                 1.1502
 IR Inten    --      4.2600                 0.7280                 2.6940

                     46                     47                     48
                      A                      A                      A
 Frequencies --    975.2873               983.2928               985.7129
 Red. masses --      2.4806                 3.2928                 2.3567
 Frc consts  --      1.3902                 1.8758                 1.3491
 IR Inten    --      8.4743                10.6886                 6.3630

                     49                     50                     51
                      A                      A                      A
 Frequencies --    997.0512              1003.5950              1007.5321
 Red. masses --      2.2111                 2.1747                 2.8449
 Frc consts  --      1.2951                 1.2905                 1.7015
 IR Inten    --      6.2690                 4.9046                 9.7496

                     52                     53                     54
                      A                      A                      A
 Frequencies --   1020.1589              1028.1502              1048.2045
 Red. masses --      2.3401                 1.8597                 1.6409
 Frc consts  --      1.4349                 1.1582                 1.0623
 IR Inten    --      0.7601                 5.8731                24.3253

                     55                     56                     57
                      A                      A                      A
 Frequencies --   1070.1664              1081.2763              1115.4067
 Red. masses --      2.1880                 1.4595                 2.1019
 Frc consts  --      1.4764                 1.0053                 1.5407
 IR Inten    --      5.4372                 2.3394                16.6540

                     58                     59                     60
                      A                      A                      A
 Frequencies --   1126.7065              1136.3470              1154.1134
 Red. masses --      1.6861                 2.3835                 1.5742
 Frc consts  --      1.2611                 1.8134                 1.2354
 IR Inten    --     51.0215                 3.3603                30.8736

                     61                     62                     63
                      A                      A                      A
 Frequencies --   1197.0072              1211.1955              1224.5726
 Red. masses --      2.3659                 2.7115                 1.6211
 Frc consts  --      1.9973                 2.3436                 1.4323
 IR Inten    --     89.4058                38.8098                28.0979

                     64                     65                     66
                      A                      A                      A
 Frequencies --   1233.8213              1254.8178              1256.7349
 Red. masses --      1.4863                 1.8364                 2.3362
 Frc consts  --      1.3331                 1.7037                 2.1739
 IR Inten    --      1.2566                 3.8470                25.2340

                     67                     68                     69
                      A                      A                      A
 Frequencies --   1291.9927              1293.8555              1314.9798
 Red. masses --      1.9758                 1.5460                 1.2596
 Frc consts  --      1.9432                 1.5249                 1.2832
 IR Inten    --    143.7841                17.8190                34.6154

                     70                     71                     72
                      A                      A                      A
 Frequencies --   1351.0188              1359.9929              1381.3939
 Red. masses --      1.5679                 1.5469                 1.5455
 Frc consts  --      1.6861                 1.6857                 1.7377
 IR Inten    --      3.6840                36.6432                56.5711

                     73                     74                     75
                      A                      A                      A
 Frequencies --   1384.3492              1396.3502              1409.0484
 Red. masses --      1.3892                 1.4383                 1.5715
 Frc consts  --      1.5686                 1.6523                 1.8383
 IR Inten    --      1.0704                23.9155                56.2830

                     76                     77                     78
                      A                      A                      A
 Frequencies --   1412.6565              1414.7355              1416.0318
 Red. masses --      1.6196                 1.5627                 2.8405
 Frc consts  --      1.9042                 1.8428                 3.3558
 IR Inten    --      3.1321                48.9205               109.5361

                     79                     80                     81
                      A                      A                      A
 Frequencies --   1423.7879              1426.8919              1440.4692
 Red. masses --      1.6088                 1.3412                 1.3518
 Frc consts  --      1.9215                 1.6089                 1.6526
 IR Inten    --     56.4014                 5.4469                17.4380

                     82                     83                     84
                      A                      A                      A
 Frequencies --   1446.8738              1454.2052              1502.6443
 Red. masses --      1.3240                 1.7033                 1.0426
 Frc consts  --      1.6331                 2.1222                 1.3870
 IR Inten    --      3.2104                37.6553                 6.8857

                     85                     86                     87
                      A                      A                      A
 Frequencies --   1508.5163              1512.5243              1514.8831
 Red. masses --      1.0873                 1.0876                 1.0856
 Frc consts  --      1.4578                 1.4660                 1.4679
 IR Inten    --      1.6525                 5.8974                 1.2530

                     88                     89                     90
                      A                      A                      A
 Frequencies --   1520.9613              1522.6780              1528.5370
 Red. masses --      1.1050                 1.0903                 1.1025
 Frc consts  --      1.5061                 1.4894                 1.5177
 IR Inten    --      6.5411                19.1837                 7.4449

                     91                     92                     93
                      A                      A                      A
 Frequencies --   1538.1587              1611.0483              1655.2540
 Red. masses --      1.0886                 7.3228                 1.2096
 Frc consts  --      1.5174                11.1982                 1.9527
 IR Inten    --     12.0718                17.0853                79.3765

                     94                     95                     96
                      A                      A                      A
 Frequencies --   1664.4185              1782.3587              1825.4035
 Red. masses --      5.9029                 8.5406                 6.8370
 Frc consts  --      9.6347                15.9857                13.4224
 IR Inten    --      7.4682               236.1052               498.9925

                     97                     98                     99
                      A                      A                      A
 Frequencies --   2948.3023              3012.2064              3030.3492
 Red. masses --      1.0804                 1.0681                 1.0677
 Frc consts  --      5.5333                 5.7097                 5.7768
 IR Inten    --     24.1502                24.1809                19.3809

                    100                    101                    102
                      A                      A                      A
 Frequencies --   3032.4432              3037.4481              3047.2921
 Red. masses --      1.0619                 1.0701                 1.0380
 Frc consts  --      5.7535                 5.8171                 5.6791
 IR Inten    --     13.0115                75.5072                29.1430

                    103                    104                    105
                      A                      A                      A
 Frequencies --   3054.9643              3066.6746              3075.4638
 Red. masses --      1.0673                 1.0931                 1.0971
 Frc consts  --      5.8689                 6.0570                 6.1140
 IR Inten    --     15.3067                60.5700                60.1283

                    106                    107                    108
                      A                      A                      A
 Frequencies --   3083.8737              3094.2183              3096.9350
 Red. masses --      1.0886                 1.0738                 1.0990
 Frc consts  --      6.0996                 6.0574                 6.2100
 IR Inten    --     19.8172                50.3701                15.9147

                    109                    110                    111
                      A                      A                      A
 Frequencies --   3098.0963              3116.6320              3137.4432
 Red. masses --      1.1016                 1.0950                 1.0996
 Frc consts  --      6.2294                 6.2664                 6.3775
 IR Inten    --     14.3212                 9.1956                15.0666

                    112                    113                    114
                      A                      A                      A
 Frequencies --   3143.9369              3265.1615              3285.1594
 Red. masses --      1.0997                 1.0947                 1.0987
 Frc consts  --      6.4044                 6.8762                 6.9863
 IR Inten    --     10.3604                 7.0836                 0.3552

                    115                    116                    117
                      A                      A                      A
 Frequencies --   3548.9559              3577.7316              3675.4454
 Red. masses --      1.0514                 1.0754                 1.0987
 Frc consts  --      7.8024                 8.1105                 8.7447
 IR Inten    --    197.0123                41.6681                93.5067

 - Thermochemistry -
 -------------------
 Temperature   298.150 Kelvin.  Pressure   1.00000 Atm.
 Atom     1 has atomic number  6 and mass  12.00000

 Molecular mass:   279.15829 amu.
 Principal axes and moments of inertia in atomic units:
                           1         2         3
     Eigenvalues --  4332.265546184.511648869.13117
           X            0.99974   0.02291  -0.00056
           Y           -0.02291   0.99957  -0.01815
           Z            0.00015   0.01816   0.99984
 This molecule is an asymmetric top.
 Rotational symmetry number  1.
 Warning -- assumption of classical behavior for rotation
           may cause significant error
 Rotational temperatures (Kelvin)      0.01999     0.01400     0.00977
 Rotational constants (GHZ):           0.41658     0.29182     0.20349
 Zero-point vibrational energy     922502.4 (Joules/Mol)
                                  220.48338 (Kcal/Mol)
 Warning -- explicit consideration of  30 degrees of freedom as
           vibrations may cause significant error
 Vibrational temperatures:     24.48    39.46    72.00    87.60   126.52
          (Kelvin)            128.94   143.40   159.25   195.52   216.40
                              233.30   307.17   322.78   358.83   376.39
                              421.49   440.57   488.19   504.46   539.44
                              576.23   622.35   631.93   700.39   732.06
                              737.98   787.02   797.59   844.09   891.06
                              910.64   960.01   965.42  1001.25  1043.95
                             1079.62  1108.89  1118.82  1170.99  1202.57
                             1212.04  1232.49  1241.28  1259.38  1314.47
                             1403.22  1414.74  1418.22  1434.53  1443.95
                             1449.61  1467.78  1479.28  1508.13  1539.73
                             1555.72  1604.82  1621.08  1634.95  1660.51
                             1722.23  1742.64  1761.89  1775.19  1805.40
                             1808.16  1858.89  1861.57  1891.96  1943.81
                             1956.73  1987.52  1991.77  2009.04  2027.31
                             2032.50  2035.49  2037.35  2048.51  2052.98
                             2072.51  2081.73  2092.28  2161.97  2170.42
                             2176.19  2179.58  2188.32  2190.79  2199.22
                             2213.07  2317.94  2381.54  2394.73  2564.42
                             2626.35  4241.95  4333.89  4360.00  4363.01
                             4370.21  4384.37  4395.41  4412.26  4424.91
                             4437.01  4451.89  4455.80  4457.47  4484.14
                             4514.08  4523.42  4697.84  4726.61  5106.16
                             5147.56  5288.15

 Zero-point correction=                           0.351363 (Hartree/Particle)
 Thermal correction to Energy=                    0.370745
 Thermal correction to Enthalpy=                  0.371689
 Thermal correction to Gibbs Free Energy=         0.302071
 Sum of electronic and zero-point Energies=           -935.796050
 Sum of electronic and thermal Energies=              -935.776668
 Sum of electronic and thermal Enthalpies=            -935.775724
 Sum of electronic and thermal Free Energies=         -935.845342

                     E (Thermal)             CV                S
                      KCal/Mol        Cal/Mol-Kelvin    Cal/Mol-Kelvin
 Total                  232.646             74.025            146.524
 Electronic               0.000              0.000              0.000
 Translational            0.889              2.981             42.778
 Rotational               0.889              2.981             33.829
 Vibrational            230.869             68.063             69.916
 Vibration     1          0.593              1.986              6.955
 Vibration     2          0.593              1.984              6.007
 Vibration     3          0.595              1.978              4.816
 Vibration     4          0.597              1.973              4.428
 Vibration     5          0.601              1.958              3.705
 Vibration     6          0.602              1.957              3.668
 Vibration     7          0.604              1.949              3.461
 Vibration     8          0.607              1.941              3.257
 Vibration     9          0.614              1.917              2.861
 Vibration    10          0.618              1.902              2.667
 Vibration    11          0.622              1.889              2.525
 Vibration    12          0.644              1.820              2.014
 Vibration    13          0.649              1.804              1.924
 Vibration    14          0.662              1.764              1.735
 Vibration    15          0.669              1.743              1.651
 Vibration    16          0.688              1.687              1.457
 Vibration    17          0.697              1.662              1.383
 Vibration    18          0.719              1.597              1.215
 Vibration    19          0.728              1.574              1.163
 Vibration    20          0.746              1.524              1.060
 Vibration    21          0.766              1.469              0.961
 Vibration    22          0.793              1.399              0.850
 Vibration    23          0.799              1.385              0.829
 Vibration    24          0.843              1.279              0.692
 Vibration    25          0.864              1.230              0.636
 Vibration    26          0.868              1.221              0.627
 Vibration    27          0.902              1.146              0.550
 Vibration    28          0.910              1.130              0.535
 Vibration    29          0.944              1.060              0.473
 Vibration    30          0.979              0.991              0.418

 Optimization completed.
    -- Stationary point found.
 Normal termination of Gaussian 16 at Sat Dec 12 17:25:28 2020.

 ----------------------------------------------------------------------
 # B3LYP/6-311++G(d,p) empiricaldispersion=gd3bj scf=xqc pop=npa geom=c
 heck
 ----------------------------------------------------------------------

 ---------------------------------------
 CID_72006515_JID_10937_Energie_neutraal
 ---------------------------------------
 Structure from the checkpoint file:  "JID_10937.chk"
 Charge =  0 Multiplicity = 1

 SCF Done:  E(RB3LYP) =  -936.418865905     A.U. after   15 cycles
 Normal termination of Gaussian 16 at Sat Dec 12 17:34:13 2020.

 ----------------------------------------------------------------------
 # B3LYP/6-311++G(d,p) empiricaldispersion=gd3bj scf=xqc pop=npa geom=c
 heck
 ----------------------------------------------------------------------

 -------------------------------------
 CID_72006515_JID_10937_Energie_kation
 -------------------------------------
 Structure from the checkpoint file:  "JID_10937.chk"
 Charge =  1 Multiplicity = 2

 SCF Done:  E(UB3LYP) =  -936.138439276     A.U. after   23 cycles
 Normal termination of Gaussian 16 at Sat Dec 12 17:52:13 2020.
 Gaussian 16:  ES64L-G16RevA.03 25-Dec-2016

 ----------------------------------------------------------------------
 # B3LYP/6-311++G(d,p) empiricaldispersion=gd3bj scf=xqc pop=npa geom=c
 heck
 ----------------------------------------------------------------------

 ------------------------------------
 CID_72006515_JID_10937_Energie_anion
 ------------------------------------
 Structure from the checkpoint file:  "JID_10937.chk"
 Charge = -1 Multiplicity = 2

                         Standard orientation:
 ---------------------------------------------------------------------
 Center     Atomic      Atomic             Coordinates (Angstroms)
 Number     Number       Type             X           Y           Z
 ---------------------------------------------------------------------
      1          6           0        3.702211    2.539640   -1.075372
      2          6           0        2.623487    2.117901   -0.143288
      3          6           0        2.505592    2.078447    1.215009
      4          6           0        1.200727    1.547497    1.503920
      5          6           0        0.607045    1.295770    0.301818
      6          8           0        1.469470    1.638521   -0.713562
      7          6           0       -0.733589    0.752622   -0.107920
      8          6           0       -1.653374    1.882804   -0.611013
      9          6           0       -2.859706    1.395257   -1.430690
     10          6           0       -4.052405    0.897411   -0.608151
     11          6           0       -3.743764   -0.277499    0.324114
     12          6           0       -2.674864    0.055228    1.379321
     13          7           0       -1.268468   -0.047935    0.991984
     14          6           0       -0.626096   -1.342136    1.141609
     15          6           0       -0.510170   -2.142660   -0.165258
     16          8           0       -1.495444   -2.402135   -0.839419
     17          7           0        0.723609   -2.629142   -0.583017
     18          6           0        2.083135   -2.516274   -0.200315
     19          8           0        2.877193   -3.339440   -0.624466
     20          7           0        2.434741   -1.486153    0.628427
     21          1           0        4.027990    1.709636   -1.714227
     22          1           0        3.368013    3.349735   -1.734724
     23          1           0        4.565344    2.895188   -0.506440
     24          1           0        3.257166    2.388952    1.927535
     25          1           0        0.754899    1.365751    2.470708
     26          1           0       -0.557269    0.120016   -0.996264
     27          1           0       -1.025181    2.512212   -1.250994
     28          1           0       -1.967144    2.516648    0.227449
     29          1           0       -3.198874    2.220259   -2.069983
     30          1           0       -2.523246    0.597666   -2.107550
     31          1           0       -4.438908    1.733868   -0.005945
     32          1           0       -4.860442    0.615040   -1.295114
     33          1           0       -4.667593   -0.553803    0.850931
     34          1           0       -3.417956   -1.154390   -0.244547
     35          1           0       -2.854674    1.067393    1.765939
     36          1           0       -2.793282   -0.611539    2.239658
     37          1           0        0.345678   -1.248646    1.629853
     38          1           0       -1.241690   -1.964198    1.798211
     39          1           0        0.629701   -3.287162   -1.350226
     40          1           0        1.913890   -0.617295    0.643943
     41          1           0        3.435282   -1.392340    0.736904
 ---------------------------------------------------------------------

 SCF Done:  E(UB3LYP) =  -936.411829649     A.U. after   33 cycles
 SCF Done:  E(UB3LYP) =  -936.411829649     a.u. after    1 cycles

 The electronic state is 2-A.
 Alpha  occ. eigenvalues --  -19.09347 -18.99645 -18.99450 -14.25470 -14.23566
 Alpha  occ. eigenvalues --  -14.21513 -10.20971 -10.17404 -10.13695 -10.13043
 Alpha  occ. eigenvalues --  -10.12367 -10.10914 -10.10306 -10.08479 -10.08320
 Alpha  occ. eigenvalues --  -10.08166 -10.07984 -10.07848 -10.07641 -10.06645
 Alpha  occ. eigenvalues --   -1.01769  -0.96614  -0.94544  -0.83923  -0.83020
 Alpha  occ. eigenvalues --   -0.80158  -0.72109  -0.71059  -0.70854  -0.67399
 Alpha  occ. eigenvalues --   -0.64423  -0.60904  -0.58002  -0.56550  -0.55105
 Alpha  occ. eigenvalues --   -0.51282  -0.50184  -0.48476  -0.47207  -0.45997
 Alpha  occ. eigenvalues --   -0.45178  -0.42647  -0.40563  -0.39996  -0.39726
 Alpha  occ. eigenvalues --   -0.37943  -0.37236  -0.36666  -0.35109  -0.35075
 Alpha  occ. eigenvalues --   -0.34037  -0.33545  -0.33334  -0.32891  -0.31971
 Alpha  occ. eigenvalues --   -0.31530  -0.31210  -0.30672  -0.29791  -0.29049
 Alpha  occ. eigenvalues --   -0.28657  -0.28555  -0.27740  -0.26325  -0.25116
 Alpha  occ. eigenvalues --   -0.24054  -0.23889  -0.22946  -0.20119  -0.19177
 Alpha  occ. eigenvalues --   -0.18736  -0.18233  -0.16528  -0.13174  -0.11723
 Alpha  occ. eigenvalues --    0.03959
 Alpha virt. eigenvalues --    0.05618   0.05989   0.06814   0.07671   0.07969
 Alpha virt. eigenvalues --    0.08167   0.08572   0.09246   0.09578   0.09919
 Alpha virt. eigenvalues --    0.10100   0.10490   0.11284   0.11771   0.12090

  Beta  occ. eigenvalues --  -19.09334 -18.99518 -18.99386 -14.25497 -14.23542
  Beta  occ. eigenvalues --  -14.21497 -10.20886 -10.17195 -10.13694 -10.13041
  Beta  occ. eigenvalues --  -10.12360 -10.10921 -10.10286 -10.08472 -10.08275
  Beta  occ. eigenvalues --  -10.08165 -10.07981 -10.07839 -10.07622 -10.06642
  Beta  occ. eigenvalues --   -1.01747  -0.96464  -0.94303  -0.83885  -0.82941
  Beta  occ. eigenvalues --   -0.80112  -0.72090  -0.71038  -0.70832  -0.67368
  Beta  occ. eigenvalues --   -0.64318  -0.60853  -0.57887  -0.56494  -0.54947
  Beta  occ. eigenvalues --   -0.51249  -0.50057  -0.48457  -0.47154  -0.45962
  Beta  occ. eigenvalues --   -0.45120  -0.42573  -0.40521  -0.39944  -0.39579
  Beta  occ. eigenvalues --   -0.37856  -0.37180  -0.36560  -0.35037  -0.34852
  Beta  occ. eigenvalues --   -0.33928  -0.33461  -0.33205  -0.32825  -0.31926
  Beta  occ. eigenvalues --   -0.31482  -0.31159  -0.30513  -0.29752  -0.28872
  Beta  occ. eigenvalues --   -0.28623  -0.28389  -0.27668  -0.26150  -0.25083
  Beta  occ. eigenvalues --   -0.24040  -0.23871  -0.22928  -0.20026  -0.19116
  Beta  occ. eigenvalues --   -0.18578  -0.17943  -0.16447  -0.13136  -0.11672
  Beta virt. eigenvalues --    0.05875   0.06591   0.06980   0.07507   0.07872
  Beta virt. eigenvalues --    0.08268   0.08553   0.08841   0.09430   0.09830
  Beta virt. eigenvalues --    0.10186   0.10357   0.10548   0.11294   0.11943

 Mulliken charges and spin densities:
               1          2
     1  C    2.476416  -3.049988
     2  C   -1.070840   1.303802
     3  C   -0.271236   0.110010
     4  C   -0.367415   0.254809
     5  C   -0.245515  -0.501941
     6  O    0.119865   0.029083
     7  C   -0.120700  -0.190077
     8  C   -0.052666  -0.228913
     9  C   -0.359588   0.177877
    10  C   -0.183430  -0.327582
    11  C   -0.319009   0.038098
    12  C    0.207362  -0.362244
    13  N    0.485787  -0.035795
    14  C   -0.343590  -0.106005
    15  C    0.098958  -0.067231
    16  O   -0.319036   0.054271
    17  N   -0.261487  -0.035208
    18  C    0.087978   0.147915
    19  O   -0.353472   0.021740
    20  N   -0.481959   0.039090
    21  H   -0.108258   0.271797
    22  H   -0.203856   0.355182
    23  H   -0.522631   0.699527
    24  H   -0.922907   1.109840
    25  H   -0.223697   0.391023
    26  H    0.208891   0.022855
    27  H    0.104436   0.102468
    28  H    0.133406   0.019083
    29  H    0.107070   0.064109
    30  H    0.152417  -0.016787
    31  H    0.113391   0.009234
    32  H    0.068930   0.074592
    33  H    0.034586   0.112227
    34  H    0.224835  -0.009877
    35  H    0.070024   0.073990
    36  H   -0.148176   0.323825
    37  H    0.040698   0.141988
    38  H   -0.147172   0.334638
    39  H    0.295024   0.033992
    40  H    0.866249  -0.575894
    41  H    0.130317   0.190477
 Sum of Mulliken charges =  -1.00000   1.00000

 Dipole moment (field-independent basis, Debye):
    X=             -6.8906    Y=              0.2334    Z=             -0.6583  Tot=              6.9259
 Quadrupole moment (field-independent basis, Debye-Ang):
   XX=           -201.4280   YY=           -182.7762   ZZ=           -153.1737
   XY=            -15.8694   XZ=              1.9828   YZ=             -4.8119

 Summary of Natural Population Analysis:

                                       Natural Population
                Natural  -----------------------------------------------
    Atom  No    Charge         Core      Valence    Rydberg      Total
 -----------------------------------------------------------------------
      C    1   -0.30662      0.99963     2.30087    0.00612     3.30662
      C    2    0.15307      0.99947     1.83247    0.01499     2.84693
      C    3   -0.15391      0.99949     2.14424    0.01019     3.15391
      C    4   -0.15110      0.99947     2.14215    0.00948     3.15110
      C    5    0.13982      0.99943     1.84255    0.01820     2.86018
      O    6   -0.24524      0.99985     3.23745    0.00795     4.24524
      C    7   -0.02346      0.99951     2.01074    0.01320     3.02346
      C    8   -0.18997      0.99961     2.18194    0.00842     3.18997
      C    9   -0.19110      0.99962     2.18375    0.00772     3.19110
      C   10   -0.18544      0.99963     2.17859    0.00722     3.18544
      C   11   -0.21117      0.99961     2.20305    0.00851     3.21117
      C   12   -0.07680      0.99960     2.06501    0.01219     3.07680
      N   13   -0.28073      0.99970     2.76689    0.01414     3.78073
      C   14   -0.12689      0.99956     2.11647    0.01086     3.12689
      C   15    0.36605      0.99969     1.61206    0.02220     2.63395
      O   16   -0.30658      0.99987     3.30079    0.00592     4.30658
      N   17   -0.33968      0.99964     2.83151    0.00853     3.83968
      C   18    0.41421      0.99974     1.56428    0.02177     2.58579
      O   19   -0.32333      0.99987     3.31802    0.00544     4.32333
      N   20   -0.41394      0.99970     2.90707    0.00717     3.91394
      H   21    0.10825      0.00000     0.39044    0.00131     0.39175
      H   22    0.10771      0.00000     0.39080    0.00149     0.39229
      H   23    0.11250      0.00000     0.38545    0.00205     0.38750
      H   24    0.11187      0.00000     0.38638    0.00175     0.38813
      H   25    0.11541      0.00000     0.38336    0.00122     0.38459
      H   26    0.09654      0.00000     0.40090    0.00255     0.40346
      H   27    0.10728      0.00000     0.39164    0.00109     0.39272
      H   28    0.09814      0.00000     0.40073    0.00113     0.40186
      H   29    0.09601      0.00000     0.40307    0.00092     0.40399
      H   30    0.09863      0.00000     0.40005    0.00131     0.40137
      H   31    0.08817      0.00000     0.41058    0.00125     0.41183
      H   32    0.09628      0.00000     0.40283    0.00089     0.40372
      H   33    0.09378      0.00000     0.40512    0.00109     0.40622
      H   34    0.11663      0.00000     0.38205    0.00132     0.38337
      H   35    0.08833      0.00000     0.41045    0.00122     0.41167
      H   36    0.09920      0.00000     0.39970    0.00110     0.40080
      H   37    0.09978      0.00000     0.39830    0.00193     0.40022
      H   38    0.11347      0.00000     0.38522    0.00131     0.38653
      H   39    0.20285      0.00000     0.29459    0.00256     0.29715
      H   40    0.20337      0.00000     0.29375    0.00287     0.29663
      H   41    0.19860      0.00000     0.29988    0.00152     0.30140
 =======================================================================
   * Total *   -0.00000     19.99269    54.75522    0.25209    75.00000

 Normal termination of Gaussian 16 at Sat Dec 12 18:18:10 2020.
