 Gaussian 16, Revision A.03,

 -----------------------------------------------------------
 # opt freq B3LYP/6-31G(d) empiricaldispersion=gd3bj scf=xqc
 -----------------------------------------------------------

 ------------------------------
 CID_143337900_JID_369_neutraal
 ------------------------------
 Symbolic Z-matrix:
 Charge =  0 Multiplicity = 1

 SCF Done:  E(RB3LYP) =  -407.940236877     A.U. after   14 cycles
 SCF Done:  E(RB3LYP) =  -407.944116334     A.U. after   12 cycles
 SCF Done:  E(RB3LYP) =  -407.944676578     A.U. after   12 cycles
 SCF Done:  E(RB3LYP) =  -407.944985816     A.U. after   11 cycles
 SCF Done:  E(RB3LYP) =  -407.945138701     A.U. after   12 cycles
 SCF Done:  E(RB3LYP) =  -407.945323815     A.U. after   10 cycles
 SCF Done:  E(RB3LYP) =  -407.945372707     A.U. after   11 cycles
 SCF Done:  E(RB3LYP) =  -407.945397887     A.U. after   10 cycles
 SCF Done:  E(RB3LYP) =  -407.945404147     A.U. after    8 cycles
 SCF Done:  E(RB3LYP) =  -407.945406673     A.U. after    9 cycles
 SCF Done:  E(RB3LYP) =  -407.945407128     A.U. after    8 cycles
 SCF Done:  E(RB3LYP) =  -407.945407144     A.U. after    7 cycles
 Optimization completed.
    -- Stationary point found.

 1\1\GINC-NODE365\FOpt\RB3LYP\6-31G(d)\C9H17N1\VSC10255\08-Dec-2020\0\\
 # opt freq B3LYP/6-31G(d) empiricaldispersion=gd3bj scf=xqc\\CID_14333
 7900_JID_369_neutraal\\0,1\C,1.2074646582,0.4206635594,-0.2192249758\C
 ,1.2969647138,0.123905908,1.2860818856\C,1.4846671779,1.3826311022,2.1
 037728579\C,0.5150392961,1.8770996259,2.8802607433\N,2.7379389846,2.05
 50217715,1.9809089429\C,3.9487121682,1.2719911713,2.2312012902\C,4.671
 5366129,0.7603855696,0.9786503766\C,2.8283308955,3.3623986097,1.469434
 5022\C,1.8392877123,3.9797072978,0.7984520069\C,4.1203963374,4.0940829

 Normal termination of Gaussian 16 at Tue Dec  8 10:30:17 2020.

 --------------------------------------------------------------------
 #N Geom=AllCheck Guess=TCheck SCRF=Check GenChk RB3LYP/6-31G(d) Freq
 --------------------------------------------------------------------

 Structure from the checkpoint file:  "JID_369.chk"
 ------------------------------
 CID_143337900_JID_369_neutraal
 ------------------------------
 Charge =  0 Multiplicity = 1

 SCF Done:  E(RB3LYP) =  -407.945407144     A.U. after    1 cycles

  Exact polarizability: 106.029   3.607 110.331   2.971  -2.967  87.534
 Approx polarizability: 137.208   8.731 163.443   4.340  -8.905 130.274

                      1                      2                      3
                      A                      A                      A
 Frequencies --     44.5839                69.2738               103.2883
 Red. masses --      3.1019                 3.2460                 2.9677
 Frc consts  --      0.0036                 0.0092                 0.0187
 IR Inten    --      0.2765                 0.8403                 1.4133

                      4                      5                      6
                      A                      A                      A
 Frequencies --    133.2210               167.6248               202.5186
 Red. masses --      2.5694                 2.4460                 1.6158
 Frc consts  --      0.0269                 0.0405                 0.0390
 IR Inten    --      1.1147                 0.1605                 0.4479

                      7                      8                      9
                      A                      A                      A
 Frequencies --    204.5386               223.8046               249.3960
 Red. masses --      1.6527                 1.2090                 1.0382
 Frc consts  --      0.0407                 0.0357                 0.0380
 IR Inten    --      0.8179                 1.0212                 0.0669

                     10                     11                     12
                      A                      A                      A
 Frequencies --    258.0941               356.7372               366.0564
 Red. masses --      2.1359                 2.6594                 2.1126
 Frc consts  --      0.0838                 0.1994                 0.1668
 IR Inten    --      0.2594                 1.8566                 0.6376

                     13                     14                     15
                      A                      A                      A
 Frequencies --    394.5090               456.7166               487.5015
 Red. masses --      2.5628                 2.4383                 2.4059
 Frc consts  --      0.2350                 0.2997                 0.3369
 IR Inten    --      1.5754                 5.2658                 1.0359

                     16                     17                     18
                      A                      A                      A
 Frequencies --    504.1439               554.6387               648.2233
 Red. masses --      2.4467                 2.5175                 3.2543
 Frc consts  --      0.3664                 0.4563                 0.8057
 IR Inten    --      4.0816                 3.9782                 7.0840

                     19                     20                     21
                      A                      A                      A
 Frequencies --    686.5644               704.4965               737.6493
 Red. masses --      2.2319                 1.1847                 1.2131
 Frc consts  --      0.6199                 0.3464                 0.3889
 IR Inten    --      1.6304                 6.7226                14.0419

                     22                     23                     24
                      A                      A                      A
 Frequencies --    793.5811               815.4625               816.3391
 Red. masses --      1.1986                 1.1948                 1.3473
 Frc consts  --      0.4447                 0.4681                 0.5290
 IR Inten    --      8.5668                 8.9405                44.0461

                     25                     26                     27
                      A                      A                      A
 Frequencies --    859.7331               900.8306               927.5599
 Red. masses --      2.0530                 1.3905                 2.0026
 Frc consts  --      0.8941                 0.6648                 1.0151
 IR Inten    --      3.8555                31.5706                 1.1632

                     28                     29                     30
                      A                      A                      A
 Frequencies --    964.9029              1008.8524              1021.1034
 Red. masses --      2.1913                 2.0281                 1.4997
 Frc consts  --      1.2020                 1.2162                 0.9213
 IR Inten    --      1.1822                 4.5306                 3.7376

                     31                     32                     33
                      A                      A                      A
 Frequencies --   1055.6255              1084.7453              1092.6341
 Red. masses --      1.5151                 1.4947                 1.7534
 Frc consts  --      0.9947                 1.0363                 1.2333
 IR Inten    --      8.9831                 2.0515                14.0299

                     34                     35                     36
                      A                      A                      A
 Frequencies --   1102.6643              1110.0632              1191.7343
 Red. masses --      1.8088                 1.6114                 1.8423
 Frc consts  --      1.2958                 1.1699                 1.5416
 IR Inten    --     10.0220                 6.1980                 7.2220

                     37                     38                     39
                      A                      A                      A
 Frequencies --   1213.2242              1278.5866              1311.0233
 Red. masses --      4.2873                 1.7368                 1.4007
 Frc consts  --      3.7180                 1.6728                 1.4184
 IR Inten    --     51.1424                20.2528                19.9739

                     40                     41                     42
                      A                      A                      A
 Frequencies --   1319.3773              1370.2244              1404.6393
 Red. masses --      1.7505                 1.4505                 1.4492
 Frc consts  --      1.7953                 1.6046                 1.6846
 IR Inten    --     56.6291                 7.3243                36.6133

                     43                     44                     45
                      A                      A                      A
 Frequencies --   1423.6265              1435.4348              1439.3096
 Red. masses --      1.5074                 1.2389                 1.2499
 Frc consts  --      1.8000                 1.5040                 1.5256
 IR Inten    --     39.5377                12.2086                11.9077

                     46                     47                     48
                      A                      A                      A
 Frequencies --   1446.2634              1455.7143              1470.0015
 Red. masses --      1.4996                 1.2319                 1.2237
 Frc consts  --      1.8481                 1.5381                 1.5579
 IR Inten    --     79.6071                 8.3721                 0.6560

                     49                     50                     51
                      A                      A                      A
 Frequencies --   1511.9174              1513.7529              1520.8184
 Red. masses --      1.0537                 1.0515                 1.0530
 Frc consts  --      1.4191                 1.4196                 1.4349
 IR Inten    --      5.1499                 4.0240                 4.5026

                     52                     53                     54
                      A                      A                      A
 Frequencies --   1525.3269              1527.4244              1529.6941
 Red. masses --      1.0400                 1.0567                 1.0550
 Frc consts  --      1.4256                 1.4525                 1.4545
 IR Inten    --      6.3612                 3.6607                 8.0159

                     55                     56                     57
                      A                      A                      A
 Frequencies --   1543.4412              1546.0963              1700.9586
 Red. masses --      1.0715                 1.0797                 4.6066
 Frc consts  --      1.5039                 1.5207                 7.8527
 IR Inten    --      7.0758                 4.0488               105.7098

                     58                     59                     60
                      A                      A                      A
 Frequencies --   1729.6587              3046.6964              3046.8360
 Red. masses --      5.4101                 1.0514                 1.0541
 Frc consts  --      9.5361                 5.7503                 5.7654
 IR Inten    --     62.6205                11.6379                24.1385

                     61                     62                     63
                      A                      A                      A
 Frequencies --   3055.0633              3056.0206              3067.1523
 Red. masses --      1.0362                 1.0384                 1.0622
 Frc consts  --      5.6979                 5.7140                 5.8874
 IR Inten    --     16.6384                34.3704                46.7331

                     64                     65                     66
                      A                      A                      A
 Frequencies --   3088.5506              3098.2663              3103.4912
 Red. masses --      1.0982                 1.0987                 1.1014
 Frc consts  --      6.1721                 6.2137                 6.2500
 IR Inten    --     24.5845                23.4389                 7.1441

                     67                     68                     69
                      A                      A                      A
 Frequencies --   3121.7592              3123.5815              3135.3995
 Red. masses --      1.1024                 1.0989                 1.1020
 Frc consts  --      6.3300                 6.3171                 6.3830
 IR Inten    --     26.1563                51.2148                52.5868

                     70                     71                     72
                      A                      A                      A
 Frequencies --   3143.5875              3150.8393              3177.1315
 Red. masses --      1.1018                 1.0985                 1.0600
 Frc consts  --      6.4152                 6.4255                 6.3043
 IR Inten    --     23.6811                13.9987                 3.5832

                     73                     74                     75
                      A                      A                      A
 Frequencies --   3196.5008              3261.1070              3277.4819
 Red. masses --      1.0592                 1.1169                 1.1162
 Frc consts  --      6.3763                 6.9986                 7.0644
 IR Inten    --      1.9330                13.1075                14.2869

 - Thermochemistry -
 -------------------
 Temperature   298.150 Kelvin.  Pressure   1.00000 Atm.
 Atom     1 has atomic number  6 and mass  12.00000

 Molecular mass:   139.13610 amu.
 Principal axes and moments of inertia in atomic units:
                           1         2         3
     Eigenvalues --  1192.300771599.093302029.84866
           X            0.99987   0.00934  -0.01332
           Y           -0.00934   0.99996   0.00031
           Z            0.01332  -0.00018   0.99991
 This molecule is an asymmetric top.
 Rotational symmetry number  1.
 Warning -- assumption of classical behavior for rotation
           may cause significant error
 Rotational temperatures (Kelvin)      0.07264     0.05416     0.04267
 Rotational constants (GHZ):           1.51366     1.12860     0.88910
 Zero-point vibrational energy     643982.0 (Joules/Mol)
                                  153.91540 (Kcal/Mol)
 Warning -- explicit consideration of  17 degrees of freedom as
           vibrations may cause significant error
 Vibrational temperatures:     64.15    99.67   148.61   191.68   241.17
          (Kelvin)            291.38   294.29   322.00   358.83   371.34
                              513.27   526.67   567.61   657.11   701.41
                              725.35   798.00   932.65   987.81  1013.61
                             1061.31  1141.79  1173.27  1174.53  1236.96
                             1296.09  1334.55  1388.28  1451.51  1469.14
                             1518.81  1560.71  1572.06  1586.49  1597.13
                             1714.64  1745.56  1839.60  1886.27  1898.29
                             1971.45  2020.96  2048.28  2065.27  2070.85
                             2080.85  2094.45  2115.00  2175.31  2177.95
                             2188.12  2194.61  2197.62  2200.89  2220.67
                             2224.49  2447.30  2488.59  4383.52  4383.72
                             4395.55  4396.93  4412.95  4443.74  4457.71
                             4465.23  4491.52  4494.14  4511.14  4522.92
                             4533.35  4571.18  4599.05  4692.01  4715.57

 Zero-point correction=                           0.245280 (Hartree/Particle)
 Thermal correction to Energy=                    0.257534
 Thermal correction to Enthalpy=                  0.258479
 Thermal correction to Gibbs Free Energy=         0.207592
 Sum of electronic and zero-point Energies=           -407.700127
 Sum of electronic and thermal Energies=              -407.687873
 Sum of electronic and thermal Enthalpies=            -407.686929
 Sum of electronic and thermal Free Energies=         -407.737816

                     E (Thermal)             CV                S
                      KCal/Mol        Cal/Mol-Kelvin    Cal/Mol-Kelvin
 Total                  161.605             45.841            107.101
 Electronic               0.000              0.000              0.000
 Translational            0.889              2.981             40.703
 Rotational               0.889              2.981             29.738
 Vibrational            159.828             39.879             36.660
 Vibration     1          0.595              1.980              5.044
 Vibration     2          0.598              1.969              4.174
 Vibration     3          0.605              1.947              3.391
 Vibration     4          0.613              1.920              2.899
 Vibration     5          0.624              1.882              2.462
 Vibration     6          0.639              1.836              2.110
 Vibration     7          0.640              1.833              2.092
 Vibration     8          0.649              1.805              1.928
 Vibration     9          0.662              1.764              1.735
 Vibration    10          0.667              1.749              1.675
 Vibration    11          0.732              1.561              1.136
 Vibration    12          0.739              1.542              1.096
 Vibration    13          0.761              1.482              0.983
 Vibration    14          0.815              1.346              0.776
 Vibration    15          0.843              1.278              0.690
 Vibration    16          0.859              1.241              0.648
 Vibration    17          0.910              1.130              0.535

 Optimization completed.
    -- Stationary point found.

 1\1\GINC-NODE365\Freq\RB3LYP\6-31G(d)\C9H17N1\VSC10255\08-Dec-2020\0\\
 #N Geom=AllCheck Guess=TCheck SCRF=Check GenChk RB3LYP/6-31G(d) Freq\\
 CID_143337900_JID_369_neutraal\\0,1\C,1.2074646582,0.4206635594,-0.219
 2249758\C,1.2969647138,0.123905908,1.2860818856\C,1.4846671779,1.38263
 11022,2.1037728579\C,0.5150392961,1.8770996259,2.8802607433\N,2.737938
 9846,2.0550217715,1.9809089429\C,3.9487121682,1.2719911713,2.231201290
 2\C,4.6715366129,0.7603855696,0.9786503766\C,2.8283308955,3.3623986097
 ,1.4694345022\C,1.8392877123,3.9797072978,0.7984520069\C,4.1203963374,

 Normal termination of Gaussian 16 at Tue Dec  8 10:35:42 2020.

 ----------------------------------------------------------------------
 # B3LYP/6-311++G(d,p) empiricaldispersion=gd3bj scf=xqc pop=npa geom=c
 heck
 ----------------------------------------------------------------------

 --------------------------------------
 CID_143337900_JID_369_Energie_neutraal
 --------------------------------------
 Structure from the checkpoint file:  "JID_369.chk"
 Charge =  0 Multiplicity = 1

 SCF Done:  E(RB3LYP) =  -408.061334523     A.U. after   14 cycles
 Normal termination of Gaussian 16 at Tue Dec  8 10:41:42 2020.

 ----------------------------------------------------------------------
 # B3LYP/6-311++G(d,p) empiricaldispersion=gd3bj scf=xqc pop=npa geom=c
 heck
 ----------------------------------------------------------------------

 ------------------------------------
 CID_143337900_JID_369_Energie_kation
 ------------------------------------
 Structure from the checkpoint file:  "JID_369.chk"
 Charge =  1 Multiplicity = 2

 SCF Done:  E(UB3LYP) =  -407.805449164     A.U. after   20 cycles
 Normal termination of Gaussian 16 at Tue Dec  8 10:48:34 2020.
 Gaussian 16:  ES64L-G16RevA.03 25-Dec-2016

 -----------------------------------
 CID_143337900_JID_369_Energie_anion
 -----------------------------------
 Structure from the checkpoint file:  "JID_369.chk"
 Charge = -1 Multiplicity = 2

                         Standard orientation:
 ---------------------------------------------------------------------
 Center     Atomic      Atomic             Coordinates (Angstroms)
 Number     Number       Type             X           Y           Z
 ---------------------------------------------------------------------
      1          6           0       -2.159716    0.320939    1.420740
      2          6           0       -2.130766    0.351228   -0.115577
      3          6           0       -1.006766   -0.489217   -0.679950
      4          6           0       -1.232428   -1.643519   -1.315775
      5          7           0        0.324266   -0.018611   -0.468337
      6          6           0        0.632765    1.344449   -0.902677
      7          6           0        0.619121    2.406255    0.204337
      8          6           0        1.257965   -0.755139    0.283157
      9          6           0        0.934692   -1.780884    1.091140
     10          6           0        2.706370   -0.359877    0.105909
     11          1           0       -2.385451   -0.688205    1.780762
     12          1           0       -2.921873    1.003436    1.813259
     13          1           0       -1.190383    0.609656    1.838413
     14          1           0       -3.082864   -0.014349   -0.515519
     15          1           0       -2.034726    1.390411   -0.455988
     16          1           0       -0.415900   -2.255798   -1.683664
     17          1           0       -2.241210   -2.026850   -1.431869
     18          1           0        1.611560    1.347073   -1.394245
     19          1           0       -0.089290    1.606752   -1.681645
     20          1           0        1.298323    2.133082    1.018309
     21          1           0        0.939316    3.375990   -0.195177
     22          1           0       -0.379333    2.527377    0.633513
     23          1           0        1.715310   -2.335001    1.598056
     24          1           0       -0.085628   -2.115615    1.229351
     25          1           0        3.008450   -0.428537   -0.946787
     26          1           0        2.913051    0.664465    0.436104
     27          1           0        3.343368   -1.029027    0.687660
 ---------------------------------------------------------------------

 SCF Done:  E(UB3LYP) =  -408.043534128     A.U. after   32 cycles

 The electronic state is 2-A.
 Alpha  occ. eigenvalues --  -14.22115 -10.10609 -10.10544 -10.09566 -10.06730
 Alpha  occ. eigenvalues --  -10.06217 -10.05535 -10.05310 -10.05089 -10.03264
 Alpha  occ. eigenvalues --   -0.84328  -0.69972  -0.67386  -0.64242  -0.60947
 Alpha  occ. eigenvalues --   -0.57955  -0.52953  -0.51690  -0.48444  -0.40364
 Alpha  occ. eigenvalues --   -0.38704  -0.37907  -0.35577  -0.33364  -0.33052
 Alpha  occ. eigenvalues --   -0.32267  -0.30601  -0.30124  -0.29636  -0.28493
 Alpha  occ. eigenvalues --   -0.27228  -0.26425  -0.25549  -0.24512  -0.23928
 Alpha  occ. eigenvalues --   -0.23686  -0.19420  -0.16047  -0.08574   0.04863
 Alpha virt. eigenvalues --    0.06905   0.07716   0.08188   0.09103   0.09509
 Alpha virt. eigenvalues --    0.09654   0.09826   0.10451   0.11765   0.12351
 Alpha virt. eigenvalues --    0.12470   0.12740   0.12932   0.14229   0.15067

  Beta  occ. eigenvalues --  -14.22113 -10.10604 -10.10539 -10.09544 -10.06705
  Beta  occ. eigenvalues --  -10.06179 -10.05507 -10.05293 -10.05045 -10.03256
  Beta  occ. eigenvalues --   -0.84314  -0.69941  -0.67352  -0.64200  -0.60904
  Beta  occ. eigenvalues --   -0.57904  -0.52891  -0.51607  -0.48402  -0.40317
  Beta  occ. eigenvalues --   -0.38671  -0.37868  -0.35532  -0.33335  -0.33020
  Beta  occ. eigenvalues --   -0.32218  -0.30557  -0.30092  -0.29596  -0.28445
  Beta  occ. eigenvalues --   -0.27175  -0.26385  -0.25513  -0.24473  -0.23898
  Beta  occ. eigenvalues --   -0.23652  -0.19383  -0.16008  -0.08550
  Beta virt. eigenvalues --    0.07210   0.07855   0.08346   0.08707   0.09353
  Beta virt. eigenvalues --    0.10105   0.10198   0.10296   0.10787   0.12451
  Beta virt. eigenvalues --    0.12737   0.12852   0.13292   0.13379   0.14435

 Mulliken charges and spin densities:
               1          2
     1  C    0.763967  -1.280202
     2  C   -0.483174   0.172001
     3  C   -1.247902   1.263904
     4  C    1.310142  -1.652623
     5  N    0.200711   0.106196
     6  C   -1.261644   1.007034
     7  C    1.767895  -2.182180
     8  C   -1.184194   1.468898
     9  C   -0.170952  -0.348561
    10  C    2.061268  -2.768765
    11  H    0.089667   0.029750
    12  H   -0.465921   0.609127
    13  H    0.083015   0.097321
    14  H   -0.513458   0.679681
    15  H    0.095237   0.059138
    16  H    0.147511  -0.032544
    17  H   -0.103354   0.228666
    18  H   -0.110424   0.277312
    19  H   -0.444024   0.614862
    20  H   -0.064527   0.189614
    21  H   -0.760692   0.904231
    22  H   -0.024701   0.174956
    23  H   -0.103465   0.223402
    24  H    0.215245  -0.108575
    25  H   -0.415278   0.588893
    26  H   -0.413168   0.569305
    27  H    0.032219   0.109159
 Sum of Mulliken charges =  -1.00000   1.00000

 Dipole moment (field-independent basis, Debye):
    X=             -0.6371    Y=             -4.9247    Z=              0.5365  Tot=              4.9946
 Quadrupole moment (field-independent basis, Debye-Ang):
   XX=           -124.9440   YY=           -112.6526   ZZ=            -98.0430
   XY=             -2.2933   XZ=              2.9923   YZ=              0.8411

 Summary of Natural Population Analysis:

                                       Natural Population
                Natural  -----------------------------------------------
    Atom  No    Charge         Core      Valence    Rydberg      Total
 -----------------------------------------------------------------------
      C    1   -0.28323      0.99966     2.27749    0.00608     3.28323
      C    2   -0.21189      0.99958     2.20231    0.01000     3.21189
      C    3    0.10749      0.99948     1.87825    0.01478     2.89251
      C    4   -0.20238      0.99948     2.19589    0.00701     3.20238
      N    5   -0.28081      0.99961     2.76378    0.01741     3.78081
      C    6   -0.08387      0.99961     2.07237    0.01189     3.08387
      C    7   -0.29133      0.99965     2.28595    0.00573     3.29133
      C    8    0.10821      0.99949     1.87894    0.01336     2.89179
      C    9   -0.25502      0.99952     2.24918    0.00631     3.25502
      C   10   -0.30305      0.99962     2.29737    0.00606     3.30305
      H   11    0.09531      0.00000     0.40362    0.00107     0.40469
      H   12    0.10003      0.00000     0.39872    0.00125     0.39997
      H   13    0.10142      0.00000     0.39693    0.00165     0.39858
      H   14    0.10072      0.00000     0.39776    0.00152     0.39928
      H   15    0.10295      0.00000     0.39511    0.00194     0.39705
      H   16    0.09825      0.00000     0.40083    0.00093     0.40175
      H   17    0.09443      0.00000     0.40466    0.00092     0.40557
      H   18    0.09867      0.00000     0.39967    0.00167     0.40133
      H   19    0.09918      0.00000     0.39937    0.00145     0.40082
      H   20    0.09823      0.00000     0.40041    0.00136     0.40177
      H   21    0.10227      0.00000     0.39530    0.00243     0.39773
      H   22    0.09866      0.00000     0.39974    0.00161     0.40134
      H   23    0.09336      0.00000     0.40584    0.00080     0.40664
      H   24    0.09780      0.00000     0.40117    0.00103     0.40220
      H   25    0.10377      0.00000     0.39464    0.00159     0.39623
      H   26    0.10646      0.00000     0.39199    0.00155     0.39354
      H   27    0.10437      0.00000     0.39472    0.00091     0.39563
 =======================================================================
   * Total *    0.00000      9.99570    28.88198    0.12232    39.00000

 Normal termination of Gaussian 16 at Tue Dec  8 10:56:59 2020.
