 Gaussian 16, Revision A.03,

 -----------------------------------------------------------
 # opt freq B3LYP/6-31G(d) empiricaldispersion=gd3bj scf=xqc
 -----------------------------------------------------------

 ------------------------------
 CID_91067546_JID_3398_neutraal
 ------------------------------
 Symbolic Z-matrix:
 Charge =  0 Multiplicity = 1

 SCF Done:  E(RB3LYP) =  -629.901434790     A.U. after   33 cycles
 SCF Done:  E(RB3LYP) =  -629.901434850     a.u. after    2 cycles
 SCF Done:  E(RB3LYP) =  -629.946424115     A.U. after   33 cycles
 SCF Done:  E(RB3LYP) =  -629.946424116     a.u. after    2 cycles
 SCF Done:  E(RB3LYP) =  -630.011683780     A.U. after   21 cycles
 SCF Done:  E(RB3LYP) =  -630.058112550     A.U. after   19 cycles
 SCF Done:  E(RB3LYP) =  -630.081117649     A.U. after   19 cycles
 SCF Done:  E(RB3LYP) =  -630.171279997     A.U. after   22 cycles
 SCF Done:  E(RB3LYP) =  -630.296946154     A.U. after   21 cycles
 SCF Done:  E(RB3LYP) =  -630.432900015     A.U. after   19 cycles
 SCF Done:  E(RB3LYP) =  -631.117883643     A.U. after   10 cycles
 SCF Done:  E(RB3LYP) =  -631.117886665     A.U. after   10 cycles
 SCF Done:  E(RB3LYP) =  -631.117888371     A.U. after    9 cycles
 SCF Done:  E(RB3LYP) =  -631.117889515     A.U. after    8 cycles
 SCF Done:  E(RB3LYP) =  -631.117890214     A.U. after    8 cycles
 SCF Done:  E(RB3LYP) =  -631.117890595     A.U. after    8 cycles
 Optimization completed.
    -- Stationary point found.
 Normal termination of Gaussian 16 at Sun Dec 13 20:41:04 2020.

 --------------------------------------------------------------------
 #N Geom=AllCheck Guess=TCheck SCRF=Check GenChk RB3LYP/6-31G(d) Freq
 --------------------------------------------------------------------

 Structure from the checkpoint file:  "JID_3398.chk"
 ------------------------------
 CID_91067546_JID_3398_neutraal
 ------------------------------
 Charge =  0 Multiplicity = 1

 SCF Done:  E(RB3LYP) =  -631.117890595     A.U. after    1 cycles

  Exact polarizability: 119.787  -1.244 109.650  -2.741   1.452  82.336
 Approx polarizability: 191.368  -5.703 180.162 -12.471  12.727 129.517

                      1                      2                      3
                      A                      A                      A
 Frequencies --     57.9232                83.3568               155.9950
 Red. masses --      6.4813                 5.6465                 4.1043
 Frc consts  --      0.0128                 0.0231                 0.0588
 IR Inten    --      0.4208                 0.4842                 3.9809

                      4                      5                      6
                      A                      A                      A
 Frequencies --    191.7860               219.4447               243.5618
 Red. masses --      3.7093                 4.3319                 3.6811
 Frc consts  --      0.0804                 0.1229                 0.1287
 IR Inten    --      0.6240                 4.1711                 0.8190

                      7                      8                      9
                      A                      A                      A
 Frequencies --    253.5551               275.5452               289.4337
 Red. masses --      2.9079                 1.1629                 1.3809
 Frc consts  --      0.1101                 0.0520                 0.0682
 IR Inten    --      0.4536                 1.1105                 0.2393

                     10                     11                     12
                      A                      A                      A
 Frequencies --    307.3292               336.0975               366.2290
 Red. masses --      2.8962                 3.6510                 2.3474
 Frc consts  --      0.1612                 0.2430                 0.1855
 IR Inten    --      0.7676                 1.2655                 1.6545

                     13                     14                     15
                      A                      A                      A
 Frequencies --    381.6905               403.8967               451.1172
 Red. masses --      2.4138                 3.4198                 2.7155
 Frc consts  --      0.2072                 0.3287                 0.3256
 IR Inten    --      3.9366                 0.8560                 1.7633

                     16                     17                     18
                      A                      A                      A
 Frequencies --    467.5218               510.0478               550.7839
 Red. masses --      3.6800                 3.7893                 1.1751
 Frc consts  --      0.4739                 0.5808                 0.2100
 IR Inten    --      3.3740                 6.6366               156.2143

                     19                     20                     21
                      A                      A                      A
 Frequencies --    585.7336               598.4743               648.9220
 Red. masses --      4.0064                 3.8881                 3.4918
 Frc consts  --      0.8099                 0.8205                 0.8663
 IR Inten    --      9.1918                16.5344                 8.0345

                     22                     23                     24
                      A                      A                      A
 Frequencies --    694.5645               729.4340               757.1268
 Red. masses --      5.3820                 1.4373                 4.7842
 Frc consts  --      1.5298                 0.4506                 1.6158
 IR Inten    --      1.2260                58.5142                 4.9556

                     25                     26                     27
                      A                      A                      A
 Frequencies --    788.9071               838.3422               882.8289
 Red. masses --      1.4824                 4.8374                 3.6292
 Frc consts  --      0.5436                 2.0031                 1.6665
 IR Inten    --      1.2417                23.8452                21.0965

                     28                     29                     30
                      A                      A                      A
 Frequencies --    913.2897               957.8037               970.2713
 Red. masses --      2.1453                 2.4560                 1.7892
 Frc consts  --      1.0543                 1.3275                 0.9924
 IR Inten    --      2.5332                 1.0407                 0.9199

                     31                     32                     33
                      A                      A                      A
 Frequencies --    979.5315               986.1800               986.9553
 Red. masses --      1.4342                 1.3726                 1.4866
 Frc consts  --      0.8108                 0.7865                 0.8532
 IR Inten    --      0.9611                 1.0579                 3.4966

                     34                     35                     36
                      A                      A                      A
 Frequencies --   1017.7591              1088.3523              1112.9993
 Red. masses --      1.8420                 3.2733                 5.2689
 Frc consts  --      1.1241                 2.2844                 3.8456
 IR Inten    --      5.6816                15.5130                86.6412

                     37                     38                     39
                      A                      A                      A
 Frequencies --   1143.2527              1163.4199              1173.2407
 Red. masses --      1.9573                 1.9481                 2.2965
 Frc consts  --      1.5073                 1.5536                 1.8625
 IR Inten    --      8.6763                13.3468                 4.4277

                     40                     41                     42
                      A                      A                      A
 Frequencies --   1184.5742              1208.4489              1238.5165
 Red. masses --      1.8729                 1.7486                 1.2427
 Frc consts  --      1.5484                 1.5045                 1.1231
 IR Inten    --      2.2349                20.2548                 3.7206

                     43                     44                     45
                      A                      A                      A
 Frequencies --   1273.8008              1308.3365              1395.9914
 Red. masses --      1.8227                 1.5084                 1.3515
 Frc consts  --      1.7425                 1.5212                 1.5518
 IR Inten    --      3.0445                34.8496                 2.5184

                     46                     47                     48
                      A                      A                      A
 Frequencies --   1405.7506              1409.0403              1435.6415
 Red. masses --      2.6963                 1.4797                 1.2356
 Frc consts  --      3.1394                 1.7309                 1.5005
 IR Inten    --     42.0602                18.1294                 6.4728

                     49                     50                     51
                      A                      A                      A
 Frequencies --   1438.9398              1457.2565              1475.1007
 Red. masses --      1.5895                 1.4831                 1.3122
 Frc consts  --      1.9391                 1.8557                 1.6823
 IR Inten    --     35.2109                 7.1000                64.3230

                     52                     53                     54
                      A                      A                      A
 Frequencies --   1513.6711              1515.4826              1523.7251
 Red. masses --      1.0639                 1.0523                 1.0588
 Frc consts  --      1.4361                 1.4240                 1.4483
 IR Inten    --      8.1116                 9.1674                 8.1454

                     55                     56                     57
                      A                      A                      A
 Frequencies --   1534.6631              1548.6008              1645.1052
 Red. masses --      1.0502                 1.0734                11.2911
 Frc consts  --      1.4572                 1.5167                18.0041
 IR Inten    --      6.3412                 2.6101               192.4010

                     58                     59                     60
                      A                      A                      A
 Frequencies --   1670.7492              1733.7466              3015.1216
 Red. masses --      8.9364                 5.8355                 1.0684
 Frc consts  --     14.6973                10.3347                 5.7226
 IR Inten    --     11.7202                 1.9468                55.7370

                     61                     62                     63
                      A                      A                      A
 Frequencies --   3071.7776              3078.7920              3086.4430
 Red. masses --      1.0361                 1.0359                 1.0939
 Frc consts  --      5.7601                 5.7854                 6.1398
 IR Inten    --     10.5810                 8.5712                37.9421

                     64                     65                     66
                      A                      A                      A
 Frequencies --   3140.6125              3149.4050              3161.8439
 Red. masses --      1.1010                 1.1026                 1.1042
 Frc consts  --      6.3985                 6.4434                 6.5039
 IR Inten    --     12.4117                 8.8265                 7.5084

                     67                     68                     69
                      A                      A                      A
 Frequencies --   3172.8232              3174.1451              3193.6758
 Red. masses --      1.1024                 1.0859                 1.0900
 Frc consts  --      6.5388                 6.4463                 6.5503
 IR Inten    --      6.4333                 3.2562                15.2236

                     70                     71                     72
                      A                      A                      A
 Frequencies --   3206.1542              3231.5910              3690.4390
 Red. masses --      1.0946                 1.0955                 1.0656
 Frc consts  --      6.6294                 6.7403                 8.5510
 IR Inten    --     21.9802                 3.8091               112.4938

 - Thermochemistry -
 -------------------
 Temperature   298.150 Kelvin.  Pressure   1.00000 Atm.
 Atom     1 has atomic number  6 and mass  12.00000

 Molecular mass:   183.08954 amu.
 Principal axes and moments of inertia in atomic units:
                           1         2         3
     Eigenvalues --  1643.559542101.113872740.51581
           X            0.99932  -0.03626  -0.00604
           Y            0.03607   0.99889  -0.03017
           Z            0.00713   0.02994   0.99953
 This molecule is an asymmetric top.
 Rotational symmetry number  1.
 Warning -- assumption of classical behavior for rotation
           may cause significant error
 Rotational temperatures (Kelvin)      0.05270     0.04122     0.03160
 Rotational constants (GHZ):           1.09807     0.85894     0.65854
 Zero-point vibrational energy     567345.0 (Joules/Mol)
                                  135.59870 (Kcal/Mol)
 Warning -- explicit consideration of  20 degrees of freedom as
           vibrations may cause significant error
 Vibrational temperatures:     83.34   119.93   224.44   275.94   315.73
          (Kelvin)            350.43   364.81   396.45   416.43   442.18
                              483.57   526.92   549.17   581.12   649.06
                              672.66   733.84   792.46   842.74   861.07
                              933.65   999.32  1049.49  1089.34  1135.06
                             1206.19  1270.19  1314.02  1378.07  1396.00
                             1409.33  1418.89  1420.01  1464.33  1565.90
                             1601.36  1644.89  1673.90  1688.03  1704.34
                             1738.69  1781.95  1832.72  1882.40  2008.52
                             2022.56  2027.29  2065.57  2070.31  2096.67
                             2122.34  2177.84  2180.44  2192.30  2208.04
                             2228.09  2366.94  2403.84  2494.47  4338.09
                             4419.60  4429.70  4440.70  4518.64  4531.29
                             4549.19  4564.98  4566.89  4594.99  4612.94
                             4649.54  5309.72

 Zero-point correction=                           0.216090 (Hartree/Particle)
 Thermal correction to Energy=                    0.228313
 Thermal correction to Enthalpy=                  0.229257
 Thermal correction to Gibbs Free Energy=         0.178793
 Sum of electronic and zero-point Energies=           -630.901800
 Sum of electronic and thermal Energies=              -630.889577
 Sum of electronic and thermal Enthalpies=            -630.888633
 Sum of electronic and thermal Free Energies=         -630.939097

                     E (Thermal)             CV                S
                      KCal/Mol        Cal/Mol-Kelvin    Cal/Mol-Kelvin
 Total                  143.269             48.515            106.211
 Electronic               0.000              0.000              0.000
 Translational            0.889              2.981             41.521
 Rotational               0.889              2.981             30.627
 Vibrational            141.491             42.554             34.063
 Vibration     1          0.596              1.974              4.527
 Vibration     2          0.600              1.961              3.810
 Vibration     3          0.620              1.896              2.598
 Vibration     4          0.634              1.851              2.210
 Vibration     5          0.647              1.811              1.964
 Vibration     6          0.659              1.773              1.777
 Vibration     7          0.665              1.757              1.706
 Vibration     8          0.677              1.719              1.561
 Vibration     9          0.686              1.693              1.477
 Vibration    10          0.697              1.660              1.377
 Vibration    11          0.717              1.603              1.231
 Vibration    12          0.739              1.542              1.096
 Vibration    13          0.751              1.509              1.032
 Vibration    14          0.769              1.462              0.948
 Vibration    15          0.810              1.358              0.792
 Vibration    16          0.825              1.322              0.745
 Vibration    17          0.865              1.228              0.633
 Vibration    18          0.906              1.138              0.543
 Vibration    19          0.943              1.062              0.475
 Vibration    20          0.956              1.035              0.452

                           ! Non-Optimized Parameters !
 Normal termination of Gaussian 16 at Sun Dec 13 20:48:41 2020.

 ----------------------------------------------------------------------
 # B3LYP/6-311++G(d,p) empiricaldispersion=gd3bj scf=xqc pop=npa geom=c
 heck
 ----------------------------------------------------------------------

 --------------------------------------
 CID_91067546_JID_3398_Energie_neutraal
 --------------------------------------
 Structure from the checkpoint file:  "JID_3398.chk"
 Charge =  0 Multiplicity = 1

 SCF Done:  E(RB3LYP) =  -631.308447078     A.U. after   16 cycles
 Normal termination of Gaussian 16 at Sun Dec 13 20:52:06 2020.

 ----------------------------------------------------------------------
 # B3LYP/6-311++G(d,p) empiricaldispersion=gd3bj scf=xqc pop=npa geom=c
 heck
 ----------------------------------------------------------------------

 ------------------------------------
 CID_91067546_JID_3398_Energie_kation
 ------------------------------------
 Structure from the checkpoint file:  "JID_3398.chk"
 Charge =  1 Multiplicity = 2

 SCF Done:  E(UB3LYP) =  -630.990266426     A.U. after   26 cycles
 Normal termination of Gaussian 16 at Sun Dec 13 20:59:52 2020.
 Gaussian 16:  ES64L-G16RevA.03 25-Dec-2016

 ----------------------------------------------------------------------
 # B3LYP/6-311++G(d,p) empiricaldispersion=gd3bj scf=xqc pop=npa geom=c
 heck
 ----------------------------------------------------------------------

 -----------------------------------
 CID_91067546_JID_3398_Energie_anion
 -----------------------------------
 Structure from the checkpoint file:  "JID_3398.chk"
 Charge = -1 Multiplicity = 2

                         Standard orientation:
 ---------------------------------------------------------------------
 Center     Atomic      Atomic             Coordinates (Angstroms)
 Number     Number       Type             X           Y           Z
 ---------------------------------------------------------------------
      1          6           0       -0.044145    0.839691   -1.757783
      2          6           0       -0.079461   -0.559679    1.926000
      3          6           0        2.682411    0.578495    0.056004
      4          6           0        2.513193   -0.869719   -0.034701
      5          6           0        1.296505   -1.420090    0.059601
      6          6           0        0.093924   -0.567294    0.400677
      7          6           0        0.198770    0.875228   -0.232204
      8          6           0        1.614219    1.384826   -0.003310
      9          6           0       -0.763359    1.913914    0.406825
     10          8           0       -2.127032    1.767234    0.086408
     11          7           0       -1.146792   -1.266532   -0.194627
     12          8           0       -0.981835   -2.042332   -1.124512
     13          8           0       -2.250506   -1.005828    0.293348
     14          1           0        0.195982    1.819311   -2.182294
     15          1           0       -1.094332    0.633065   -1.978923
     16          1           0        0.584040    0.087984   -2.241024
     17          1           0        0.760509   -0.013729    2.362980
     18          1           0       -1.013786   -0.088346    2.232714
     19          1           0       -0.066006   -1.583342    2.311168
     20          1           0        3.684480    0.988486    0.144853
     21          1           0        3.388553   -1.497068   -0.176676
     22          1           0        1.146358   -2.491709    0.002409
     23          1           0        1.735690    2.465524    0.015986
     24          1           0       -0.596496    1.953679    1.493878
     25          1           0       -0.474224    2.893080    0.009745
     26          1           0       -2.420573    0.893971    0.398968
 ---------------------------------------------------------------------

 SCF Done:  E(UB3LYP) =  -631.329111308     A.U. after   27 cycles

 The electronic state is 2-A.
 Alpha  occ. eigenvalues --  -18.97698 -18.94343 -18.94110 -14.29703 -10.08697
 Alpha  occ. eigenvalues --  -10.08644 -10.06074 -10.04465 -10.04105 -10.03976
 Alpha  occ. eigenvalues --  -10.03623 -10.03410 -10.02487  -1.02010  -0.88494
 Alpha  occ. eigenvalues --   -0.84918  -0.73238  -0.65313  -0.64880  -0.58177
 Alpha  occ. eigenvalues --   -0.55134  -0.53441  -0.49780  -0.45880  -0.42317
 Alpha  occ. eigenvalues --   -0.39024  -0.36519  -0.35595  -0.35187  -0.33408
 Alpha  occ. eigenvalues --   -0.33031  -0.31742  -0.30673  -0.28409  -0.27998
 Alpha  occ. eigenvalues --   -0.27094  -0.26494  -0.25540  -0.24053  -0.23542
 Alpha  occ. eigenvalues --   -0.21871  -0.19933  -0.18833  -0.18552  -0.14336
 Alpha  occ. eigenvalues --   -0.13083  -0.11550  -0.10470  -0.09115   0.04754
 Alpha virt. eigenvalues --    0.07903   0.08231   0.09638   0.10177   0.10974
 Alpha virt. eigenvalues --    0.12012   0.12268   0.13325   0.13553   0.14426
 Alpha virt. eigenvalues --    0.15567   0.15782   0.16404   0.17112   0.18086

  Beta  occ. eigenvalues --  -18.97692 -18.93937 -18.93535 -14.28715 -10.08761
  Beta  occ. eigenvalues --  -10.08631 -10.05999 -10.04419 -10.03995 -10.03973
  Beta  occ. eigenvalues --  -10.03466 -10.03349 -10.02478  -1.00677  -0.88468
  Beta  occ. eigenvalues --   -0.83983  -0.73029  -0.65091  -0.64660  -0.58028
  Beta  occ. eigenvalues --   -0.55005  -0.52998  -0.49211  -0.45568  -0.41777
  Beta  occ. eigenvalues --   -0.38667  -0.36147  -0.34891  -0.34545  -0.33185
  Beta  occ. eigenvalues --   -0.31597  -0.31546  -0.29759  -0.28095  -0.27925
  Beta  occ. eigenvalues --   -0.26716  -0.25796  -0.25409  -0.23980  -0.23385
  Beta  occ. eigenvalues --   -0.21684  -0.19798  -0.18449  -0.18336  -0.13976
  Beta  occ. eigenvalues --   -0.11189  -0.10145  -0.09892  -0.08561
  Beta virt. eigenvalues --    0.08050   0.08926   0.09529   0.10193   0.10885
  Beta virt. eigenvalues --    0.11902   0.12171   0.13244   0.13488   0.14123
  Beta virt. eigenvalues --    0.14568   0.15596   0.16046   0.16340   0.17065

 Mulliken charges and spin densities:
               1          2
     1  C   -0.680045  -0.011197
     2  C   -0.608973  -0.056284
     3  C   -0.289627   0.021714
     4  C   -0.562293   0.013435
     5  C   -0.190958   0.086071
     6  C    0.568232  -0.000214
     7  C    0.530936   0.123180
     8  C   -0.456102   0.024201
     9  C   -0.350239  -0.115947
    10  O   -0.204546  -0.001973
    11  N   -0.284606   0.333193
    12  O   -0.139853   0.213201
    13  O   -0.208174   0.151380
    14  H    0.114697   0.001762
    15  H    0.192122   0.008887
    16  H    0.168057   0.004380
    17  H    0.126890   0.023711
    18  H    0.183735   0.001071
    19  H    0.147907   0.003397
    20  H    0.109547   0.013819
    21  H    0.129127   0.000558
    22  H    0.189877  -0.003106
    23  H    0.066512   0.064724
    24  H    0.073851   0.043730
    25  H    0.136959   0.033230
    26  H    0.236968   0.023079
 Sum of Mulliken charges =  -1.00000   1.00000

 Dipole moment (field-independent basis, Debye):
    X=              4.8137    Y=              2.4564    Z=              1.8673  Tot=              5.7178
 Quadrupole moment (field-independent basis, Debye-Ang):
   XX=           -106.6823   YY=           -100.2035   ZZ=            -90.8996
   XY=             -3.9564   XZ=             -2.5602   YZ=             -4.9967

 Summary of Natural Population Analysis:

                                       Natural Population
                Natural  -----------------------------------------------
    Atom  No    Charge         Core      Valence    Rydberg      Total
 -----------------------------------------------------------------------
      C    1   -0.28411      0.99963     2.27757    0.00691     3.28411
      C    2   -0.28610      0.99961     2.27887    0.00762     3.28610
      C    3   -0.11186      0.99953     2.10255    0.00979     3.11186
      C    4   -0.13237      0.99952     2.12372    0.00913     3.13237
      C    5   -0.04402      0.99950     2.03277    0.01175     3.04402
      C    6    0.02695      0.99948     1.95596    0.01761     2.97305
      C    7   -0.05790      0.99951     2.04502    0.01337     3.05790
      C    8   -0.06560      0.99952     2.05462    0.01146     3.06560
      C    9   -0.00225      0.99954     1.98830    0.01441     3.00225
      O   10   -0.38634      0.99989     3.37815    0.00830     4.38634
      N   11    0.35024      0.99972     2.11930    0.03075     3.14976
      O   12   -0.17133      0.99989     3.16382    0.00762     4.17133
      O   13   -0.23277      0.99989     3.22485    0.00803     4.23277
      H   14    0.09112      0.00000     0.40789    0.00099     0.40888
      H   15    0.11125      0.00000     0.38688    0.00187     0.38875
      H   16    0.10714      0.00000     0.39202    0.00085     0.39286
      H   17    0.09866      0.00000     0.39989    0.00145     0.40134
      H   18    0.10723      0.00000     0.39131    0.00146     0.39277
      H   19    0.10029      0.00000     0.39862    0.00109     0.39971
      H   20    0.09114      0.00000     0.40710    0.00176     0.40886
      H   21    0.09246      0.00000     0.40606    0.00148     0.40754
      H   22    0.10668      0.00000     0.39213    0.00119     0.39332
      H   23    0.09108      0.00000     0.40722    0.00170     0.40892
      H   24    0.07613      0.00000     0.42228    0.00159     0.42387
      H   25    0.07953      0.00000     0.41888    0.00159     0.42047
      H   26    0.24476      0.00000     0.25137    0.00387     0.25524
 =======================================================================
   * Total *   -0.00000     12.99523    35.82715    0.17763    49.00000

 Normal termination of Gaussian 16 at Sun Dec 13 21:07:58 2020.
