 Gaussian 16, Revision A.03,

 -----------------------------------------------------------
 # opt freq B3LYP/6-31G(d) empiricaldispersion=gd3bj scf=xqc
 -----------------------------------------------------------

 ------------------------------
 CID_15176044_JID_7369_neutraal
 ------------------------------
 Symbolic Z-matrix:
 Charge =  0 Multiplicity = 1

 SCF Done:  E(RB3LYP) =  -1069.46029954     A.U. after   15 cycles
 SCF Done:  E(RB3LYP) =  -1069.46457285     A.U. after   12 cycles
 SCF Done:  E(RB3LYP) =  -1069.46598235     A.U. after   12 cycles
 SCF Done:  E(RB3LYP) =  -1069.46641052     A.U. after   12 cycles
 SCF Done:  E(RB3LYP) =  -1069.46666437     A.U. after   12 cycles
 SCF Done:  E(RB3LYP) =  -1069.46674898     A.U. after   11 cycles
 SCF Done:  E(RB3LYP) =  -1069.46678910     A.U. after   11 cycles
 SCF Done:  E(RB3LYP) =  -1069.46679489     A.U. after   10 cycles
 SCF Done:  E(RB3LYP) =  -1069.46679753     A.U. after    9 cycles
 SCF Done:  E(RB3LYP) =  -1069.46679813     A.U. after    9 cycles
 SCF Done:  E(RB3LYP) =  -1069.46685699     A.U. after   10 cycles
 SCF Done:  E(RB3LYP) =  -1069.46685837     A.U. after   10 cycles
 SCF Done:  E(RB3LYP) =  -1069.46685860     A.U. after    9 cycles
 SCF Done:  E(RB3LYP) =  -1069.46685869     A.U. after    8 cycles
 SCF Done:  E(RB3LYP) =  -1069.46685885     A.U. after    8 cycles
 SCF Done:  E(RB3LYP) =  -1069.46685890     A.U. after    8 cycles
 Optimization completed.
    -- Stationary point found.
 Normal termination of Gaussian 16 at Fri Dec 11 12:18:28 2020.

 --------------------------------------------------------------------
 #N Geom=AllCheck Guess=TCheck SCRF=Check GenChk RB3LYP/6-31G(d) Freq
 --------------------------------------------------------------------

 Structure from the checkpoint file:  "JID_7369.chk"
 ------------------------------
 CID_15176044_JID_7369_neutraal
 ------------------------------
 Charge =  0 Multiplicity = 1

 SCF Done:  E(RB3LYP) =  -1069.46685890     A.U. after    1 cycles

  Exact polarizability: 447.086 -12.246 158.654  -0.036   2.961  68.650
 Approx polarizability: 579.583 -31.898 288.457   2.433   7.971 106.957

                      1                      2                      3
                      A                      A                      A
 Frequencies --     17.9802                20.8127                35.0075
 Red. masses --      3.2254                 6.3957                 4.8480
 Frc consts  --      0.0006                 0.0016                 0.0035
 IR Inten    --      2.6899                 2.0284                 1.3294

                      4                      5                      6
                      A                      A                      A
 Frequencies --     38.2910                51.0776               106.3991
 Red. masses --      5.6843                 4.1397                 4.3742
 Frc consts  --      0.0049                 0.0064                 0.0292
 IR Inten    --      1.0626                 0.1298                 0.2676

                      7                      8                      9
                      A                      A                      A
 Frequencies --    127.1656               156.6770               171.3449
 Red. masses --      1.9302                 1.5762                 2.9719
 Frc consts  --      0.0184                 0.0228                 0.0514
 IR Inten    --      0.2707                 0.5228                 0.8732

                     10                     11                     12
                      A                      A                      A
 Frequencies --    178.5880               196.3944               251.6318
 Red. masses --      3.9482                 4.1113                 4.7959
 Frc consts  --      0.0742                 0.0934                 0.1789
 IR Inten    --      1.2251                 2.7047                 0.0671

                     13                     14                     15
                      A                      A                      A
 Frequencies --    293.2036               320.4559               357.6990
 Red. masses --      4.6525                 3.0787                 5.3978
 Frc consts  --      0.2357                 0.1863                 0.4069
 IR Inten    --      9.0860                 0.0415                 7.4359

                     16                     17                     18
                      A                      A                      A
 Frequencies --    401.0454               412.9200               442.8802
 Red. masses --      5.2488                 3.0038                 7.3582
 Frc consts  --      0.4974                 0.3018                 0.8503
 IR Inten    --      0.8759                 0.0139                 3.5655

                     19                     20                     21
                      A                      A                      A
 Frequencies --    491.0586               519.4435               538.0731
 Red. masses --      4.2130                 2.9922                 6.4672
 Frc consts  --      0.5986                 0.4757                 1.1032
 IR Inten    --      5.8681                 3.9192                 1.5716

                     22                     23                     24
                      A                      A                      A
 Frequencies --    635.7664               638.1573               639.0659
 Red. masses --      6.3729                 5.7287                 8.3581
 Frc consts  --      1.5177                 1.3745                 2.0112
 IR Inten    --      0.1704                 5.2994                 4.8266

                     25                     26                     27
                      A                      A                      A
 Frequencies --    697.8782               702.8723               706.5942
 Red. masses --      2.9125                 4.2893                 2.4986
 Frc consts  --      0.8357                 1.2485                 0.7350
 IR Inten    --      5.3580                 3.4957                14.8882

                     28                     29                     30
                      A                      A                      A
 Frequencies --    766.6921               788.1989               790.3909
 Red. masses --      1.6529                 1.4315                 4.7308
 Frc consts  --      0.5725                 0.5240                 1.7413
 IR Inten    --     38.0459                12.5755                33.5668

                     31                     32                     33
                      A                      A                      A
 Frequencies --    846.5106               858.0779               864.6102
 Red. masses --      1.4085                 1.6220                 4.5031
 Frc consts  --      0.5947                 0.7036                 1.9834
 IR Inten    --      3.1235                 9.7626                 5.1398

                     34                     35                     36
                      A                      A                      A
 Frequencies --    904.8997               928.7211               936.1812
 Red. masses --      1.7332                 1.6706                11.6578
 Frc consts  --      0.8362                 0.8490                 6.0198
 IR Inten    --      3.5950                 0.4053                59.4012

                     37                     38                     39
                      A                      A                      A
 Frequencies --    963.5604               976.9903               990.1654
 Red. masses --      1.3536                 1.1607                 8.4717
 Frc consts  --      0.7404                 0.6528                 4.8937
 IR Inten    --      0.0649                 1.0241                19.2049

                     40                     41                     42
                      A                      A                      A
 Frequencies --    994.8819               997.9171              1014.9028
 Red. masses --      1.2464                 1.1911                 1.3137
 Frc consts  --      0.7268                 0.6989                 0.7972
 IR Inten    --      0.0223                10.3500                15.0482

                     43                     44                     45
                      A                      A                      A
 Frequencies --   1018.6313              1043.7805              1048.1131
 Red. masses --      5.9629                 1.0972                 3.8515
 Frc consts  --      3.6454                 0.7043                 2.4928
 IR Inten    --      0.1712                51.6013                 6.5854

                     46                     47                     48
                      A                      A                      A
 Frequencies --   1061.1337              1110.3193              1115.3179
 Red. masses --      2.2086                 1.9977                 1.6547
 Frc consts  --      1.4652                 1.4510                 1.2127
 IR Inten    --      1.1257                40.2470                 6.3701

                     49                     50                     51
                      A                      A                      A
 Frequencies --   1185.5255              1194.8362              1217.7153
 Red. masses --      2.9146                 1.1015                 1.1632
 Frc consts  --      2.4135                 0.9265                 1.0162
 IR Inten    --     16.0257                 0.4549                 1.0189

                     52                     53                     54
                      A                      A                      A
 Frequencies --   1227.0078              1260.9221              1265.5109
 Red. masses --      1.8735                 2.4602                 1.5979
 Frc consts  --      1.6619                 2.3046                 1.5078
 IR Inten    --      1.3334                 0.2542                 1.2158

                     55                     56                     57
                      A                      A                      A
 Frequencies --   1333.6232              1345.4131              1353.7103
 Red. masses --      1.8888                 1.9978                 1.3619
 Frc consts  --      1.9793                 2.1306                 1.4704
 IR Inten    --      3.8847                 1.9026                16.4248

                     58                     59                     60
                      A                      A                      A
 Frequencies --   1374.9473              1380.9266              1390.8916
 Red. masses --      2.3275                 1.4829                 1.1869
 Frc consts  --      2.5924                 1.6661                 1.3528
 IR Inten    --      3.5418                18.9560                 5.7980

                     61                     62                     63
                      A                      A                      A
 Frequencies --   1463.6295              1477.6633              1494.7594
 Red. masses --      3.9881                 7.7466                 1.0665
 Frc consts  --      5.0336                 9.9658                 1.4040
 IR Inten    --    163.9683                36.2330                 9.2075

                     64                     65                     66
                      A                      A                      A
 Frequencies --   1501.8478              1512.1427              1547.9362
 Red. masses --      2.3419                 1.0557                 2.2187
 Frc consts  --      3.1122                 1.4222                 3.1322
 IR Inten    --      8.4859                30.8475                 4.3618

                     67                     68                     69
                      A                      A                      A
 Frequencies --   1591.3525              1634.5887              1660.0920
 Red. masses --      7.1457                 5.0854                 5.2819
 Frc consts  --     10.6618                 8.0056                 8.5764
 IR Inten    --    246.7333                 0.8970                 0.0465

                     70                     71                     72
                      A                      A                      A
 Frequencies --   1688.7060              1701.3931              3084.1753
 Red. masses --      5.5060                 4.8923                 1.0291
 Frc consts  --      9.2511                 8.3439                 5.7677
 IR Inten    --     11.1494                74.7046                18.4065

                     73                     74                     75
                      A                      A                      A
 Frequencies --   3151.8341              3163.9787              3174.1584
 Red. masses --      1.0892                 1.0876                 1.1060
 Frc consts  --      6.3749                 6.4147                 6.5657
 IR Inten    --      7.0541                14.4339                 5.0484

                     76                     77                     78
                      A                      A                      A
 Frequencies --   3174.2380              3180.5802              3183.2532
 Red. masses --      1.0923                 1.0860                 1.0862
 Frc consts  --      6.4843                 6.4726                 6.4846
 IR Inten    --      2.0521                 7.3411                28.6026

                     79                     80                     81
                      A                      A                      A
 Frequencies --   3186.1487              3187.4485              3197.3165
 Red. masses --      1.1078                 1.0868                 1.0908
 Frc consts  --      6.6257                 6.5057                 6.5701
 IR Inten    --      2.5527                 1.1826                14.4317

                     82                     83                     84
                      A                      A                      A
 Frequencies --   3206.5884              3214.2697              3292.9894
 Red. masses --      1.0931                 1.0976                 1.0982
 Frc consts  --      6.6219                 6.6812                 7.0165
 IR Inten    --     35.6413                31.5860                 0.6397

 - Thermochemistry -
 -------------------
 Temperature   298.150 Kelvin.  Pressure   1.00000 Atm.
 Atom     1 has atomic number  6 and mass  12.00000

 Molecular mass:   243.07179 amu.
 Principal axes and moments of inertia in atomic units:
                           1         2         3
     Eigenvalues --   703.46764********************
           X            0.99999   0.00317  -0.00249
           Y           -0.00317   0.99999  -0.00026
           Z            0.00249   0.00027   1.00000
 This molecule is an asymmetric top.
 Rotational symmetry number  1.
 Warning -- assumption of classical behavior for rotation
           may cause significant error
 Rotational temperatures (Kelvin)      0.12312     0.00464     0.00448
 Rotational constants (GHZ):           2.56549     0.09659     0.09342
 Zero-point vibrational energy     618293.5 (Joules/Mol)
                                  147.77569 (Kcal/Mol)
 Warning -- explicit consideration of  21 degrees of freedom as
           vibrations may cause significant error
 Vibrational temperatures:     25.87    29.94    50.37    55.09    73.49
          (Kelvin)            153.08   182.96   225.42   246.53   256.95
                              282.57   362.04   421.85   461.06   514.65
                              577.01   594.10   637.21   706.52   747.36
                              774.17   914.73   918.17   919.47  1004.09
                             1011.28  1016.63  1103.10  1134.04  1137.20
                             1217.94  1234.58  1243.98  1301.95  1336.22
                             1346.96  1386.35  1405.67  1424.63  1431.41
                             1435.78  1460.22  1465.58  1501.77  1508.00
                             1526.73  1597.50  1604.69  1705.71  1719.10
                             1752.02  1765.39  1814.19  1820.79  1918.79
                             1935.75  1947.69  1978.24  1986.85  2001.18
                             2105.84  2126.03  2150.63  2160.82  2175.64
                             2227.14  2289.60  2351.81  2388.50  2429.67
                             2447.93  4437.44  4534.79  4552.26  4566.91
                             4567.02  4576.15  4579.99  4584.16  4586.03
                             4600.23  4613.57  4624.62  4737.88

 Zero-point correction=                           0.235496 (Hartree/Particle)
 Thermal correction to Energy=                    0.251606
 Thermal correction to Enthalpy=                  0.252550
 Thermal correction to Gibbs Free Energy=         0.187735
 Sum of electronic and zero-point Energies=          -1069.231363
 Sum of electronic and thermal Energies=             -1069.215253
 Sum of electronic and thermal Enthalpies=           -1069.214309
 Sum of electronic and thermal Free Energies=        -1069.279124

                     E (Thermal)             CV                S
                      KCal/Mol        Cal/Mol-Kelvin    Cal/Mol-Kelvin
 Total                  157.885             59.006            136.416
 Electronic               0.000              0.000              0.000
 Translational            0.889              2.981             42.366
 Rotational               0.889              2.981             33.895
 Vibrational            156.108             53.044             60.155
 Vibration     1          0.593              1.986              6.846
 Vibration     2          0.593              1.986              6.555
 Vibration     3          0.594              1.982              5.523
 Vibration     4          0.594              1.982              5.346
 Vibration     5          0.595              1.977              4.775
 Vibration     6          0.605              1.944              3.334
 Vibration     7          0.611              1.926              2.988
 Vibration     8          0.620              1.895              2.590
 Vibration     9          0.626              1.878              2.421
 Vibration    10          0.629              1.869              2.343
 Vibration    11          0.636              1.845              2.167
 Vibration    12          0.664              1.760              1.719
 Vibration    13          0.688              1.686              1.455
 Vibration    14          0.706              1.634              1.308
 Vibration    15          0.733              1.559              1.132
 Vibration    16          0.767              1.468              0.959
 Vibration    17          0.777              1.442              0.916
 Vibration    18          0.803              1.377              0.818
 Vibration    19          0.847              1.270              0.681
 Vibration    20          0.874              1.207              0.611
 Vibration    21          0.893              1.166              0.569

 Optimization completed.
    -- Stationary point found.
 Normal termination of Gaussian 16 at Fri Dec 11 12:26:35 2020.

 ----------------------------------------------------------------------
 # B3LYP/6-311++G(d,p) empiricaldispersion=gd3bj scf=xqc pop=npa geom=c
 heck
 ----------------------------------------------------------------------

 --------------------------------------
 CID_15176044_JID_7369_Energie_neutraal
 --------------------------------------
 Structure from the checkpoint file:  "JID_7369.chk"
 Charge =  0 Multiplicity = 1

 SCF Done:  E(RB3LYP) =  -1069.66756404     A.U. after   15 cycles
 Normal termination of Gaussian 16 at Fri Dec 11 12:30:57 2020.

 ----------------------------------------------------------------------
 # B3LYP/6-311++G(d,p) empiricaldispersion=gd3bj scf=xqc pop=npa geom=c
 heck
 ----------------------------------------------------------------------

 ------------------------------------
 CID_15176044_JID_7369_Energie_kation
 ------------------------------------
 Structure from the checkpoint file:  "JID_7369.chk"
 Charge =  1 Multiplicity = 2

 SCF Done:  E(UB3LYP) =  -1069.40008236     A.U. after   27 cycles
 Normal termination of Gaussian 16 at Fri Dec 11 12:42:40 2020.
 Gaussian 16:  ES64L-G16RevA.03 25-Dec-2016

 ----------------------------------------------------------------------
 # B3LYP/6-311++G(d,p) empiricaldispersion=gd3bj scf=xqc pop=npa geom=c
 heck
 ----------------------------------------------------------------------

 -----------------------------------
 CID_15176044_JID_7369_Energie_anion
 -----------------------------------
 Structure from the checkpoint file:  "JID_7369.chk"
 Charge = -1 Multiplicity = 2

                         Standard orientation:
 ---------------------------------------------------------------------
 Center     Atomic      Atomic             Coordinates (Angstroms)
 Number     Number       Type             X           Y           Z
 ---------------------------------------------------------------------
      1          6           0       -6.614110   -0.955418    0.579035
      2         16           0       -5.981331    0.591083   -0.174226
      3          6           0       -4.255921    0.291986   -0.095852
      4          6           0       -3.197261    1.147799   -0.012654
      5          6           0       -2.053666    0.291762   -0.067288
      6          7           0       -2.405974   -0.982218   -0.160043
      7          8           0       -3.810387   -0.980664   -0.192532
      8          6           0       -0.659448    0.705263   -0.012193
      9          6           0        0.393435   -0.140914   -0.058901
     10          6           0        1.768585    0.281913   -0.004023
     11          6           0        2.809445   -0.580945   -0.052452
     12          6           0        4.232460   -0.260382   -0.004374
     13          6           0        5.166398   -1.310963   -0.065644
     14          6           0        6.535791   -1.062841   -0.023424
     15          6           0        7.005598    0.246528    0.081336
     16          6           0        6.091825    1.303141    0.143146
     17          6           0        4.724885    1.055244    0.100989
     18          1           0       -7.702588   -0.864807    0.575396
     19          1           0       -6.256822   -1.058097    1.605462
     20          1           0       -6.314695   -1.821014   -0.012538
     21          1           0       -3.219490    2.221499    0.092831
     22          1           0       -0.487876    1.776362    0.071170
     23          1           0        0.200166   -1.209029   -0.143337
     24          1           0        1.946483    1.352963    0.080580
     25          1           0        2.577928   -1.642705   -0.136902
     26          1           0        4.804252   -2.332797   -0.147309
     27          1           0        7.236079   -1.891916   -0.072368
     28          1           0        8.072972    0.444714    0.114534
     29          1           0        6.449598    2.325792    0.224526
     30          1           0        4.032090    1.889506    0.149917
 ---------------------------------------------------------------------

 SCF Done:  E(UB3LYP) =  -1069.69733469     A.U. after   26 cycles

 The electronic state is 2-A.
 Alpha  occ. eigenvalues --  -88.77253 -19.07780 -14.20943 -10.14504 -10.11987
 Alpha  occ. eigenvalues --  -10.07705 -10.06338 -10.05873 -10.05759 -10.05406
 Alpha  occ. eigenvalues --  -10.04943 -10.04931 -10.04731 -10.02932 -10.02789
 Alpha  occ. eigenvalues --  -10.02572 -10.02419  -7.85844  -5.82256  -5.81866
 Alpha  occ. eigenvalues --   -5.81208  -1.01463  -0.75213  -0.73783  -0.71925
 Alpha  occ. eigenvalues --   -0.67352  -0.66364  -0.63864  -0.62863  -0.58857
 Alpha  occ. eigenvalues --   -0.57515  -0.51745  -0.49021  -0.48253  -0.47022
 Alpha  occ. eigenvalues --   -0.42918  -0.40704  -0.40071  -0.38743  -0.36162
 Alpha  occ. eigenvalues --   -0.35308  -0.34704  -0.34246  -0.34037  -0.32479
 Alpha  occ. eigenvalues --   -0.31330  -0.30421  -0.29753  -0.27494  -0.26708
 Alpha  occ. eigenvalues --   -0.25780  -0.25594  -0.24909  -0.23074  -0.22204
 Alpha  occ. eigenvalues --   -0.21802  -0.21247  -0.19390  -0.18622  -0.17341
 Alpha  occ. eigenvalues --   -0.14388  -0.14134  -0.12331  -0.07879   0.02047
 Alpha virt. eigenvalues --    0.05693   0.07575   0.08301   0.08916   0.09063
 Alpha virt. eigenvalues --    0.09465   0.09988   0.10132   0.10630   0.10813
 Alpha virt. eigenvalues --    0.11522   0.11811   0.12381   0.12663   0.13974

  Beta  occ. eigenvalues --  -88.77253 -19.07594 -14.20514 -10.14492 -10.11975
  Beta  occ. eigenvalues --  -10.07707 -10.06355 -10.05936 -10.05794 -10.05385
  Beta  occ. eigenvalues --  -10.04835 -10.04747 -10.04593 -10.02851 -10.02665
  Beta  occ. eigenvalues --  -10.02336 -10.02152  -7.85844  -5.82254  -5.81867
  Beta  occ. eigenvalues --   -5.81209  -1.01097  -0.74822  -0.73577  -0.71810
  Beta  occ. eigenvalues --   -0.66909  -0.66203  -0.63475  -0.62694  -0.58442
  Beta  occ. eigenvalues --   -0.57433  -0.51160  -0.48930  -0.48115  -0.46795
  Beta  occ. eigenvalues --   -0.42689  -0.40502  -0.39983  -0.38544  -0.35915
  Beta  occ. eigenvalues --   -0.35241  -0.34464  -0.33933  -0.33782  -0.32323
  Beta  occ. eigenvalues --   -0.31212  -0.30355  -0.29623  -0.27346  -0.26544
  Beta  occ. eigenvalues --   -0.25509  -0.25177  -0.24752  -0.22931  -0.22083
  Beta  occ. eigenvalues --   -0.21102  -0.20648  -0.18940  -0.17542  -0.16834
  Beta  occ. eigenvalues --   -0.13711  -0.13438  -0.11504  -0.06162
  Beta virt. eigenvalues --    0.05665   0.07106   0.07555   0.08373   0.08916
  Beta virt. eigenvalues --    0.09426   0.09854   0.10019   0.10362   0.10631
  Beta virt. eigenvalues --    0.10786   0.11609   0.11959   0.12437   0.13242

 Mulliken charges and spin densities:
               1          2
     1  C   -0.496647  -0.042102
     2  S   -0.707369   0.023319
     3  C    0.088131   0.019247
     4  C   -0.017689   0.002519
     5  C    0.370307  -0.004024
     6  N   -0.554954   0.207781
     7  O    0.311681   0.038639
     8  C   -0.017791   0.171151
     9  C   -0.251757   0.104606
    10  C   -0.046445   0.058515
    11  C   -0.233808   0.169914
    12  C    1.407989  -0.011189
    13  C    0.146208   0.090109
    14  C   -0.344541  -0.021110
    15  C   -0.435065   0.156398
    16  C   -0.318642  -0.042994
    17  C   -1.318228   0.114750
    18  H    0.129232   0.006055
    19  H    0.171536   0.011755
    20  H    0.190887   0.007554
    21  H    0.158501   0.001683
    22  H    0.098847  -0.015378
    23  H    0.142914  -0.005754
    24  H   -0.048408  -0.007592
    25  H    0.021458  -0.016515
    26  H    0.129931  -0.003020
    27  H    0.122468   0.001082
    28  H    0.098053  -0.011908
    29  H    0.150457   0.003136
    30  H    0.052743  -0.006624
 Sum of Mulliken charges =  -1.00000   1.00000

 Dipole moment (field-independent basis, Debye):
    X=             -4.9789    Y=              1.2809    Z=              0.9241  Tot=              5.2235
 Quadrupole moment (field-independent basis, Debye-Ang):
   XX=           -190.6516   YY=           -112.3081   ZZ=           -121.0406
   XY=              1.3190   XZ=             -5.2673   YZ=             -0.0919

 Summary of Natural Population Analysis:

                                       Natural Population
                Natural  -----------------------------------------------
    Atom  No    Charge         Core      Valence    Rydberg      Total
 -----------------------------------------------------------------------
      C    1   -0.34460      0.99962     2.33951    0.00548     3.34460
      S    2    0.11183      4.99953     2.86564    0.02300     7.88817
      C    3    0.07017      0.99945     1.91399    0.01640     2.92983
      C    4   -0.16877      0.99936     2.16074    0.00867     3.16877
      C    5    0.05877      0.99960     1.92757    0.01405     2.94123
      N    6   -0.02542      0.99968     2.51230    0.01344     3.52542
      O    7   -0.16987      0.99984     3.15896    0.01107     4.16987
      C    8   -0.07653      0.99951     2.06774    0.00928     3.07653
      C    9   -0.06518      0.99956     2.05618    0.00944     3.06518
      C   10   -0.07687      0.99941     2.07002    0.00744     3.07687
      C   11   -0.04944      0.99955     2.03995    0.00994     3.04944
      C   12   -0.03317      0.99952     2.02434    0.00931     3.03317
      C   13   -0.06876      0.99943     2.06085    0.00849     3.06876
      C   14   -0.12271      0.99960     2.11331    0.00980     3.12271
      C   15   -0.08026      0.99957     2.07084    0.00985     3.08026
      C   16   -0.12131      0.99958     2.11239    0.00934     3.12131
      C   17   -0.06733      0.99953     2.05990    0.00789     3.06733
      H   18    0.10092      0.00000     0.39827    0.00081     0.39908
      H   19    0.10424      0.00000     0.39459    0.00117     0.39576
      H   20    0.10753      0.00000     0.38917    0.00330     0.39247
      H   21    0.10791      0.00000     0.39102    0.00107     0.39209
      H   22    0.08618      0.00000     0.41294    0.00088     0.41382
      H   23    0.09535      0.00000     0.40295    0.00171     0.40465
      H   24    0.08351      0.00000     0.41428    0.00221     0.41649
      H   25    0.08401      0.00000     0.41429    0.00170     0.41599
      H   26    0.09208      0.00000     0.40627    0.00165     0.40792
      H   27    0.09210      0.00000     0.40681    0.00109     0.40790
      H   28    0.08937      0.00000     0.40958    0.00105     0.41063
      H   29    0.09220      0.00000     0.40677    0.00103     0.40780
      H   30    0.09410      0.00000     0.40453    0.00137     0.40590
 =======================================================================
   * Total *    0.00004     20.99235    42.80569    0.20192    63.99996

 Normal termination of Gaussian 16 at Fri Dec 11 12:55:48 2020.
