 Gaussian 16, Revision A.03,

 -----------------------------------------------------------
 # opt freq B3LYP/6-31G(d) empiricaldispersion=gd3bj scf=xqc
 -----------------------------------------------------------

 -------------------------------
 CID_130647094_JID_2626_neutraal
 -------------------------------
 Symbolic Z-matrix:
 Charge =  0 Multiplicity = 1

 SCF Done:  E(RB3LYP) =  -553.376253595     A.U. after   14 cycles
 SCF Done:  E(RB3LYP) =  -553.386183943     A.U. after   12 cycles
 SCF Done:  E(RB3LYP) =  -553.386829891     A.U. after   12 cycles
 SCF Done:  E(RB3LYP) =  -553.387469550     A.U. after   11 cycles
 SCF Done:  E(RB3LYP) =  -553.387627143     A.U. after   11 cycles
 SCF Done:  E(RB3LYP) =  -553.387661450     A.U. after    9 cycles
 SCF Done:  E(RB3LYP) =  -553.387673659     A.U. after    9 cycles
 SCF Done:  E(RB3LYP) =  -553.387682311     A.U. after    8 cycles
 SCF Done:  E(RB3LYP) =  -553.387690072     A.U. after    9 cycles
 SCF Done:  E(RB3LYP) =  -553.387692413     A.U. after    8 cycles
 SCF Done:  E(RB3LYP) =  -553.387695160     A.U. after    8 cycles
 SCF Done:  E(RB3LYP) =  -553.387696476     A.U. after    8 cycles
 SCF Done:  E(RB3LYP) =  -553.387696853     A.U. after    8 cycles
 SCF Done:  E(RB3LYP) =  -553.387696909     A.U. after    6 cycles
 Optimization completed.
    -- Stationary point found.
 Normal termination of Gaussian 16 at Wed Dec  9 17:45:00 2020.

 --------------------------------------------------------------------
 #N Geom=AllCheck Guess=TCheck SCRF=Check GenChk RB3LYP/6-31G(d) Freq
 --------------------------------------------------------------------

 Structure from the checkpoint file:  "JID_2626.chk"
 -------------------------------
 CID_130647094_JID_2626_neutraal
 -------------------------------
 Charge =  0 Multiplicity = 1

 SCF Done:  E(RB3LYP) =  -553.387696909     A.U. after    1 cycles

  Exact polarizability: 125.379   2.729 103.269  -1.129   1.662  80.231
 Approx polarizability: 150.076   6.033 156.264  -5.029   1.363 122.160

                      1                      2                      3
                      A                      A                      A
 Frequencies --     55.7339                68.5465               116.7168
 Red. masses --      3.1554                 3.0438                 2.5880
 Frc consts  --      0.0058                 0.0084                 0.0208
 IR Inten    --      1.5492                 0.9073                 0.8062

                      4                      5                      6
                      A                      A                      A
 Frequencies --    132.0493               155.7896               183.8686
 Red. masses --      5.5636                 3.0067                 3.4322
 Frc consts  --      0.0572                 0.0430                 0.0684
 IR Inten    --      1.6298                 3.0892                 4.7802

                      7                      8                      9
                      A                      A                      A
 Frequencies --    239.6107               302.8089               312.3413
 Red. masses --      1.1309                 4.8473                 2.2367
 Frc consts  --      0.0383                 0.2619                 0.1286
 IR Inten    --      0.7856                 9.3822                 3.7436

                     10                     11                     12
                      A                      A                      A
 Frequencies --    333.7569               366.3003               417.2525
 Red. masses --      2.0481                 2.4026                 3.2860
 Frc consts  --      0.1344                 0.1899                 0.3371
 IR Inten    --      4.6924                 6.0016                 2.1790

                     13                     14                     15
                      A                      A                      A
 Frequencies --    472.8960               494.7640               537.5055
 Red. masses --      2.6651                 2.7536                 1.2648
 Frc consts  --      0.3511                 0.3971                 0.2153
 IR Inten    --     13.3312                 5.9661                74.9886

                     16                     17                     18
                      A                      A                      A
 Frequencies --    566.9618               603.8048               696.7584
 Red. masses --      4.5684                 2.9302                 2.2181
 Frc consts  --      0.8652                 0.6294                 0.6344
 IR Inten    --      8.0539                24.8803                10.4383

                     19                     20                     21
                      A                      A                      A
 Frequencies --    746.4668               759.9337               863.0296
 Red. masses --      3.6824                 9.6778                 3.2257
 Frc consts  --      1.2089                 3.2929                 1.4155
 IR Inten    --      2.0842                38.1108                 4.4728

                     22                     23                     24
                      A                      A                      A
 Frequencies --    910.6137               919.7315               920.4015
 Red. masses --      1.2275                 1.8230                 1.6037
 Frc consts  --      0.5997                 0.9086                 0.8004
 IR Inten    --      1.4628                 1.7722                 0.9042

                     25                     26                     27
                      A                      A                      A
 Frequencies --    959.9552               994.3651              1002.5291
 Red. masses --      3.0506                 2.6413                 2.2708
 Frc consts  --      1.6563                 1.5387                 1.3447
 IR Inten    --      4.7555                14.5254                 4.7576

                     28                     29                     30
                      A                      A                      A
 Frequencies --   1017.0499              1055.8966              1109.9688
 Red. masses --      2.6480                 2.4469                 1.5965
 Frc consts  --      1.6138                 1.6074                 1.1589
 IR Inten    --      1.1457                 7.2127                 3.1398

                     31                     32                     33
                      A                      A                      A
 Frequencies --   1125.1072              1142.6370              1151.8079
 Red. masses --      1.8686                 1.1380                 1.7360
 Frc consts  --      1.3936                 0.8754                 1.3570
 IR Inten    --     15.5342                 6.2073                 9.4767

                     34                     35                     36
                      A                      A                      A
 Frequencies --   1172.1444              1206.0878              1213.5705
 Red. masses --      1.6124                 2.0001                 2.3300
 Frc consts  --      1.3053                 1.7142                 2.0218
 IR Inten    --     12.7326                34.4416                28.1854

                     37                     38                     39
                      A                      A                      A
 Frequencies --   1233.2269              1234.4400              1243.4336
 Red. masses --      1.3433                 1.7671                 1.5313
 Frc consts  --      1.2036                 1.5865                 1.3949
 IR Inten    --      7.1753                12.4130                 6.0285

                     40                     41                     42
                      A                      A                      A
 Frequencies --   1255.9020              1274.2611              1297.1628
 Red. masses --      1.8512                 2.1779                 1.7414
 Frc consts  --      1.7203                 2.0836                 1.7264
 IR Inten    --     64.5717                 8.6242                29.7265

                     43                     44                     45
                      A                      A                      A
 Frequencies --   1314.8490              1318.8866              1346.4462
 Red. masses --      1.2321                 1.6451                 1.7913
 Frc consts  --      1.2551                 1.6860                 1.9134
 IR Inten    --     21.1430                17.4766                96.1874

                     46                     47                     48
                      A                      A                      A
 Frequencies --   1353.9586              1401.4549              1409.4680
 Red. masses --      1.5822                 1.4466                 1.6282
 Frc consts  --      1.7090                 1.6740                 1.9058
 IR Inten    --     70.5947                23.4295                43.2023

                     49                     50                     51
                      A                      A                      A
 Frequencies --   1419.6833              1470.9475              1475.0081
 Red. masses --      1.5626                 1.5613                 1.1964
 Frc consts  --      1.8556                 1.9903                 1.5336
 IR Inten    --     31.1953                30.6585                 4.2366

                     52                     53                     54
                      A                      A                      A
 Frequencies --   1500.7743              1509.5856              1514.9184
 Red. masses --      1.7723                 1.1570                 1.0558
 Frc consts  --      2.3519                 1.5535                 1.4276
 IR Inten    --    127.5191                15.7530                11.2589

                     55                     56                     57
                      A                      A                      A
 Frequencies --   1523.9080              1528.0830              1552.0550
 Red. masses --      1.0815                 1.0493                 1.1325
 Frc consts  --      1.4798                 1.4437                 1.6073
 IR Inten    --      0.9570                 2.6534                14.6412

                     58                     59                     60
                      A                      A                      A
 Frequencies --   1554.1761              1557.2948              1780.5718
 Red. masses --      1.1260                 1.2165                 7.9606
 Frc consts  --      1.6025                 1.7382                14.8702
 IR Inten    --     23.7298                49.9142               363.5036

                     61                     62                     63
                      A                      A                      A
 Frequencies --   2930.7675              2959.2397              2975.6777
 Red. masses --      1.0612                 1.0689                 1.0741
 Frc consts  --      5.3705                 5.5149                 5.6038
 IR Inten    --     80.1991                61.4410                33.8021

                     64                     65                     66
                      A                      A                      A
 Frequencies --   2990.2565              3013.1491              3038.7958
 Red. masses --      1.0731                 1.0713                 1.0831
 Frc consts  --      5.6532                 5.7307                 5.8925
 IR Inten    --     97.4304                34.1961                50.0032

                     67                     68                     69
                      A                      A                      A
 Frequencies --   3068.1036              3071.4610              3075.5266
 Red. masses --      1.0657                 1.0733                 1.0912
 Frc consts  --      5.9102                 5.9660                 6.0812
 IR Inten    --      7.1556                42.2615                70.6137

                     70                     71                     72
                      A                      A                      A
 Frequencies --   3082.1537              3098.0900              3114.9994
 Red. masses --      1.0862                 1.0877                 1.1038
 Frc consts  --      6.0797                 6.1512                 6.3102
 IR Inten    --     55.9150                32.6069                27.3573

                     73                     74                     75
                      A                      A                      A
 Frequencies --   3118.8412              3137.5961              3624.4227
 Red. masses --      1.1062                 1.0964                 1.0764
 Frc consts  --      6.3395                 6.3594                 8.3308
 IR Inten    --     32.1084                29.7052                32.0595

 - Thermochemistry -
 -------------------
 Temperature   298.150 Kelvin.  Pressure   1.00000 Atm.
 Atom     1 has atomic number  6 and mass  12.00000

 Molecular mass:   169.12151 amu.
 Principal axes and moments of inertia in atomic units:
                           1         2         3
     Eigenvalues --   895.787423176.014143775.22999
           X            0.99991   0.00998   0.00847
           Y           -0.01001   0.99995   0.00269
           Z           -0.00844  -0.00277   0.99996
 This molecule is an asymmetric top.
 Rotational symmetry number  1.
 Warning -- assumption of classical behavior for rotation
           may cause significant error
 Rotational temperatures (Kelvin)      0.09669     0.02727     0.02294
 Rotational constants (GHZ):           2.01470     0.56824     0.47805
 Zero-point vibrational energy     626235.1 (Joules/Mol)
                                  149.67379 (Kcal/Mol)
 Warning -- explicit consideration of  17 degrees of freedom as
           vibrations may cause significant error
 Vibrational temperatures:     80.19    98.62   167.93   189.99   224.15
          (Kelvin)            264.55   344.75   435.67   449.39   480.20
                              527.02   600.33   680.39   711.85   773.35
                              815.73   868.74  1002.48  1074.00  1093.38
                             1241.71  1310.17  1323.29  1324.25  1381.16
                             1430.67  1442.42  1463.31  1519.20  1597.00
                             1618.78  1644.00  1657.19  1686.45  1735.29
                             1746.06  1774.34  1776.08  1789.02  1806.96
                             1833.38  1866.33  1891.77  1897.58  1937.24
                             1948.04  2016.38  2027.91  2042.61  2116.37
                             2122.21  2159.28  2171.96  2179.63  2192.56
                             2198.57  2233.06  2236.11  2240.60  2561.85
                             4216.72  4257.69  4281.34  4302.31  4335.25
                             4372.15  4414.32  4419.15  4425.00  4434.53
                             4457.46  4481.79  4487.32  4514.30  5214.74

 Zero-point correction=                           0.238520 (Hartree/Particle)
 Thermal correction to Energy=                    0.249940
 Thermal correction to Enthalpy=                  0.250884
 Thermal correction to Gibbs Free Energy=         0.200930
 Sum of electronic and zero-point Energies=           -553.149177
 Sum of electronic and thermal Energies=              -553.137757
 Sum of electronic and thermal Enthalpies=            -553.136813
 Sum of electronic and thermal Free Energies=         -553.186767

                     E (Thermal)             CV                S
                      KCal/Mol        Cal/Mol-Kelvin    Cal/Mol-Kelvin
 Total                  156.840             43.444            105.137
 Electronic               0.000              0.000              0.000
 Translational            0.889              2.981             41.284
 Rotational               0.889              2.981             30.752
 Vibrational            155.062             37.482             33.100
 Vibration     1          0.596              1.975              4.603
 Vibration     2          0.598              1.969              4.195
 Vibration     3          0.608              1.935              3.154
 Vibration     4          0.612              1.921              2.916
 Vibration     5          0.620              1.896              2.600
 Vibration     6          0.631              1.862              2.289
 Vibration     7          0.657              1.780              1.806
 Vibration     8          0.694              1.668              1.401
 Vibration     9          0.701              1.650              1.350
 Vibration    10          0.715              1.608              1.242
 Vibration    11          0.739              1.542              1.095
 Vibration    12          0.780              1.433              0.901
 Vibration    13          0.830              1.310              0.729
 Vibration    14          0.850              1.262              0.671
 Vibration    15          0.893              1.167              0.571
 Vibration    16          0.923              1.103              0.510
 Vibration    17          0.962              1.024              0.443

 Optimization completed.
    -- Stationary point found.
 Normal termination of Gaussian 16 at Wed Dec  9 17:51:19 2020.

 ----------------------------------------------------------------------
 # B3LYP/6-311++G(d,p) empiricaldispersion=gd3bj scf=xqc pop=npa geom=c
 heck
 ----------------------------------------------------------------------

 ---------------------------------------
 CID_130647094_JID_2626_Energie_neutraal
 ---------------------------------------
 Structure from the checkpoint file:  "JID_2626.chk"
 Charge =  0 Multiplicity = 1

 SCF Done:  E(RB3LYP) =  -553.545731025     A.U. after   14 cycles
 Normal termination of Gaussian 16 at Wed Dec  9 17:53:47 2020.

 ----------------------------------------------------------------------
 # B3LYP/6-311++G(d,p) empiricaldispersion=gd3bj scf=xqc pop=npa geom=c
 heck
 ----------------------------------------------------------------------

 -------------------------------------
 CID_130647094_JID_2626_Energie_kation
 -------------------------------------
 Structure from the checkpoint file:  "JID_2626.chk"
 Charge =  1 Multiplicity = 2

 SCF Done:  E(UB3LYP) =  -553.256354989     A.U. after   23 cycles
 Normal termination of Gaussian 16 at Wed Dec  9 17:58:39 2020.
 Gaussian 16:  ES64L-G16RevA.03 25-Dec-2016

 ----------------------------------------------------------------------
 # B3LYP/6-311++G(d,p) empiricaldispersion=gd3bj scf=xqc pop=npa geom=c
 heck
 ----------------------------------------------------------------------

 ------------------------------------
 CID_130647094_JID_2626_Energie_anion
 ------------------------------------
 Structure from the checkpoint file:  "JID_2626.chk"
 Charge = -1 Multiplicity = 2

                         Standard orientation:
 ---------------------------------------------------------------------
 Center     Atomic      Atomic             Coordinates (Angstroms)
 Number     Number       Type             X           Y           Z
 ---------------------------------------------------------------------
      1          6           0        3.895808   -0.232928    0.817856
      2          7           0        2.912173   -0.065358   -0.228263
      3          6           0        1.879203   -1.104954   -0.373043
      4          6           0        0.868666    0.009504   -0.733158
      5          6           0        1.863710    0.962570   -0.042529
      6          7           0       -0.464572   -0.119475   -0.174198
      7          6           0       -1.150295   -1.387904   -0.411741
      8          6           0       -2.386675   -1.494323    0.474349
      9          6           0       -3.297130   -0.298562    0.219384
     10          7           0       -2.512214    0.919882    0.345051
     11          6           0       -1.187661    1.055815   -0.026787
     12          8           0       -0.676515    2.166027   -0.151323
     13          1           0        3.443048   -0.397968    1.816062
     14          1           0        4.527895    0.660353    0.873990
     15          1           0        4.540357   -1.089531    0.588667
     16          1           0        2.097319   -1.884576   -1.112653
     17          1           0        1.608078   -1.578217    0.588381
     18          1           0        0.835908    0.187262   -1.816309
     19          1           0        1.586765    1.116266    1.011986
     20          1           0        2.057988    1.928633   -0.512378
     21          1           0       -0.453083   -2.200382   -0.186024
     22          1           0       -1.433954   -1.491691   -1.473388
     23          1           0       -2.077746   -1.504624    1.525364
     24          1           0       -2.920399   -2.426926    0.264333
     25          1           0       -4.114149   -0.270299    0.948868
     26          1           0       -3.752932   -0.385121   -0.780652
     27          1           0       -2.994437    1.807954    0.330216
 ---------------------------------------------------------------------

 SCF Done:  E(UB3LYP) =  -553.533928346     A.U. after   30 cycles

 The electronic state is 2-A.
 Alpha  occ. eigenvalues --  -18.97251 -14.23141 -14.22233 -14.20947 -10.18517
 Alpha  occ. eigenvalues --  -10.11217 -10.10366 -10.10115 -10.09919 -10.09794
 Alpha  occ. eigenvalues --  -10.09347 -10.07040  -0.94227  -0.85938  -0.83533
 Alpha  occ. eigenvalues --   -0.80245  -0.68304  -0.66453  -0.59472  -0.58077
 Alpha  occ. eigenvalues --   -0.55996  -0.51977  -0.46947  -0.44893  -0.41304
 Alpha  occ. eigenvalues --   -0.40528  -0.39984  -0.38344  -0.36768  -0.35446
 Alpha  occ. eigenvalues --   -0.34170  -0.32585  -0.31673  -0.31496  -0.30460
 Alpha  occ. eigenvalues --   -0.29806  -0.27325  -0.25838  -0.25035  -0.24541
 Alpha  occ. eigenvalues --   -0.24185  -0.22795  -0.16463  -0.14995  -0.14012
 Alpha  occ. eigenvalues --   -0.12614   0.04428
 Alpha virt. eigenvalues --    0.06264   0.07470   0.08176   0.08826   0.09221
 Alpha virt. eigenvalues --    0.09680   0.10489   0.11157   0.11375   0.11931
 Alpha virt. eigenvalues --    0.12059   0.13068   0.13966   0.14420   0.14773

  Beta  occ. eigenvalues --  -18.97235 -14.23142 -14.22226 -14.20942 -10.18508
  Beta  occ. eigenvalues --  -10.11212 -10.10334 -10.10068 -10.09897 -10.09779
  Beta  occ. eigenvalues --  -10.09345 -10.07004  -0.94200  -0.85925  -0.83510
  Beta  occ. eigenvalues --   -0.80221  -0.68259  -0.66421  -0.59417  -0.58037
  Beta  occ. eigenvalues --   -0.55954  -0.51903  -0.46896  -0.44850  -0.41255
  Beta  occ. eigenvalues --   -0.40481  -0.39953  -0.38295  -0.36715  -0.35425
  Beta  occ. eigenvalues --   -0.34140  -0.32537  -0.31636  -0.31439  -0.30431
  Beta  occ. eigenvalues --   -0.29778  -0.27283  -0.25805  -0.24974  -0.24480
  Beta  occ. eigenvalues --   -0.24156  -0.22771  -0.16442  -0.14941  -0.13999
  Beta  occ. eigenvalues --   -0.12594
  Beta virt. eigenvalues --    0.06481   0.07464   0.08384   0.08689   0.09394
  Beta virt. eigenvalues --    0.09761   0.10160   0.11061   0.11562   0.11766
  Beta virt. eigenvalues --    0.12199   0.12403   0.13469   0.14204   0.14763

 Mulliken charges and spin densities:
               1          2
     1  C    0.071571  -0.420105
     2  N   -0.132084   0.105468
     3  C    0.443577  -0.846379
     4  C   -0.378552   0.270921
     5  C   -0.269625  -0.134870
     6  N    0.036607   0.112436
     7  C    1.005472  -1.250554
     8  C   -0.459329   0.052486
     9  C    1.641462  -1.964828
    10  N   -0.549323   0.300572
    11  C    0.174419  -0.023125
    12  O   -0.382945   0.010909
    13  H   -0.032222   0.137833
    14  H    0.025358   0.101209
    15  H   -0.113128   0.244984
    16  H   -0.260691   0.450456
    17  H    0.128525   0.006354
    18  H    0.182397   0.020876
    19  H    0.146021   0.016365
    20  H    0.191677   0.017088
    21  H   -0.554317   0.702947
    22  H   -0.150356   0.320836
    23  H    0.111034   0.055531
    24  H   -0.690865   0.876485
    25  H   -0.942864   1.121406
    26  H   -0.266143   0.433516
    27  H    0.024324   0.281182
 Sum of Mulliken charges =  -1.00000   1.00000

 Dipole moment (field-independent basis, Debye):
    X=              6.0223    Y=              3.3221    Z=              0.2434  Tot=              6.8821
 Quadrupole moment (field-independent basis, Debye-Ang):
   XX=           -149.7254   YY=           -121.8553   ZZ=           -101.2458
   XY=             -6.7868   XZ=              3.8977   YZ=             -2.6792

 Summary of Natural Population Analysis:

                                       Natural Population
                Natural  -----------------------------------------------
    Atom  No    Charge         Core      Valence    Rydberg      Total
 -----------------------------------------------------------------------
      C    1   -0.17401      0.99965     2.16748    0.00688     3.17401
      N    2   -0.28121      0.99973     2.76926    0.01222     3.78121
      C    3   -0.08399      0.99963     2.07119    0.01318     3.08399
      C    4   -0.00661      0.99956     1.99350    0.01355     3.00661
      C    5   -0.07257      0.99963     2.06311    0.00983     3.07257
      N    6   -0.27296      0.99962     2.76300    0.01034     3.77296
      C    7   -0.08062      0.99961     2.07005    0.01096     3.08062
      C    8   -0.19717      0.99963     2.18805    0.00949     3.19717
      C    9   -0.08264      0.99962     2.07192    0.01110     3.08264
      N   10   -0.33024      0.99968     2.82054    0.01002     3.83024
      C   11    0.41438      0.99967     1.56294    0.02301     2.58562
      O   12   -0.34411      0.99988     3.33902    0.00520     4.34411
      H   13    0.07835      0.00000     0.41971    0.00193     0.42165
      H   14    0.09272      0.00000     0.40619    0.00109     0.40728
      H   15    0.09409      0.00000     0.40459    0.00132     0.40591
      H   16    0.09456      0.00000     0.40375    0.00170     0.40544
      H   17    0.08598      0.00000     0.41226    0.00176     0.41402
      H   18    0.09318      0.00000     0.40552    0.00130     0.40682
      H   19    0.08904      0.00000     0.40951    0.00146     0.41096
      H   20    0.09794      0.00000     0.40092    0.00113     0.40206
      H   21    0.10183      0.00000     0.39616    0.00201     0.39817
      H   22    0.08884      0.00000     0.40920    0.00196     0.41116
      H   23    0.09964      0.00000     0.39870    0.00166     0.40036
      H   24    0.11096      0.00000     0.38502    0.00403     0.38904
      H   25    0.10090      0.00000     0.39568    0.00342     0.39910
      H   26    0.08849      0.00000     0.40881    0.00270     0.41151
      H   27    0.19523      0.00000     0.30260    0.00217     0.30477
 =======================================================================
   * Total *    0.00000     11.99591    33.83870    0.16540    46.00000

 Normal termination of Gaussian 16 at Wed Dec  9 18:05:16 2020.
