 Gaussian 16, Revision A.03,

 -----------------------------------------------------------
 # opt freq B3LYP/6-31G(d) empiricaldispersion=gd3bj scf=xqc
 -----------------------------------------------------------

 ------------------------------
 CID_58387548_JID_1249_neutraal
 ------------------------------
 Symbolic Z-matrix:
 Charge =  0 Multiplicity = 1

 SCF Done:  E(RB3LYP) =  -480.795809850     A.U. after   15 cycles
 SCF Done:  E(RB3LYP) =  -480.797222253     A.U. after   13 cycles
 SCF Done:  E(RB3LYP) =  -480.797974061     A.U. after   12 cycles
 SCF Done:  E(RB3LYP) =  -480.798324830     A.U. after   12 cycles
 SCF Done:  E(RB3LYP) =  -480.798344115     A.U. after   12 cycles
 SCF Done:  E(RB3LYP) =  -480.798372368     A.U. after    9 cycles
 SCF Done:  E(RB3LYP) =  -480.798381331     A.U. after   10 cycles
 SCF Done:  E(RB3LYP) =  -480.798382149     A.U. after    9 cycles
 SCF Done:  E(RB3LYP) =  -480.798382221     A.U. after    8 cycles
 Optimization completed.
    -- Stationary point found.
 Normal termination of Gaussian 16 at Tue Dec  8 19:31:21 2020.

 --------------------------------------------------------------------
 #N Geom=AllCheck Guess=TCheck SCRF=Check GenChk RB3LYP/6-31G(d) Freq
 --------------------------------------------------------------------

 Structure from the checkpoint file:  "JID_1249.chk"
 ------------------------------
 CID_58387548_JID_1249_neutraal
 ------------------------------
 Charge =  0 Multiplicity = 1

 SCF Done:  E(RB3LYP) =  -480.798382221     A.U. after    1 cycles

  Exact polarizability:  98.829   0.966  90.797  -4.181  -0.920  89.170
 Approx polarizability: 132.943   3.119 133.654 -16.227  -0.823 144.859

                      1                      2                      3
                      A                      A                      A
 Frequencies --     65.8474                92.8421               125.2942
 Red. masses --      7.3015                 4.0258                 4.9203
 Frc consts  --      0.0187                 0.0204                 0.0455
 IR Inten    --      1.9948                 1.8470                 4.3729

                      4                      5                      6
                      A                      A                      A
 Frequencies --    190.3849               236.6655               256.6275
 Red. masses --      3.4427                 1.3284                 1.4200
 Frc consts  --      0.0735                 0.0438                 0.0551
 IR Inten    --      2.2252                 3.4857                 1.7609

                      7                      8                      9
                      A                      A                      A
 Frequencies --    269.2054               293.8355               320.8237
 Red. masses --      2.4986                 1.4666                 2.6479
 Frc consts  --      0.1067                 0.0746                 0.1606
 IR Inten    --      0.7431                 0.8157                 0.7979

                     10                     11                     12
                      A                      A                      A
 Frequencies --    374.9250               397.9161               408.1370
 Red. masses --      2.9326                 3.0705                 2.9093
 Frc consts  --      0.2429                 0.2864                 0.2855
 IR Inten    --      0.9734                 0.3672                 0.2292

                     13                     14                     15
                      A                      A                      A
 Frequencies --    430.9920               476.2575               507.5541
 Red. masses --      2.1783                 2.3227                 3.5113
 Frc consts  --      0.2384                 0.3104                 0.5329
 IR Inten    --      1.3918                 0.2720                11.7423

                     16                     17                     18
                      A                      A                      A
 Frequencies --    565.6941               626.1671               685.2777
 Red. masses --      6.2622                 4.0229                 4.7011
 Frc consts  --      1.1807                 0.9293                 1.3007
 IR Inten    --      1.1093                 0.9440                 0.2178

                     19                     20                     21
                      A                      A                      A
 Frequencies --    764.2239               776.3779               859.6085
 Red. masses --      3.0773                 2.8004                 2.3310
 Frc consts  --      1.0589                 0.9945                 1.0148
 IR Inten    --      1.1111                 1.6388                 0.8488

                     22                     23                     24
                      A                      A                      A
 Frequencies --    901.6978               922.1490               927.3123
 Red. masses --      2.0805                 1.9527                 2.9107
 Frc consts  --      0.9967                 0.9783                 1.4747
 IR Inten    --      0.5810                 0.6035                 1.3928

                     25                     26                     27
                      A                      A                      A
 Frequencies --    947.5459               967.4319               978.9414
 Red. masses --      1.9637                 1.4857                 1.9915
 Frc consts  --      1.0388                 0.8192                 1.1245
 IR Inten    --      0.8466                 0.4128                 4.9832

                     28                     29                     30
                      A                      A                      A
 Frequencies --   1046.1191              1062.0517              1082.3971
 Red. masses --      1.3396                 1.7720                 2.1931
 Frc consts  --      0.8637                 1.1776                 1.5138
 IR Inten    --      0.0025                 1.7193                 3.7697

                     31                     32                     33
                      A                      A                      A
 Frequencies --   1119.4626              1179.7167              1202.5001
 Red. masses --      1.4928                 1.7073                 1.8859
 Frc consts  --      1.1022                 1.4000                 1.6067
 IR Inten    --     16.3803                 6.3137                 2.4626

                     34                     35                     36
                      A                      A                      A
 Frequencies --   1238.7566              1255.9326              1262.9136
 Red. masses --      1.5649                 1.6667                 1.4716
 Frc consts  --      1.4149                 1.5490                 1.3829
 IR Inten    --      0.4002                34.4567                 9.9896

                     37                     38                     39
                      A                      A                      A
 Frequencies --   1291.9485              1332.4377              1344.4674
 Red. masses --      2.1792                 1.6277                 1.6423
 Frc consts  --      2.1430                 1.7026                 1.7490
 IR Inten    --     12.8358                13.7339                 4.7526

                     40                     41                     42
                      A                      A                      A
 Frequencies --   1358.7883              1385.7793              1404.3442
 Red. masses --      1.5969                 1.4927                 1.4453
 Frc consts  --      1.7371                 1.6889                 1.6795
 IR Inten    --      8.5810                 0.7103                 2.5786

                     43                     44                     45
                      A                      A                      A
 Frequencies --   1434.4534              1458.3854              1489.4430
 Red. masses --      1.2305                 1.2131                 1.0969
 Frc consts  --      1.4918                 1.5202                 1.4337
 IR Inten    --      5.6684                 4.1455                 8.6032

                     46                     47                     48
                      A                      A                      A
 Frequencies --   1496.2784              1509.4767              1516.6479
 Red. masses --      1.0850                 1.0698                 1.0502
 Frc consts  --      1.4312                 1.4362                 1.4233
 IR Inten    --      6.9829                 1.2830                 0.9188

                     49                     50                     51
                      A                      A                      A
 Frequencies --   1525.9300              1534.6339              1541.7128
 Red. masses --      1.0636                 1.0586                 1.0557
 Frc consts  --      1.4592                 1.4689                 1.4784
 IR Inten    --      8.6874                 7.2042                 9.4954

                     52                     53                     54
                      A                      A                      A
 Frequencies --   1828.1000              2364.8410              3024.1907
 Red. masses --     11.0543                12.6496                 1.0673
 Frc consts  --     21.7662                41.6805                 5.7512
 IR Inten    --    167.9806                 6.1835                 8.6492

                     55                     56                     57
                      A                      A                      A
 Frequencies --   3039.4087              3043.8936              3045.3607
 Red. masses --      1.0533                 1.0508                 1.0680
 Frc consts  --      5.7329                 5.7360                 5.8357
 IR Inten    --      3.9561                40.9317                 8.3957

                     58                     59                     60
                      A                      A                      A
 Frequencies --   3056.8047              3059.2475              3096.0388
 Red. masses --      1.0592                 1.0569                 1.1001
 Frc consts  --      5.8310                 5.8277                 6.2128
 IR Inten    --     32.1245                 7.6220                10.3619

                     61                     62                     63
                      A                      A                      A
 Frequencies --   3109.5010              3114.6846              3118.1839
 Red. masses --      1.1020                 1.1025                 1.0978
 Frc consts  --      6.2780                 6.3017                 6.2890
 IR Inten    --     32.8288                 4.2389                 8.9301

                     64                     65                     66
                      A                      A                      A
 Frequencies --   3122.5884              3144.4972              3147.1567
 Red. masses --      1.0995                 1.0964                 1.0996
 Frc consts  --      6.3163                 6.3873                 6.4167
 IR Inten    --     54.3212                 6.5053                16.2367

 - Thermochemistry -
 -------------------
 Temperature   298.150 Kelvin.  Pressure   1.00000 Atm.
 Atom     1 has atomic number  6 and mass  12.00000

 Molecular mass:   151.09971 amu.
 Principal axes and moments of inertia in atomic units:
                           1         2         3
     Eigenvalues --  1354.079671675.335962213.75599
           X            0.99519  -0.09414   0.02725
           Y            0.09465   0.99535  -0.01803
           Z           -0.02542   0.02052   0.99947
 This molecule is an asymmetric top.
 Rotational symmetry number  1.
 Warning -- assumption of classical behavior for rotation
           may cause significant error
 Rotational temperatures (Kelvin)      0.06397     0.05170     0.03913
 Rotational constants (GHZ):           1.33282     1.07724     0.81524
 Zero-point vibrational energy     542858.2 (Joules/Mol)
                                  129.74623 (Kcal/Mol)
 Warning -- explicit consideration of  16 degrees of freedom as
           vibrations may cause significant error
 Vibrational temperatures:     94.74   133.58   180.27   273.92   340.51
          (Kelvin)            369.23   387.33   422.76   461.59   539.43
                              572.51   587.22   620.10   685.23   730.26
                              813.91   900.91   985.96  1099.55  1117.03
                             1236.78  1297.34  1326.77  1334.20  1363.31
                             1391.92  1408.48  1505.13  1528.06  1557.33
                             1610.66  1697.35  1730.13  1782.29  1807.01
                             1817.05  1858.83  1917.08  1934.39  1954.99
                             1993.83  2020.54  2063.86  2098.29  2142.98
                             2152.81  2171.80  2182.12  2195.47  2208.00
                             2218.18  2630.23  3402.48  4351.14  4373.03
                             4379.48  4381.59  4398.06  4401.57  4454.51
                             4473.88  4481.34  4486.37  4492.71  4524.23
                             4528.06

 Zero-point correction=                           0.206764 (Hartree/Particle)
 Thermal correction to Energy=                    0.217611
 Thermal correction to Enthalpy=                  0.218555
 Thermal correction to Gibbs Free Energy=         0.170851
 Sum of electronic and zero-point Energies=           -480.591618
 Sum of electronic and thermal Energies=              -480.580771
 Sum of electronic and thermal Enthalpies=            -480.579827
 Sum of electronic and thermal Free Energies=         -480.627531

                     E (Thermal)             CV                S
                      KCal/Mol        Cal/Mol-Kelvin    Cal/Mol-Kelvin
 Total                  136.553             41.824            100.402
 Electronic               0.000              0.000              0.000
 Translational            0.889              2.981             40.948
 Rotational               0.889              2.981             29.997
 Vibrational            134.776             35.862             29.456
 Vibration     1          0.597              1.971              4.274
 Vibration     2          0.602              1.954              3.599
 Vibration     3          0.610              1.928              3.017
 Vibration     4          0.634              1.853              2.224
 Vibration     5          0.656              1.785              1.828
 Vibration     6          0.666              1.752              1.685
 Vibration     7          0.674              1.730              1.601
 Vibration     8          0.689              1.685              1.452
 Vibration     9          0.706              1.634              1.306
 Vibration    10          0.746              1.524              1.060
 Vibration    11          0.764              1.475              0.970
 Vibration    12          0.773              1.453              0.933
 Vibration    13          0.792              1.403              0.855
 Vibration    14          0.833              1.303              0.720
 Vibration    15          0.863              1.233              0.640
 Vibration    16          0.922              1.105              0.513

 Optimization completed.
    -- Stationary point found.
 Normal termination of Gaussian 16 at Tue Dec  8 19:36:23 2020.

 ----------------------------------------------------------------------
 # B3LYP/6-311++G(d,p) empiricaldispersion=gd3bj scf=xqc pop=npa geom=c
 heck
 ----------------------------------------------------------------------

 --------------------------------------
 CID_58387548_JID_1249_Energie_neutraal
 --------------------------------------
 Structure from the checkpoint file:  "JID_1249.chk"
 Charge =  0 Multiplicity = 1

 SCF Done:  E(RB3LYP) =  -480.934212253     A.U. after   13 cycles
 Normal termination of Gaussian 16 at Tue Dec  8 19:38:10 2020.

 ----------------------------------------------------------------------
 # B3LYP/6-311++G(d,p) empiricaldispersion=gd3bj scf=xqc pop=npa geom=c
 heck
 ----------------------------------------------------------------------

 ------------------------------------
 CID_58387548_JID_1249_Energie_kation
 ------------------------------------
 Structure from the checkpoint file:  "JID_1249.chk"
 Charge =  1 Multiplicity = 2

 SCF Done:  E(UB3LYP) =  -480.590183483     A.U. after   19 cycles
 Normal termination of Gaussian 16 at Tue Dec  8 19:41:19 2020.
 Gaussian 16:  ES64L-G16RevA.03 25-Dec-2016

 ----------------------------------------------------------------------
 # B3LYP/6-311++G(d,p) empiricaldispersion=gd3bj scf=xqc pop=npa geom=c
 heck
 ----------------------------------------------------------------------

 -----------------------------------
 CID_58387548_JID_1249_Energie_anion
 -----------------------------------
 Structure from the checkpoint file:  "JID_1249.chk"
 Charge = -1 Multiplicity = 2

                         Standard orientation:
 ---------------------------------------------------------------------
 Center     Atomic      Atomic             Coordinates (Angstroms)
 Number     Number       Type             X           Y           Z
 ---------------------------------------------------------------------
      1          6           0        0.937112   -0.797551    1.467098
      2          6           0        1.287816   -0.322804    0.045253
      3          6           0        0.397632   -0.989450   -1.028045
      4          6           0       -1.094346   -0.576052   -1.008313
      5          6           0       -1.255169    0.966896   -0.985742
      6          6           0       -0.346034    1.629220    0.043576
      7          8           0       -0.765692    2.431415    0.852576
      8          6           0        1.111540    1.215492   -0.040110
      9          6           0       -1.841725   -1.203249    0.090764
     10          7           0       -2.448955   -1.710084    0.940215
     11          6           0        2.751908   -0.680287   -0.252855
     12          1           0        1.659559   -0.390137    2.183206
     13          1           0        0.971640   -1.890344    1.534721
     14          1           0       -0.057192   -0.477177    1.787465
     15          1           0        0.785016   -0.715902   -2.018461
     16          1           0        0.473880   -2.079501   -0.948602
     17          1           0       -1.558046   -0.951686   -1.929152
     18          1           0       -2.289219    1.263121   -0.798394
     19          1           0       -0.962464    1.339594   -1.977001
     20          1           0        1.666651    1.719655    0.756105
     21          1           0        1.507253    1.565825   -1.005373
     22          1           0        3.422832   -0.192636    0.463134
     23          1           0        2.911863   -1.762345   -0.178600
     24          1           0        3.044044   -0.362492   -1.260914
 ---------------------------------------------------------------------

 SCF Done:  E(UB3LYP) =  -480.935265449     A.U. after   27 cycles

 The electronic state is 2-A.
 Alpha  occ. eigenvalues --  -18.97900 -14.19840 -10.12127 -10.10885 -10.09819
 Alpha  occ. eigenvalues --  -10.08657 -10.07123 -10.06681 -10.05846 -10.05766
 Alpha  occ. eigenvalues --  -10.05351  -0.91516  -0.79868  -0.74419  -0.68921
 Alpha  occ. eigenvalues --   -0.62554  -0.58633  -0.58318  -0.54095  -0.45172
 Alpha  occ. eigenvalues --   -0.43136  -0.38503  -0.36690  -0.35136  -0.34579
 Alpha  occ. eigenvalues --   -0.33755  -0.31828  -0.30470  -0.29653  -0.28102
 Alpha  occ. eigenvalues --   -0.27609  -0.26603  -0.26108  -0.25059  -0.24927
 Alpha  occ. eigenvalues --   -0.23880  -0.22553  -0.21751  -0.20937  -0.20289
 Alpha  occ. eigenvalues --   -0.12318   0.04193
 Alpha virt. eigenvalues --    0.07605   0.08533   0.09435   0.09778   0.10496
 Alpha virt. eigenvalues --    0.11023   0.11466   0.11991   0.12644   0.13760
 Alpha virt. eigenvalues --    0.13949   0.14172   0.14685   0.14851   0.15105

  Beta  occ. eigenvalues --  -18.97673 -14.19811 -10.11927 -10.10847 -10.09813
  Beta  occ. eigenvalues --  -10.08650 -10.07079 -10.06676 -10.05816 -10.05768
  Beta  occ. eigenvalues --  -10.05334  -0.91082  -0.79814  -0.74332  -0.68842
  Beta  occ. eigenvalues --   -0.62328  -0.58584  -0.58243  -0.53981  -0.45016
  Beta  occ. eigenvalues --   -0.42851  -0.38390  -0.36548  -0.35016  -0.34437
  Beta  occ. eigenvalues --   -0.33526  -0.31755  -0.30340  -0.29430  -0.28032
  Beta  occ. eigenvalues --   -0.27531  -0.26474  -0.26055  -0.24990  -0.24459
  Beta  occ. eigenvalues --   -0.23678  -0.22477  -0.21539  -0.20650  -0.20147
  Beta  occ. eigenvalues --   -0.12128
  Beta virt. eigenvalues --    0.07200   0.08485   0.09401   0.09848   0.10730
  Beta virt. eigenvalues --    0.10961   0.11505   0.11905   0.12308   0.12782
  Beta virt. eigenvalues --    0.13995   0.14301   0.14411   0.14807   0.15081

 Mulliken charges and spin densities:
               1          2
     1  C   -0.413957  -0.200251
     2  C   -0.659695   1.332144
     3  C    0.908737  -1.641042
     4  C   -0.633141   1.538264
     5  C    1.022087  -1.623437
     6  C   -0.597748   0.649272
     7  O   -0.305373   0.078481
     8  C    0.265728  -0.811921
     9  C    0.745196  -1.175254
    10  N   -0.391483   0.061211
    11  C    0.584450  -1.020092
    12  H    0.085492   0.032115
    13  H    0.107829   0.045660
    14  H    0.157823   0.019349
    15  H   -0.537167   0.764895
    16  H    0.015639   0.141173
    17  H   -0.777709   1.066811
    18  H    0.093290   0.109724
    19  H   -0.461522   0.657866
    20  H    0.164251   0.017476
    21  H   -0.250865   0.432483
    22  H   -0.020535   0.149547
    23  H    0.047823   0.078001
    24  H   -0.149148   0.297526
 Sum of Mulliken charges =  -1.00000   1.00000

 Dipole moment (field-independent basis, Debye):
    X=              3.1353    Y=             -1.2713    Z=              3.8070  Tot=              5.0931
 Quadrupole moment (field-independent basis, Debye-Ang):
   XX=           -102.5965   YY=           -101.7122   ZZ=           -111.1177
   XY=             -4.5979   XZ=              6.1076   YZ=             -0.8645

 Summary of Natural Population Analysis:

                                       Natural Population
                Natural  -----------------------------------------------
    Atom  No    Charge         Core      Valence    Rydberg      Total
 -----------------------------------------------------------------------
      C    1   -0.28710      0.99962     2.28163    0.00585     3.28710
      C    2   -0.04234      0.99957     2.03203    0.01074     3.04234
      C    3   -0.18131      0.99957     2.16985    0.01189     3.18131
      C    4   -0.16553      0.99950     2.15146    0.01456     3.16553
      C    5   -0.22689      0.99957     2.21718    0.01014     3.22689
      C    6    0.31348      0.99965     1.66507    0.02179     2.68652
      O    7   -0.27080      0.99987     3.26460    0.00633     4.27080
      C    8   -0.23716      0.99955     2.22682    0.01079     3.23716
      C    9    0.17100      0.99964     1.81143    0.01794     2.82900
      N   10   -0.19266      0.99979     2.68203    0.01084     3.69266
      C   11   -0.27991      0.99962     2.27323    0.00706     3.27991
      H   12    0.09739      0.00000     0.40185    0.00075     0.40261
      H   13    0.09836      0.00000     0.40096    0.00068     0.40164
      H   14    0.11003      0.00000     0.38918    0.00079     0.38997
      H   15    0.11279      0.00000     0.38197    0.00524     0.38721
      H   16    0.10233      0.00000     0.39620    0.00147     0.39767
      H   17    0.13007      0.00000     0.36464    0.00529     0.36993
      H   18    0.11054      0.00000     0.38835    0.00110     0.38946
      H   19    0.11983      0.00000     0.37523    0.00494     0.38017
      H   20    0.10595      0.00000     0.39305    0.00100     0.39405
      H   21    0.11412      0.00000     0.38366    0.00223     0.38588
      H   22    0.09742      0.00000     0.40179    0.00079     0.40258
      H   23    0.09673      0.00000     0.40249    0.00078     0.40327
      H   24    0.10365      0.00000     0.39536    0.00099     0.39635
 =======================================================================
   * Total *    0.00000     10.99595    29.85006    0.15399    41.00000

 Normal termination of Gaussian 16 at Tue Dec  8 19:45:38 2020.
