 Gaussian 16, Revision A.03,

 -----------------------------------------------------------
 # opt freq B3LYP/6-31G(d) empiricaldispersion=gd3bj scf=xqc
 -----------------------------------------------------------

 -------------------------------
 CID_139763334_JID_6745_neutraal
 -------------------------------
 Symbolic Z-matrix:
 Charge =  0 Multiplicity = 1

 SCF Done:  E(RB3LYP) =  -760.139415253     A.U. after   17 cycles
 SCF Done:  E(RB3LYP) =  -760.155274515     A.U. after   15 cycles
 SCF Done:  E(RB3LYP) =  -760.157909650     A.U. after   15 cycles
 SCF Done:  E(RB3LYP) =  -760.161748240     A.U. after   14 cycles
 SCF Done:  E(RB3LYP) =  -760.162244749     A.U. after   13 cycles
 SCF Done:  E(RB3LYP) =  -760.163017396     A.U. after   13 cycles
 SCF Done:  E(RB3LYP) =  -760.163362697     A.U. after   13 cycles
 SCF Done:  E(RB3LYP) =  -760.163524670     A.U. after   12 cycles
 SCF Done:  E(RB3LYP) =  -760.163691151     A.U. after   12 cycles
 SCF Done:  E(RB3LYP) =  -760.163822525     A.U. after   12 cycles
 SCF Done:  E(RB3LYP) =  -760.170735078     A.U. after   10 cycles
 SCF Done:  E(RB3LYP) =  -760.170734588     A.U. after   10 cycles
 SCF Done:  E(RB3LYP) =  -760.170736298     A.U. after    9 cycles
 SCF Done:  E(RB3LYP) =  -760.170736610     A.U. after    9 cycles
 SCF Done:  E(RB3LYP) =  -760.170736744     A.U. after    8 cycles
 SCF Done:  E(RB3LYP) =  -760.170736766     A.U. after    7 cycles
 Optimization completed.
    -- Stationary point found.
 Normal termination of Gaussian 16 at Thu Dec 10 23:39:40 2020.

 --------------------------------------------------------------------
 #N Geom=AllCheck Guess=TCheck SCRF=Check GenChk RB3LYP/6-31G(d) Freq
 --------------------------------------------------------------------

 Structure from the checkpoint file:  "JID_6745.chk"
 -------------------------------
 CID_139763334_JID_6745_neutraal
 -------------------------------
 Charge =  0 Multiplicity = 1

 SCF Done:  E(RB3LYP) =  -760.170736766     A.U. after    1 cycles

  Exact polarizability: 253.739 -12.468 136.663  -1.948  -0.937  81.079
 Approx polarizability: 407.692 -78.852 229.050  -0.258  -2.950 123.782

                      1                      2                      3
                      A                      A                      A
 Frequencies --     36.3163                41.5854                64.4458
 Red. masses --      4.9773                 3.9101                 4.8244
 Frc consts  --      0.0039                 0.0040                 0.0118
 IR Inten    --      0.8415                 4.0844                 0.3381

                      4                      5                      6
                      A                      A                      A
 Frequencies --    114.0895               121.3411               138.2910
 Red. masses --      3.9590                 3.7193                 2.8227
 Frc consts  --      0.0304                 0.0323                 0.0318
 IR Inten    --      0.9624                 0.5659                 0.9890

                      7                      8                      9
                      A                      A                      A
 Frequencies --    150.9574               172.9783               189.6297
 Red. masses --      3.7741                 2.7030                 2.6314
 Frc consts  --      0.0507                 0.0477                 0.0558
 IR Inten    --      1.5345                 4.6834                 6.6749

                     10                     11                     12
                      A                      A                      A
 Frequencies --    196.9787               215.8164               253.5767
 Red. masses --      1.8072                 1.9225                 1.9201
 Frc consts  --      0.0413                 0.0528                 0.0727
 IR Inten    --      4.5581                 0.5018                 0.9468

                     13                     14                     15
                      A                      A                      A
 Frequencies --    277.7459               304.1373               318.4601
 Red. masses --      3.6895                 2.8124                 1.5736
 Frc consts  --      0.1677                 0.1533                 0.0940
 IR Inten    --      0.3646                13.4375                56.9333

                     16                     17                     18
                      A                      A                      A
 Frequencies --    339.0724               366.5386               392.6379
 Red. masses --      3.6290                 2.4776                 1.4638
 Frc consts  --      0.2458                 0.1961                 0.1330
 IR Inten    --     12.7865                34.1209                40.8278

                     19                     20                     21
                      A                      A                      A
 Frequencies --    408.6202               446.4003               456.5725
 Red. masses --      3.7640                 2.4181                 3.9369
 Frc consts  --      0.3703                 0.2839                 0.4835
 IR Inten    --     37.8059                 3.1393                11.8331

                     22                     23                     24
                      A                      A                      A
 Frequencies --    487.0937               496.8279               515.9482
 Red. masses --      4.2024                 2.1444                 4.7365
 Frc consts  --      0.5875                 0.3119                 0.7429
 IR Inten    --      2.6441                 5.7910                 1.4626

                     25                     26                     27
                      A                      A                      A
 Frequencies --    539.3570               568.6973               658.1493
 Red. masses --      4.3831                 4.1399                 4.5833
 Frc consts  --      0.7513                 0.7889                 1.1697
 IR Inten    --     18.4129                25.7538                13.6498

                     28                     29                     30
                      A                      A                      A
 Frequencies --    681.2919               715.7863               740.2998
 Red. masses --      4.0108                 4.6109                 2.7754
 Frc consts  --      1.0969                 1.3919                 0.8962
 IR Inten    --      5.5628                 0.5793                 0.3833

                     31                     32                     33
                      A                      A                      A
 Frequencies --    750.8036               819.9009               829.6481
 Red. masses --      6.2679                 2.0396                 2.8360
 Frc consts  --      2.0817                 0.8078                 1.1501
 IR Inten    --      1.6594                15.5254                17.0333

                     34                     35                     36
                      A                      A                      A
 Frequencies --    845.0632               866.4075               907.3317
 Red. masses --      1.6083                 2.4556                 1.4236
 Frc consts  --      0.6767                 1.0861                 0.6905
 IR Inten    --     59.8915                85.2600                91.6690

                     37                     38                     39
                      A                      A                      A
 Frequencies --    912.2090               919.3691               962.2681
 Red. masses --      1.8586                 1.4632                 2.3236
 Frc consts  --      0.9112                 0.7287                 1.2676
 IR Inten    --    466.4829               156.4214                39.0754

                     40                     41                     42
                      A                      A                      A
 Frequencies --   1015.1685              1084.6531              1101.3429
 Red. masses --      1.7657                 3.1219                 2.5350
 Frc consts  --      1.0721                 2.1640                 1.8117
 IR Inten    --     27.6429                19.6989                56.8361

                     43                     44                     45
                      A                      A                      A
 Frequencies --   1145.5959              1147.1630              1150.5522
 Red. masses --      1.6854                 1.3785                 2.5955
 Frc consts  --      1.3032                 1.0689                 2.0243
 IR Inten    --     61.3075                11.8469                10.7952

                     46                     47                     48
                      A                      A                      A
 Frequencies --   1153.9544              1219.3046              1228.2055
 Red. masses --      1.3911                 1.8783                 2.0257
 Frc consts  --      1.0914                 1.6453                 1.8004
 IR Inten    --     36.8853                19.0776               207.6356

                     49                     50                     51
                      A                      A                      A
 Frequencies --   1235.8057              1256.5530              1268.4965
 Red. masses --      1.6712                 1.4021                 2.1980
 Frc consts  --      1.5037                 1.3044                 2.0838
 IR Inten    --     13.7188                 1.0241                 8.5855

                     52                     53                     54
                      A                      A                      A
 Frequencies --   1331.7727              1365.2688              1368.0282
 Red. masses --      2.5004                 1.7471                 1.5643
 Frc consts  --      2.6128                 1.9186                 1.7249
 IR Inten    --    276.3473                64.1155                24.5094

                     55                     56                     57
                      A                      A                      A
 Frequencies --   1398.0678              1414.6763              1423.2914
 Red. masses --      3.0160                 1.5556                 1.1916
 Frc consts  --      3.4733                 1.8342                 1.4222
 IR Inten    --     13.7551                47.1391                 6.4100

                     58                     59                     60
                      A                      A                      A
 Frequencies --   1454.9528              1458.2874              1468.0511
 Red. masses --      1.3010                 1.8139                 1.7501
 Frc consts  --      1.6227                 2.2728                 2.2223
 IR Inten    --     18.7901                 3.6147               213.1187

                     61                     62                     63
                      A                      A                      A
 Frequencies --   1487.4906              1492.9124              1511.5759
 Red. masses --      1.3655                 1.6560                 1.1668
 Frc consts  --      1.7801                 2.1746                 1.5708
 IR Inten    --     19.5819                10.9016                 8.0790

                     64                     65                     66
                      A                      A                      A
 Frequencies --   1518.2684              1520.8965              1534.1167
 Red. masses --      1.0730                 1.0911                 1.0866
 Frc consts  --      1.4573                 1.4870                 1.5068
 IR Inten    --      1.5375                10.8639                 4.1848

                     67                     68                     69
                      A                      A                      A
 Frequencies --   1539.5913              1547.2708              1622.5575
 Red. masses --      1.1060                 1.1001                 5.2455
 Frc consts  --      1.5446                 1.5518                 8.1364
 IR Inten    --     17.2186                 6.4927              1109.6482

                     70                     71                     72
                      A                      A                      A
 Frequencies --   1646.9336              1680.8026              1684.8113
 Red. masses --      6.3127                 1.4598                 1.2530
 Frc consts  --     10.0883                 2.4299                 2.0956
 IR Inten    --    154.9854                44.4304               130.9590

                     73                     74                     75
                      A                      A                      A
 Frequencies --   1705.7669              1714.4309              3026.6651
 Red. masses --      2.7885                 5.0873                 1.0478
 Frc consts  --      4.7803                 8.8100                 5.6551
 IR Inten    --      4.5409               284.2774                60.2728

                     76                     77                     78
                      A                      A                      A
 Frequencies --   3026.7727              3050.8301              3086.1282
 Red. masses --      1.0447                 1.0682                 1.0732
 Frc consts  --      5.6388                 5.8581                 6.0224
 IR Inten    --     19.7032                72.8173                57.4145

                     79                     80                     81
                      A                      A                      A
 Frequencies --   3093.3774              3113.7109              3122.1848
 Red. masses --      1.0932                 1.0884                 1.0967
 Frc consts  --      6.1632                 6.2173                 6.2989
 IR Inten    --     17.0106                14.2993                32.4782

                     82                     83                     84
                      A                      A                      A
 Frequencies --   3151.5738              3162.3420              3196.3000
 Red. masses --      1.0998                 1.1029                 1.0961
 Frc consts  --      6.4362                 6.4985                 6.5976
 IR Inten    --     17.9406                 5.0946                 7.6239

                     85                     86                     87
                      A                      A                      A
 Frequencies --   3234.7844              3242.6761              3468.9968
 Red. masses --      1.0895                 1.0892                 1.0492
 Frc consts  --      6.7169                 6.7477                 7.4392
 IR Inten    --      5.7897                 4.1394                14.7072

                     88                     89                     90
                      A                      A                      A
 Frequencies --   3486.2737              3559.3301              3581.6972
 Red. masses --      1.0490                 1.0925                 1.0929
 Frc consts  --      7.5122                 8.1550                 8.2605
 IR Inten    --      8.8523                 3.7730                11.9069

 - Thermochemistry -
 -------------------
 Temperature   298.150 Kelvin.  Pressure   1.00000 Atm.
 Atom     1 has atomic number  6 and mass  12.00000

 Molecular mass:   224.12733 amu.
 Principal axes and moments of inertia in atomic units:
                           1         2         3
     Eigenvalues --  1504.236866382.783177663.99552
           X            0.99984   0.01750  -0.00196
           Y           -0.01750   0.99984   0.00225
           Z            0.00200  -0.00221   1.00000
 This molecule is an asymmetric top.
 Rotational symmetry number  1.
 Warning -- assumption of classical behavior for rotation
           may cause significant error
 Rotational temperatures (Kelvin)      0.05758     0.01357     0.01130
 Rotational constants (GHZ):           1.19977     0.28275     0.23548
 Zero-point vibrational energy     710120.7 (Joules/Mol)
                                  169.72291 (Kcal/Mol)
 Warning -- explicit consideration of  26 degrees of freedom as
           vibrations may cause significant error
 Vibrational temperatures:     52.25    59.83    92.72   164.15   174.58
          (Kelvin)            198.97   217.19   248.88   272.83   283.41
                              310.51   364.84   399.61   437.59   458.19
                              487.85   527.37   564.92   587.91   642.27
                              656.91   700.82   714.82   742.33   776.01
                              818.23   946.93   980.23  1029.86  1065.13
                             1080.24  1179.65  1193.68  1215.86  1246.57
                             1305.45  1312.47  1322.77  1384.49  1460.60
                             1560.57  1584.59  1648.26  1650.51  1655.39
                             1660.28  1754.31  1767.11  1778.05  1807.90
                             1825.08  1916.12  1964.32  1968.29  2011.51
                             2035.40  2047.80  2093.35  2098.15  2112.20
                             2140.17  2147.97  2174.82  2184.45  2188.23
                             2207.25  2215.13  2226.18  2334.50  2369.57
                             2418.30  2424.07  2454.22  2466.68  4354.70
                             4354.85  4389.46  4440.25  4450.68  4479.94
                             4492.13  4534.41  4549.90  4598.76  4654.13
                             4665.49  4991.11  5015.97  5121.08  5153.26

 Zero-point correction=                           0.270471 (Hartree/Particle)
 Thermal correction to Energy=                    0.286838
 Thermal correction to Enthalpy=                  0.287782
 Thermal correction to Gibbs Free Energy=         0.226632
 Sum of electronic and zero-point Energies=           -759.900266
 Sum of electronic and thermal Energies=              -759.883899
 Sum of electronic and thermal Enthalpies=            -759.882955
 Sum of electronic and thermal Free Energies=         -759.944105

                     E (Thermal)             CV                S
                      KCal/Mol        Cal/Mol-Kelvin    Cal/Mol-Kelvin
 Total                  179.994             61.364            128.701
 Electronic               0.000              0.000              0.000
 Translational            0.889              2.981             42.124
 Rotational               0.889              2.981             32.664
 Vibrational            178.216             55.402             53.913
 Vibration     1          0.594              1.982              5.451
 Vibration     2          0.594              1.981              5.182
 Vibration     3          0.597              1.971              4.316
 Vibration     4          0.607              1.938              3.198
 Vibration     5          0.609              1.931              3.079
 Vibration     6          0.614              1.915              2.827
 Vibration     7          0.618              1.902              2.660
 Vibration     8          0.626              1.876              2.403
 Vibration     9          0.633              1.854              2.231
 Vibration    10          0.636              1.844              2.161
 Vibration    11          0.645              1.817              1.994
 Vibration    12          0.665              1.757              1.706
 Vibration    13          0.679              1.715              1.548
 Vibration    14          0.695              1.666              1.394
 Vibration    15          0.705              1.638              1.318
 Vibration    16          0.719              1.597              1.217
 Vibration    17          0.739              1.541              1.094
 Vibration    18          0.760              1.486              0.990
 Vibration    19          0.773              1.452              0.932
 Vibration    20          0.806              1.369              0.807
 Vibration    21          0.815              1.346              0.776
 Vibration    22          0.843              1.279              0.691
 Vibration    23          0.852              1.257              0.666
 Vibration    24          0.871              1.215              0.619
 Vibration    25          0.894              1.163              0.567
 Vibration    26          0.925              1.099              0.507

                           ! Non-Optimized Parameters !
 Normal termination of Gaussian 16 at Thu Dec 10 23:49:03 2020.

 ----------------------------------------------------------------------
 # B3LYP/6-311++G(d,p) empiricaldispersion=gd3bj scf=xqc pop=npa geom=c
 heck
 ----------------------------------------------------------------------

 ---------------------------------------
 CID_139763334_JID_6745_Energie_neutraal
 ---------------------------------------
 Structure from the checkpoint file:  "JID_6745.chk"
 Charge =  0 Multiplicity = 1

 SCF Done:  E(RB3LYP) =  -760.399113819     A.U. after   16 cycles
 Normal termination of Gaussian 16 at Thu Dec 10 23:53:14 2020.

 ----------------------------------------------------------------------
 # B3LYP/6-311++G(d,p) empiricaldispersion=gd3bj scf=xqc pop=npa geom=c
 heck
 ----------------------------------------------------------------------

 -------------------------------------
 CID_139763334_JID_6745_Energie_kation
 -------------------------------------
 Structure from the checkpoint file:  "JID_6745.chk"
 Charge =  1 Multiplicity = 2

 SCF Done:  E(UB3LYP) =  -760.121798980     A.U. after   28 cycles
 Normal termination of Gaussian 16 at Fri Dec 11 00:03:20 2020.
 Gaussian 16:  ES64L-G16RevA.03 25-Dec-2016

 ----------------------------------------------------------------------
 # B3LYP/6-311++G(d,p) empiricaldispersion=gd3bj scf=xqc pop=npa geom=c
 heck
 ----------------------------------------------------------------------

 ------------------------------------
 CID_139763334_JID_6745_Energie_anion
 ------------------------------------
 Structure from the checkpoint file:  "JID_6745.chk"
 Charge = -1 Multiplicity = 2

                         Standard orientation:
 ---------------------------------------------------------------------
 Center     Atomic      Atomic             Coordinates (Angstroms)
 Number     Number       Type             X           Y           Z
 ---------------------------------------------------------------------
      1          6           0       -3.165530   -2.046786   -0.015209
      2          7           0       -2.750488   -0.659452   -0.163077
      3          6           0       -3.819713    0.311902   -0.538196
      4          7           0       -4.474101    1.007931    0.536177
      5          6           0       -1.422960   -0.374604   -0.094653
      6          6           0       -0.457901   -1.351831   -0.017242
      7          6           0        0.951272   -1.076953    0.057914
      8          8           0        1.776480   -1.972713    0.276179
      9          6           0        1.400368    0.368031   -0.111134
     10          6           0        0.438336    1.347194   -0.075608
     11          6           0       -0.971974    1.077086   -0.002573
     12          8           0       -1.795181    1.990382    0.136370
     13          7           0        2.727936    0.640955   -0.166145
     14          6           0        3.209112    1.988313    0.095103
     15          6           0        3.750888   -0.315448   -0.597827
     16          7           0        4.513067   -0.787969    0.546261
     17          1           0       -4.253478   -2.085492    0.064337
     18          1           0       -2.734798   -2.484620    0.891801
     19          1           0       -2.854877   -2.661380   -0.871886
     20          1           0       -3.390571    1.047469   -1.213126
     21          1           0       -4.560194   -0.275708   -1.089206
     22          1           0       -4.826526    0.358551    1.236227
     23          1           0       -3.789170    1.618824    0.975246
     24          1           0       -0.702533   -2.405454    0.010863
     25          1           0        0.688577    2.400171   -0.108958
     26          1           0        2.658576    2.429183    0.930552
     27          1           0        4.261989    1.918622    0.374000
     28          1           0        3.100871    2.643336   -0.781174
     29          1           0        3.256547   -1.096557   -1.178627
     30          1           0        4.432604    0.227091   -1.264581
     31          1           0        3.929114   -1.472206    1.026354
     32          1           0        5.347188   -1.274849    0.221815
 ---------------------------------------------------------------------

 SCF Done:  E(UB3LYP) =  -760.444887562     A.U. after   23 cycles

 The electronic state is 2-A.
 Alpha  occ. eigenvalues --  -18.92235 -18.92187 -14.20093 -14.19863 -14.17711
 Alpha  occ. eigenvalues --  -14.17224 -10.10470 -10.10402 -10.08881 -10.07991
 Alpha  occ. eigenvalues --  -10.07534 -10.07471 -10.06282 -10.06083 -10.00352
 Alpha  occ. eigenvalues --  -10.00260  -0.86724  -0.86396  -0.82575  -0.82318
 Alpha  occ. eigenvalues --   -0.75610  -0.75485  -0.65949  -0.61150  -0.58867
 Alpha  occ. eigenvalues --   -0.58555  -0.54030  -0.53665  -0.47506  -0.44205
 Alpha  occ. eigenvalues --   -0.42853  -0.39555  -0.39201  -0.37273  -0.36125
 Alpha  occ. eigenvalues --   -0.35278  -0.34656  -0.34428  -0.32058  -0.30945
 Alpha  occ. eigenvalues --   -0.30871  -0.30180  -0.29034  -0.27837  -0.27256
 Alpha  occ. eigenvalues --   -0.26436  -0.26083  -0.25556  -0.25391  -0.24638
 Alpha  occ. eigenvalues --   -0.22641  -0.21897  -0.18313  -0.16771  -0.14184
 Alpha  occ. eigenvalues --   -0.13722  -0.09339  -0.09037  -0.08686  -0.06106
 Alpha  occ. eigenvalues --    0.01385
 Alpha virt. eigenvalues --    0.07743   0.07924   0.09425   0.09998   0.10494
 Alpha virt. eigenvalues --    0.10666   0.11355   0.12380   0.13069   0.13189
 Alpha virt. eigenvalues --    0.13449   0.14308   0.14704   0.15020   0.15700

  Beta  occ. eigenvalues --  -18.91697 -18.91641 -14.19960 -14.19735 -14.17703
  Beta  occ. eigenvalues --  -14.17214 -10.10474 -10.10406 -10.08890 -10.07997
  Beta  occ. eigenvalues --  -10.07330 -10.07265 -10.06074 -10.05872 -10.00398
  Beta  occ. eigenvalues --  -10.00305  -0.85880  -0.85516  -0.82263  -0.81991
  Beta  occ. eigenvalues --   -0.75525  -0.75414  -0.65479  -0.60935  -0.58822
  Beta  occ. eigenvalues --   -0.58492  -0.53903  -0.53271  -0.46907  -0.43885
  Beta  occ. eigenvalues --   -0.42629  -0.39470  -0.39106  -0.37152  -0.35926
  Beta  occ. eigenvalues --   -0.35076  -0.34424  -0.34225  -0.31933  -0.30865
  Beta  occ. eigenvalues --   -0.30693  -0.30145  -0.28903  -0.27671  -0.26872
  Beta  occ. eigenvalues --   -0.26084  -0.25683  -0.24999  -0.24864  -0.23982
  Beta  occ. eigenvalues --   -0.21627  -0.20425  -0.17475  -0.15316  -0.13995
  Beta  occ. eigenvalues --   -0.13519  -0.08844  -0.08467  -0.07134  -0.05425
  Beta virt. eigenvalues --    0.07597   0.07736   0.08279   0.09427   0.10003
  Beta virt. eigenvalues --    0.10492   0.10658   0.11348   0.12377   0.13072
  Beta virt. eigenvalues --    0.13254   0.13462   0.14381   0.14701   0.15033

 Mulliken charges and spin densities:
               1          2
     1  C   -0.401169  -0.004103
     2  N    0.064058   0.043890
     3  C   -0.443945  -0.002805
     4  N   -0.300974  -0.005724
     5  C    0.052918   0.216756
     6  C   -0.162101  -0.084838
     7  C   -0.164239   0.106452
     8  O   -0.426904   0.192552
     9  C    0.002510   0.230455
    10  C   -0.154842  -0.064808
    11  C   -0.191261   0.111191
    12  O   -0.432379   0.193656
    13  N    0.139478   0.038271
    14  C   -0.368229  -0.002862
    15  C   -0.477422  -0.006508
    16  N   -0.307096  -0.006074
    17  H    0.118555  -0.000040
    18  H    0.146895   0.001599
    19  H    0.136000   0.008777
    20  H    0.201577  -0.004162
    21  H    0.092158   0.002096
    22  H    0.195752   0.003816
    23  H    0.262437   0.010049
    24  H    0.139897  -0.002372
    25  H    0.143266  -0.002497
    26  H    0.139667   0.000494
    27  H    0.160510  -0.000478
    28  H    0.120669   0.007923
    29  H    0.190766  -0.005360
    30  H    0.094142   0.009010
    31  H    0.250751   0.009328
    32  H    0.178555   0.006316
 Sum of Mulliken charges =  -1.00000   1.00000

 Dipole moment (field-independent basis, Debye):
    X=              0.7729    Y=             -1.7544    Z=             -1.2250  Tot=              2.2751
 Quadrupole moment (field-independent basis, Debye-Ang):
   XX=           -132.8885   YY=           -120.1814   ZZ=           -102.7699
   XY=             18.6952   XZ=             -6.8279   YZ=              0.4570

 Summary of Natural Population Analysis:

                                       Natural Population
                Natural  -----------------------------------------------
    Atom  No    Charge         Core      Valence    Rydberg      Total
 -----------------------------------------------------------------------
      C    1   -0.17851      0.99966     2.17190    0.00695     3.17851
      N    2   -0.23098      0.99963     2.71996    0.01139     3.73098
      C    3    0.00897      0.99965     1.97731    0.01407     2.99103
      N    4   -0.42802      0.99976     2.91808    0.01018     3.92802
      C    5    0.13558      0.99948     1.85451    0.01044     2.86442
      C    6   -0.20648      0.99952     2.19759    0.00937     3.20648
      C    7    0.26204      0.99958     1.71914    0.01924     2.73796
      O    8   -0.27287      0.99988     3.26574    0.00724     4.27287
      C    9    0.13678      0.99947     1.85330    0.01045     2.86322
      C   10   -0.20245      0.99952     2.19364    0.00929     3.20245
      C   11    0.26153      0.99958     1.71972    0.01916     2.73847
      O   12   -0.27148      0.99988     3.26445    0.00715     4.27148
      N   13   -0.22453      0.99962     2.71310    0.01181     3.72453
      C   14   -0.17833      0.99966     2.17189    0.00678     3.17833
      C   15    0.01304      0.99965     1.97501    0.01230     2.98696
      N   16   -0.43186      0.99976     2.92232    0.00979     3.93186
      H   17    0.08922      0.00000     0.40987    0.00091     0.41078
      H   18    0.09519      0.00000     0.40297    0.00184     0.40481
      H   19    0.08805      0.00000     0.41002    0.00192     0.41195
      H   20    0.10649      0.00000     0.39219    0.00132     0.39351
      H   21    0.07570      0.00000     0.42304    0.00126     0.42430
      H   22    0.16415      0.00000     0.33410    0.00175     0.33585
      H   23    0.19409      0.00000     0.30389    0.00202     0.30591
      H   24    0.09514      0.00000     0.40232    0.00253     0.40486
      H   25    0.09555      0.00000     0.40201    0.00244     0.40445
      H   26    0.09801      0.00000     0.40041    0.00158     0.40199
      H   27    0.09778      0.00000     0.40109    0.00113     0.40222
      H   28    0.08351      0.00000     0.41479    0.00170     0.41649
      H   29    0.09832      0.00000     0.40025    0.00143     0.40168
      H   30    0.07191      0.00000     0.42583    0.00226     0.42809
      H   31    0.19080      0.00000     0.30718    0.00202     0.30920
      H   32    0.16366      0.00000     0.33443    0.00192     0.33634
 =======================================================================
   * Total *   -0.00000     15.99429    43.80208    0.20363    60.00000

 Normal termination of Gaussian 16 at Fri Dec 11 00:11:35 2020.
