 Gaussian 16, Revision A.03,

 -----------------------------------------------------------
 # opt freq B3LYP/6-31G(d) empiricaldispersion=gd3bj scf=xqc
 -----------------------------------------------------------

 -------------------------------
 CID_146396813_JID_4834_neutraal
 -------------------------------
 Symbolic Z-matrix:
 Charge =  0 Multiplicity = 1

 SCF Done:  E(RB3LYP) =  -598.752227988     A.U. after   14 cycles
 SCF Done:  E(RB3LYP) =  -598.754755671     A.U. after   12 cycles
 SCF Done:  E(RB3LYP) =  -598.755049185     A.U. after   12 cycles
 SCF Done:  E(RB3LYP) =  -598.755622175     A.U. after   12 cycles
 SCF Done:  E(RB3LYP) =  -598.756164670     A.U. after   12 cycles
 SCF Done:  E(RB3LYP) =  -598.756207140     A.U. after   11 cycles
 SCF Done:  E(RB3LYP) =  -598.756224289     A.U. after   10 cycles
 SCF Done:  E(RB3LYP) =  -598.756229181     A.U. after   10 cycles
 SCF Done:  E(RB3LYP) =  -598.756230373     A.U. after    8 cycles
 SCF Done:  E(RB3LYP) =  -598.756230568     A.U. after    7 cycles
 SCF Done:  E(RB3LYP) =  -598.756230594     A.U. after    6 cycles
 Optimization completed.
    -- Stationary point found.
 Normal termination of Gaussian 16 at Thu Dec 10 10:40:59 2020.

 --------------------------------------------------------------------
 #N Geom=AllCheck Guess=TCheck SCRF=Check GenChk RB3LYP/6-31G(d) Freq
 --------------------------------------------------------------------

 Structure from the checkpoint file:  "JID_4834.chk"
 -------------------------------
 CID_146396813_JID_4834_neutraal
 -------------------------------
 Charge =  0 Multiplicity = 1

 SCF Done:  E(RB3LYP) =  -598.756230594     A.U. after    1 cycles

  Exact polarizability: 157.353 -13.071 109.681  -1.884  -0.792 123.232
 Approx polarizability: 214.872 -25.355 150.944  -4.285  -1.095 212.500

                      1                      2                      3
                      A                      A                      A
 Frequencies --     43.7521                47.1902                74.9795
 Red. masses --      2.5591                 4.0765                 3.8588
 Frc consts  --      0.0029                 0.0053                 0.0128
 IR Inten    --      0.1106                 1.6393                 0.0759

                      4                      5                      6
                      A                      A                      A
 Frequencies --    110.0091               156.9500               170.7250
 Red. masses --      2.9063                 2.5110                 1.9647
 Frc consts  --      0.0207                 0.0364                 0.0337
 IR Inten    --      0.1830                 1.0633                 1.0036

                      7                      8                      9
                      A                      A                      A
 Frequencies --    179.9436               237.8120               244.1398
 Red. masses --      3.0852                 1.2257                 1.1787
 Frc consts  --      0.0589                 0.0408                 0.0414
 IR Inten    --      0.1647                 0.2777                 0.3158

                     10                     11                     12
                      A                      A                      A
 Frequencies --    253.1310               272.3232               299.8734
 Red. masses --      1.9565                 2.0297                 2.6349
 Frc consts  --      0.0739                 0.0887                 0.1396
 IR Inten    --      0.1280                 0.1706                 0.2831

                     13                     14                     15
                      A                      A                      A
 Frequencies --    321.7116               330.9662               356.6984
 Red. masses --      2.7342                 2.1652                 2.5832
 Frc consts  --      0.1667                 0.1397                 0.1937
 IR Inten    --      5.7661                16.6994                 1.3491

                     16                     17                     18
                      A                      A                      A
 Frequencies --    373.7821               415.4370               418.1194
 Red. masses --      1.3824                 2.5373                 3.1883
 Frc consts  --      0.1138                 0.2580                 0.3284
 IR Inten    --    112.4246                 0.9658                 4.5880

                     19                     20                     21
                      A                      A                      A
 Frequencies --    437.7544               469.7743               500.5825
 Red. masses --      2.1321                 2.9772                 3.5166
 Frc consts  --      0.2407                 0.3871                 0.5192
 IR Inten    --      3.9250                 3.2737                13.6460

                     22                     23                     24
                      A                      A                      A
 Frequencies --    582.4639               632.5911               655.1965
 Red. masses --      2.6460                 6.0481                 3.9846
 Frc consts  --      0.5289                 1.4260                 1.0078
 IR Inten    --      6.5248                 7.9943                 5.9946

                     25                     26                     27
                      A                      A                      A
 Frequencies --    744.4099               767.5811               790.3321
 Red. masses --      4.2236                 1.6997                 1.3468
 Frc consts  --      1.3790                 0.5900                 0.4957
 IR Inten    --      2.9756                12.2910                12.2355

                     28                     29                     30
                      A                      A                      A
 Frequencies --    814.4641               842.0445               864.5022
 Red. masses --      2.2093                 2.7620                 1.9458
 Frc consts  --      0.8635                 1.1539                 0.8568
 IR Inten    --      9.6226                 7.4798                 1.0232

                     31                     32                     33
                      A                      A                      A
 Frequencies --    915.7398               945.4425               958.7969
 Red. masses --      1.3254                 1.2088                 2.0205
 Frc consts  --      0.6549                 0.6366                 1.0943
 IR Inten    --      1.3686                 2.0947                25.7660

                     34                     35                     36
                      A                      A                      A
 Frequencies --    972.8361               976.5015               983.6371
 Red. masses --      1.9540                 1.4348                 1.6111
 Frc consts  --      1.0896                 0.8061                 0.9184
 IR Inten    --      8.1304                 0.0399                 3.9074

                     37                     38                     39
                      A                      A                      A
 Frequencies --    988.2991              1007.6320              1015.9108
 Red. masses --      1.9571                 1.2880                 4.8665
 Frc consts  --      1.1262                 0.7705                 2.9592
 IR Inten    --     15.2204                 0.1234                11.2028

                     40                     41                     42
                      A                      A                      A
 Frequencies --   1020.0637              1079.2553              1084.8867
 Red. masses --      2.0848                 2.3557                 2.2628
 Frc consts  --      1.2781                 1.6166                 1.5691
 IR Inten    --      9.2799                 5.7225                 2.9644

                     43                     44                     45
                      A                      A                      A
 Frequencies --   1114.1024              1130.0952              1153.6975
 Red. masses --      1.8234                 1.6993                 1.7713
 Frc consts  --      1.3335                 1.2787                 1.3891
 IR Inten    --      4.0764                13.9402                28.2619

                     46                     47                     48
                      A                      A                      A
 Frequencies --   1164.6738              1184.6801              1191.7138
 Red. masses --      1.9784                 1.1969                 2.0764
 Frc consts  --      1.5812                 0.9897                 1.7374
 IR Inten    --     14.5968                 0.6603                 5.7008

                     49                     50                     51
                      A                      A                      A
 Frequencies --   1210.1420              1252.3128              1291.1478
 Red. masses --      1.7474                 2.2013                 1.2219
 Frc consts  --      1.5077                 2.0340                 1.2002
 IR Inten    --      4.9740                 2.4807                16.5887

                     52                     53                     54
                      A                      A                      A
 Frequencies --   1305.7030              1321.6545              1330.5768
 Red. masses --      1.9730                 2.6811                 1.6979
 Frc consts  --      1.9818                 2.7593                 1.7711
 IR Inten    --      7.5362                 2.5045                 0.8951

                     55                     56                     57
                      A                      A                      A
 Frequencies --   1346.7147              1380.2420              1391.1026
 Red. masses --      1.3148                 1.6071                 1.4110
 Frc consts  --      1.4050                 1.8039                 1.6088
 IR Inten    --     11.3835                27.1276                 3.9650

                     58                     59                     60
                      A                      A                      A
 Frequencies --   1397.7712              1412.8296              1430.8386
 Red. masses --      1.5302                 1.5043                 1.2540
 Frc consts  --      1.7615                 1.7691                 1.5127
 IR Inten    --     16.2433                 2.4668                 2.9529

                     61                     62                     63
                      A                      A                      A
 Frequencies --   1438.9399              1452.7807              1476.1125
 Red. masses --      1.2652                 1.2315                 2.1259
 Frc consts  --      1.5434                 1.5314                 2.7291
 IR Inten    --      1.6675                 3.0382                17.9080

                     64                     65                     66
                      A                      A                      A
 Frequencies --   1509.6651              1513.5655              1520.4732
 Red. masses --      1.0793                 1.1132                 1.5862
 Frc consts  --      1.4493                 1.5025                 2.1606
 IR Inten    --      1.6501                 1.9838                11.5672

                     67                     68                     69
                      A                      A                      A
 Frequencies --   1524.6344              1525.4533              1532.0490
 Red. masses --      1.1522                 1.1147                 1.0581
 Frc consts  --      1.5781                 1.5283                 1.4633
 IR Inten    --      0.9220                11.1614                 6.8331

                     70                     71                     72
                      A                      A                      A
 Frequencies --   1535.5915              1544.7616              1549.3734
 Red. masses --      1.0546                 1.0612                 1.0497
 Frc consts  --      1.4652                 1.4920                 1.4846
 IR Inten    --      3.4259                 5.1047                14.9112

                     73                     74                     75
                      A                      A                      A
 Frequencies --   1629.1910              1649.3174              3031.7995
 Red. masses --      5.9569                 5.4121                 1.0797
 Frc consts  --      9.3157                 8.6740                 5.8475
 IR Inten    --     15.3008                36.1293                 5.4920

                     76                     77                     78
                      A                      A                      A
 Frequencies --   3036.7382              3041.9966              3043.9853
 Red. masses --      1.0371                 1.0471                 1.0703
 Frc consts  --      5.6349                 5.7088                 5.8431
 IR Inten    --     21.1715                20.6205                39.4644

                     79                     80                     81
                      A                      A                      A
 Frequencies --   3050.6603              3057.5311              3088.4269
 Red. masses --      1.0577                 1.0369                 1.1006
 Frc consts  --      5.7999                 5.7111                 6.1849
 IR Inten    --     35.7206                26.0354                19.9867

                     82                     83                     84
                      A                      A                      A
 Frequencies --   3097.9518              3105.2433              3111.4538
 Red. masses --      1.1015                 1.1010                 1.0973
 Frc consts  --      6.2284                 6.2549                 6.2588
 IR Inten    --      8.6761                82.9513                17.7207

                     85                     86                     87
                      A                      A                      A
 Frequencies --   3112.1915              3119.3229              3136.4062
 Red. masses --      1.0962                 1.1020                 1.1007
 Frc consts  --      6.2556                 6.3178                 6.3792
 IR Inten    --     34.3088                38.0001                32.8149

                     88                     89                     90
                      A                      A                      A
 Frequencies --   3154.5510              3170.8304              3193.0129
 Red. masses --      1.0968                 1.0891                 1.0887
 Frc consts  --      6.4307                 6.4513                 6.5398
 IR Inten    --      9.9487                24.5200                12.8564

                     91                     92                     93
                      A                      A                      A
 Frequencies --   3214.5635              3229.3489              3718.8095
 Red. masses --      1.0954                 1.0935                 1.0659
 Frc consts  --      6.6694                 6.7188                 8.6854
 IR Inten    --     24.9428                 3.0711                 6.3834

 - Thermochemistry -
 -------------------
 Temperature   298.150 Kelvin.  Pressure   1.00000 Atm.
 Atom     1 has atomic number  6 and mass  12.00000

 Molecular mass:   193.14666 amu.
 Principal axes and moments of inertia in atomic units:
                           1         2         3
     Eigenvalues --  1924.730193497.863194171.56102
           X            0.99997   0.00438   0.00561
           Y           -0.00423   0.99967  -0.02534
           Z           -0.00572   0.02532   0.99966
 This molecule is an asymmetric top.
 Rotational symmetry number  1.
 Warning -- assumption of classical behavior for rotation
           may cause significant error
 Rotational temperatures (Kelvin)      0.04500     0.02476     0.02076
 Rotational constants (GHZ):           0.93766     0.51596     0.43263
 Zero-point vibrational energy     768510.8 (Joules/Mol)
                                  183.67849 (Kcal/Mol)
 Warning -- explicit consideration of  22 degrees of freedom as
           vibrations may cause significant error
 Vibrational temperatures:     62.95    67.90   107.88   158.28   225.82
          (Kelvin)            245.64   258.90   342.16   351.26   364.20
                              391.81   431.45   462.87   476.19   513.21
                              537.79   597.72   601.58   629.83   675.90
                              720.23   838.04   910.16   942.68  1071.04
                             1104.38  1137.11  1171.83  1211.51  1243.83
                             1317.55  1360.28  1379.49  1399.69  1404.97
                             1415.23  1421.94  1449.76  1461.67  1467.64
                             1552.81  1560.91  1602.94  1625.95  1659.91
                             1675.71  1704.49  1714.61  1741.12  1801.80
                             1857.67  1878.62  1901.57  1914.40  1937.62
                             1985.86  2001.49  2011.08  2032.75  2058.66
                             2070.31  2090.23  2123.80  2172.07  2177.68
                             2187.62  2193.61  2194.79  2204.28  2209.37
                             2222.57  2229.20  2344.04  2373.00  4362.08
                             4369.19  4376.75  4379.62  4389.22  4399.11
                             4443.56  4457.26  4467.75  4476.69  4477.75
                             4488.01  4512.59  4538.70  4562.12  4594.03
                             4625.04  4646.31  5350.54

 Zero-point correction=                           0.292710 (Hartree/Particle)
 Thermal correction to Energy=                    0.307390
 Thermal correction to Enthalpy=                  0.308334
 Thermal correction to Gibbs Free Energy=         0.251554
 Sum of electronic and zero-point Energies=           -598.463520
 Sum of electronic and thermal Energies=              -598.448841
 Sum of electronic and thermal Enthalpies=            -598.447896
 Sum of electronic and thermal Free Energies=         -598.504676

                     E (Thermal)             CV                S
                      KCal/Mol        Cal/Mol-Kelvin    Cal/Mol-Kelvin
 Total                  192.890             56.756            119.503
 Electronic               0.000              0.000              0.000
 Translational            0.889              2.981             41.680
 Rotational               0.889              2.981             31.707
 Vibrational            191.113             50.794             46.115
 Vibration     1          0.595              1.980              5.082
 Vibration     2          0.595              1.979              4.932
 Vibration     3          0.599              1.966              4.018
 Vibration     4          0.606              1.941              3.269
 Vibration     5          0.621              1.895              2.586
 Vibration     6          0.626              1.879              2.427
 Vibration     7          0.629              1.867              2.329
 Vibration     8          0.656              1.783              1.819
 Vibration     9          0.659              1.772              1.773
 Vibration    10          0.664              1.758              1.709
 Vibration    11          0.675              1.724              1.581
 Vibration    12          0.692              1.674              1.418
 Vibration    13          0.707              1.632              1.301
 Vibration    14          0.713              1.614              1.255
 Vibration    15          0.732              1.561              1.136
 Vibration    16          0.745              1.526              1.064
 Vibration    17          0.779              1.437              0.908
 Vibration    18          0.781              1.431              0.898
 Vibration    19          0.798              1.388              0.834
 Vibration    20          0.827              1.317              0.738
 Vibration    21          0.856              1.249              0.657
 Vibration    22          0.939              1.069              0.481

 Optimization completed.
    -- Stationary point found.
 Normal termination of Gaussian 16 at Thu Dec 10 10:51:36 2020.

 ----------------------------------------------------------------------
 # B3LYP/6-311++G(d,p) empiricaldispersion=gd3bj scf=xqc pop=npa geom=c
 heck
 ----------------------------------------------------------------------

 ---------------------------------------
 CID_146396813_JID_4834_Energie_neutraal
 ---------------------------------------
 Structure from the checkpoint file:  "JID_4834.chk"
 Charge =  0 Multiplicity = 1

 SCF Done:  E(RB3LYP) =  -598.926641410     A.U. after   14 cycles
 Normal termination of Gaussian 16 at Thu Dec 10 10:56:57 2020.

 ----------------------------------------------------------------------
 # B3LYP/6-311++G(d,p) empiricaldispersion=gd3bj scf=xqc pop=npa geom=c
 heck
 ----------------------------------------------------------------------

 -------------------------------------
 CID_146396813_JID_4834_Energie_kation
 -------------------------------------
 Structure from the checkpoint file:  "JID_4834.chk"
 Charge =  1 Multiplicity = 2

 SCF Done:  E(UB3LYP) =  -598.602956080     A.U. after   28 cycles
 Normal termination of Gaussian 16 at Thu Dec 10 11:11:22 2020.
 Gaussian 16:  ES64L-G16RevA.03 25-Dec-2016

 ----------------------------------------------------------------------
 # B3LYP/6-311++G(d,p) empiricaldispersion=gd3bj scf=xqc pop=npa geom=c
 heck
 ----------------------------------------------------------------------

 ------------------------------------
 CID_146396813_JID_4834_Energie_anion
 ------------------------------------
 Structure from the checkpoint file:  "JID_4834.chk"
 Charge = -1 Multiplicity = 2

                         Standard orientation:
 ---------------------------------------------------------------------
 Center     Atomic      Atomic             Coordinates (Angstroms)
 Number     Number       Type             X           Y           Z
 ---------------------------------------------------------------------
      1          6           0       -2.375621    2.202394   -0.781347
      2          6           0       -0.981047    1.596689   -0.949895
      3          6           0       -0.460494    0.878883    0.307685
      4          6           0       -1.404809   -0.241511    0.797742
      5          6           0       -1.886306   -1.298055   -0.211217
      6          6           0       -0.763978   -2.192250   -0.754933
      7          6           0       -2.974819   -2.155123    0.451322
      8          6           0        0.972319    0.371097    0.111228
      9          6           0        1.740081    0.029591    1.234084
     10          6           0        3.035230   -0.441637    1.049396
     11          6           0        3.534662   -0.548763   -0.249262
     12          6           0        2.704630   -0.170192   -1.301565
     13          7           0        1.454137    0.278886   -1.135601
     14          8           0       -0.448346    1.795520    1.425796
     15          1           0       -3.146009    1.430943   -0.676275
     16          1           0       -2.636574    2.810899   -1.653859
     17          1           0       -2.417664    2.838338    0.108068
     18          1           0       -0.954567    0.904924   -1.796104
     19          1           0       -0.261149    2.386149   -1.204536
     20          1           0       -0.918990   -0.747465    1.642243
     21          1           0       -2.279012    0.270184    1.215910
     22          1           0       -2.347699   -0.779131   -1.062539
     23          1           0       -0.202375   -2.654551    0.067263
     24          1           0       -1.182370   -2.999451   -1.367775
     25          1           0       -0.056475   -1.633415   -1.370646
     26          1           0       -3.808659   -1.539672    0.808825
     27          1           0       -3.375599   -2.894518   -0.251395
     28          1           0       -2.569338   -2.700640    1.313244
     29          1           0        1.317483    0.149046    2.225216
     30          1           0        3.647309   -0.718746    1.903423
     31          1           0        4.539902   -0.910134   -0.442390
     32          1           0        3.055520   -0.228561   -2.330466
     33          1           0        0.164986    2.512709    1.195204
 ---------------------------------------------------------------------

 SCF Done:  E(UB3LYP) =  -598.913717982     A.U. after   33 cycles
 SCF Done:  E(UB3LYP) =  -598.913717981     a.u. after    1 cycles

 The electronic state is 2-A.
 Alpha  occ. eigenvalues --  -19.01300 -14.18692 -10.12346 -10.09363 -10.09122
 Alpha  occ. eigenvalues --  -10.07487 -10.06848 -10.06496 -10.06405 -10.06361
 Alpha  occ. eigenvalues --  -10.06099 -10.05706 -10.05503 -10.04982  -0.91742
 Alpha  occ. eigenvalues --   -0.82839  -0.71578  -0.68880  -0.67508  -0.64932
 Alpha  occ. eigenvalues --   -0.60768  -0.58372  -0.55217  -0.51950  -0.50516
 Alpha  occ. eigenvalues --   -0.48404  -0.44216  -0.41782  -0.38005  -0.37822
 Alpha  occ. eigenvalues --   -0.36841  -0.35296  -0.34331  -0.33048  -0.32935
 Alpha  occ. eigenvalues --   -0.32274  -0.29598  -0.29003  -0.28606  -0.28307
 Alpha  occ. eigenvalues --   -0.27933  -0.27059  -0.26042  -0.24587  -0.23974
 Alpha  occ. eigenvalues --   -0.23085  -0.22899  -0.22308  -0.20742  -0.18233
 Alpha  occ. eigenvalues --   -0.17597  -0.14583  -0.13971   0.04630
 Alpha virt. eigenvalues --    0.06463   0.07039   0.07496   0.08033   0.08616
 Alpha virt. eigenvalues --    0.08929   0.09057   0.09706   0.10183   0.10404
 Alpha virt. eigenvalues --    0.11546   0.11691   0.12410   0.12757   0.12895

  Beta  occ. eigenvalues --  -19.01259 -14.18519 -10.12345 -10.09320 -10.09109
  Beta  occ. eigenvalues --  -10.07480 -10.06696 -10.06468 -10.06416 -10.06347
  Beta  occ. eigenvalues --  -10.06096 -10.05694 -10.05486 -10.04970  -0.91645
  Beta  occ. eigenvalues --   -0.82601  -0.71551  -0.68660  -0.67444  -0.64850
  Beta  occ. eigenvalues --   -0.60728  -0.58344  -0.55167  -0.51741  -0.50452
  Beta  occ. eigenvalues --   -0.48317  -0.44166  -0.41695  -0.37950  -0.37747
  Beta  occ. eigenvalues --   -0.36778  -0.35243  -0.34274  -0.33021  -0.32893
  Beta  occ. eigenvalues --   -0.32213  -0.29496  -0.28884  -0.28528  -0.28279
  Beta  occ. eigenvalues --   -0.27691  -0.27004  -0.25986  -0.24546  -0.23926
  Beta  occ. eigenvalues --   -0.23054  -0.22879  -0.22272  -0.20687  -0.18153
  Beta  occ. eigenvalues --   -0.16853  -0.14349  -0.13774
  Beta virt. eigenvalues --    0.06546   0.07484   0.07660   0.08385   0.08511
  Beta virt. eigenvalues --    0.08778   0.09303   0.09482   0.10062   0.10389
  Beta virt. eigenvalues --    0.10458   0.11830   0.11899   0.12483   0.12934

 Mulliken charges and spin densities:
               1          2
     1  C    0.556099  -1.246251
     2  C   -1.579379   1.337239
     3  C    3.560159  -3.077553
     4  C    1.219360  -1.698461
     5  C   -1.453043   1.803148
     6  C   -0.368426  -0.350803
     7  C    0.703465  -1.302944
     8  C   -0.931604   0.615529
     9  C   -2.695117   2.556083
    10  C    1.223703  -1.625006
    11  C    0.286241  -0.497860
    12  C   -0.098212   0.025764
    13  N    0.022898   0.102632
    14  O   -0.166040   0.020525
    15  H    0.049033   0.081358
    16  H   -0.236740   0.366310
    17  H    0.030957   0.129581
    18  H   -0.001000   0.182183
    19  H   -0.002401   0.202967
    20  H    0.137943   0.007954
    21  H    0.352738  -0.161455
    22  H   -0.044994   0.202687
    23  H    0.026810   0.118827
    24  H    0.003056   0.132816
    25  H    0.282197  -0.134321
    26  H   -0.062962   0.183091
    27  H   -0.079681   0.214973
    28  H    0.013101   0.120439
    29  H   -0.148403   0.347278
    30  H   -0.588464   0.758930
    31  H   -0.638527   0.801260
    32  H   -0.172720   0.343626
    33  H   -0.200046   0.439453
 Sum of Mulliken charges =  -1.00000   1.00000

 Dipole moment (field-independent basis, Debye):
    X=             -3.9260    Y=             -0.5971    Z=             -0.5613  Tot=              4.0106
 Quadrupole moment (field-independent basis, Debye-Ang):
   XX=           -155.4578   YY=           -128.5531   ZZ=           -120.3149
   XY=              4.0156   XZ=             -3.4254   YZ=              0.9251

 Summary of Natural Population Analysis:

                                       Natural Population
                Natural  -----------------------------------------------
    Atom  No    Charge         Core      Valence    Rydberg      Total
 -----------------------------------------------------------------------
      C    1   -0.28757      0.99966     2.28343    0.00448     3.28757
      C    2   -0.20416      0.99959     2.19343    0.01114     3.20416
      C    3    0.12293      0.99948     1.86072    0.01688     2.87707
      C    4   -0.19090      0.99956     2.18139    0.00994     3.19090
      C    5   -0.11882      0.99961     2.10862    0.01059     3.11882
      C    6   -0.28897      0.99964     2.28424    0.00509     3.28897
      C    7   -0.27945      0.99965     2.27509    0.00471     3.27945
      C    8    0.10641      0.99948     1.87699    0.01712     2.89359
      C    9   -0.12177      0.99949     2.11242    0.00986     3.12177
      C   10   -0.05858      0.99956     2.04821    0.01081     3.05858
      C   11   -0.12272      0.99955     2.11346    0.00970     3.12272
      C   12    0.02804      0.99957     1.95781    0.01458     2.97196
      N   13   -0.22827      0.99967     2.71697    0.01163     3.72827
      O   14   -0.37732      0.99990     3.37064    0.00678     4.37732
      H   15    0.09398      0.00000     0.40496    0.00106     0.40602
      H   16    0.09646      0.00000     0.40269    0.00084     0.40354
      H   17    0.10245      0.00000     0.39628    0.00126     0.39755
      H   18    0.10859      0.00000     0.38975    0.00166     0.39141
      H   19    0.10130      0.00000     0.39738    0.00133     0.39870
      H   20    0.10151      0.00000     0.39722    0.00127     0.39849
      H   21    0.10419      0.00000     0.39448    0.00134     0.39581
      H   22    0.09295      0.00000     0.40512    0.00193     0.40705
      H   23    0.09699      0.00000     0.40204    0.00098     0.40301
      H   24    0.09373      0.00000     0.40541    0.00086     0.40627
      H   25    0.11146      0.00000     0.38703    0.00151     0.38854
      H   26    0.09667      0.00000     0.40242    0.00091     0.40333
      H   27    0.09683      0.00000     0.40224    0.00093     0.40317
      H   28    0.09529      0.00000     0.40375    0.00096     0.40471
      H   29    0.10937      0.00000     0.38932    0.00130     0.39063
      H   30    0.09948      0.00000     0.39901    0.00150     0.40052
      H   31    0.10241      0.00000     0.39601    0.00157     0.39759
      H   32    0.08692      0.00000     0.41204    0.00104     0.41308
      H   33    0.23053      0.00000     0.26590    0.00357     0.26947
 =======================================================================
   * Total *    0.00000     13.99442    38.83645    0.16913    53.00000

 Normal termination of Gaussian 16 at Thu Dec 10 11:24:42 2020.
