 Gaussian 16, Revision A.03,

 -----------------------------------------------------------
 # opt freq B3LYP/6-31G(d) empiricaldispersion=gd3bj scf=xqc
 -----------------------------------------------------------

 -------------------------------
 CID_115728248_JID_5630_neutraal
 -------------------------------
 Symbolic Z-matrix:
 Charge =  0 Multiplicity = 1

 SCF Done:  E(RB3LYP) =  -961.038690549     A.U. after   14 cycles
 SCF Done:  E(RB3LYP) =  -961.042455097     A.U. after   11 cycles
 SCF Done:  E(RB3LYP) =  -961.042987615     A.U. after   11 cycles
 SCF Done:  E(RB3LYP) =  -961.043355090     A.U. after   12 cycles
 SCF Done:  E(RB3LYP) =  -961.043500300     A.U. after   12 cycles
 SCF Done:  E(RB3LYP) =  -961.043658560     A.U. after   11 cycles
 SCF Done:  E(RB3LYP) =  -961.043758327     A.U. after   11 cycles
 SCF Done:  E(RB3LYP) =  -961.043773061     A.U. after   10 cycles
 SCF Done:  E(RB3LYP) =  -961.043798365     A.U. after   11 cycles
 SCF Done:  E(RB3LYP) =  -961.043802656     A.U. after   10 cycles
 SCF Done:  E(RB3LYP) =  -961.043821307     A.U. after    9 cycles
 SCF Done:  E(RB3LYP) =  -961.043825215     A.U. after   10 cycles
 SCF Done:  E(RB3LYP) =  -961.043826910     A.U. after   10 cycles
 SCF Done:  E(RB3LYP) =  -961.043827141     A.U. after    9 cycles
 SCF Done:  E(RB3LYP) =  -961.043827236     A.U. after    8 cycles
 Optimization completed.
    -- Stationary point found.
 Normal termination of Gaussian 16 at Thu Dec 10 15:53:20 2020.

 --------------------------------------------------------------------
 #N Geom=AllCheck Guess=TCheck SCRF=Check GenChk RB3LYP/6-31G(d) Freq
 --------------------------------------------------------------------

 Structure from the checkpoint file:  "JID_5630.chk"
 -------------------------------
 CID_115728248_JID_5630_neutraal
 -------------------------------
 Charge =  0 Multiplicity = 1

 SCF Done:  E(RB3LYP) =  -961.043827236     A.U. after    1 cycles

  Exact polarizability: 228.823  -4.462 153.150  10.967   3.464 110.972
 Approx polarizability: 284.525  -7.509 244.159  15.976   9.706 171.829

                      1                      2                      3
                      A                      A                      A
 Frequencies --     18.6591                24.5135                30.8409
 Red. masses --      2.4813                 2.9997                 2.8436
 Frc consts  --      0.0005                 0.0011                 0.0016
 IR Inten    --      1.1809                 0.1957                 0.1293

                      4                      5                      6
                      A                      A                      A
 Frequencies --     54.1075                81.0357               102.0342
 Red. masses --      3.9312                 2.4147                 2.9099
 Frc consts  --      0.0068                 0.0093                 0.0178
 IR Inten    --      0.1418                 0.0651                 1.3724

                      7                      8                      9
                      A                      A                      A
 Frequencies --    121.3319               126.1797               151.0222
 Red. masses --      1.6718                 1.5565                 1.0738
 Frc consts  --      0.0145                 0.0146                 0.0144
 IR Inten    --      0.2654                 1.1707                 0.0820

                     10                     11                     12
                      A                      A                      A
 Frequencies --    186.2866               193.1318               215.0859
 Red. masses --      3.4585                 3.3427                 2.1632
 Frc consts  --      0.0707                 0.0735                 0.0590
 IR Inten    --      0.1764                 0.3841                 1.9206

                     13                     14                     15
                      A                      A                      A
 Frequencies --    215.8274               238.6527               264.9734
 Red. masses --      1.2254                 2.9483                 3.0416
 Frc consts  --      0.0336                 0.0989                 0.1258
 IR Inten    --      0.8606                 0.4955                 1.1414

                     16                     17                     18
                      A                      A                      A
 Frequencies --    271.5961               309.4025               356.7656
 Red. masses --      1.5060                 2.3532                 4.1793
 Frc consts  --      0.0655                 0.1327                 0.3134
 IR Inten    --      0.6943                 0.1297                 0.3671

                     19                     20                     21
                      A                      A                      A
 Frequencies --    374.8147               422.2841               459.5688
 Red. masses --      4.2402                 2.7853                 2.8837
 Frc consts  --      0.3510                 0.2926                 0.3588
 IR Inten    --      1.2354                 2.5474                 1.0708

                     22                     23                     24
                      A                      A                      A
 Frequencies --    460.9344               471.9707               524.4911
 Red. masses --      2.8589                 2.6493                 3.1523
 Frc consts  --      0.3579                 0.3477                 0.5109
 IR Inten    --      3.1435                 0.5289                 1.4065

                     25                     26                     27
                      A                      A                      A
 Frequencies --    560.5172               592.9182               673.9731
 Red. masses --      4.5645                 3.9118                 4.8566
 Frc consts  --      0.8449                 0.8102                 1.2998
 IR Inten    --      4.3265                 4.0025                 0.6416

                     28                     29                     30
                      A                      A                      A
 Frequencies --    705.2477               730.6918               756.8398
 Red. masses --      6.1235                 3.6985                 3.8065
 Frc consts  --      1.7945                 1.1634                 1.2846
 IR Inten    --      0.4797                 3.4123                 5.4101

                     31                     32                     33
                      A                      A                      A
 Frequencies --    778.7429               791.7347               854.8768
 Red. masses --      1.4543                 1.3733                 1.4615
 Frc consts  --      0.5196                 0.5072                 0.6293
 IR Inten    --     62.9621                 2.8417                15.6214

                     34                     35                     36
                      A                      A                      A
 Frequencies --    855.4577               901.2289               929.3262
 Red. masses --      1.5436                 1.2987                 1.8376
 Frc consts  --      0.6656                 0.6215                 0.9350
 IR Inten    --     14.8690                 3.7873                 1.0747

                     37                     38                     39
                      A                      A                      A
 Frequencies --    952.4883               980.7110               984.8509
 Red. masses --      3.0269                 1.2942                 1.2150
 Frc consts  --      1.6180                 0.7334                 0.6944
 IR Inten    --      1.5788                 2.3690                 1.5693

                     40                     41                     42
                      A                      A                      A
 Frequencies --    987.0182              1004.5076              1006.9965
 Red. masses --      1.1831                 1.9144                 1.3113
 Frc consts  --      0.6791                 1.1381                 0.7835
 IR Inten    --      3.9473                14.9936                24.4714

                     43                     44                     45
                      A                      A                      A
 Frequencies --   1016.6585              1034.5620              1058.3738
 Red. masses --      1.5892                 1.6152                 2.4618
 Frc consts  --      0.9678                 1.0186                 1.6247
 IR Inten    --      6.9018                10.7762                 1.6319

                     46                     47                     48
                      A                      A                      A
 Frequencies --   1073.9373              1074.7834              1136.5518
 Red. masses --      3.7479                 1.7393                 3.1107
 Frc consts  --      2.5468                 1.1838                 2.3675
 IR Inten    --      9.9738                 5.5039                23.6889

                     49                     50                     51
                      A                      A                      A
 Frequencies --   1163.4374              1165.2817              1184.7841
 Red. masses --      2.0163                 1.4601                 2.0315
 Frc consts  --      1.6080                 1.1681                 1.6801
 IR Inten    --      7.7712                 4.1326                41.5149

                     52                     53                     54
                      A                      A                      A
 Frequencies --   1201.0643              1202.9885              1263.3829
 Red. masses --      1.6613                 1.7639                 1.7800
 Frc consts  --      1.4120                 1.5040                 1.6740
 IR Inten    --      8.3344                18.0914                 4.7885

                     55                     56                     57
                      A                      A                      A
 Frequencies --   1267.5064              1305.5163              1317.5543
 Red. masses --      1.8882                 1.3049                 1.5351
 Frc consts  --      1.7873                 1.3103                 1.5701
 IR Inten    --      0.2172                 7.1380                 1.3056

                     58                     59                     60
                      A                      A                      A
 Frequencies --   1327.9042              1348.9158              1375.5671
 Red. masses --      2.3951                 1.6635                 1.3847
 Frc consts  --      2.4883                 1.7834                 1.5437
 IR Inten    --      8.0928                 2.6224                20.3015

                     61                     62                     63
                      A                      A                      A
 Frequencies --   1383.0775              1392.8899              1417.2916
 Red. masses --      1.1609                 1.4816                 1.6088
 Frc consts  --      1.3084                 1.6936                 1.9040
 IR Inten    --      5.6402                 6.2697                 6.4953

                     64                     65                     66
                      A                      A                      A
 Frequencies --   1435.0531              1442.8781              1444.2769
 Red. masses --      1.2779                 1.2353                 1.2362
 Frc consts  --      1.5505                 1.5153                 1.5193
 IR Inten    --     12.0789                 0.4695                 0.4701

                     67                     68                     69
                      A                      A                      A
 Frequencies --   1459.9256              1495.7272              1506.6348
 Red. masses --      2.2605                 1.0554                 1.1952
 Frc consts  --      2.8387                 1.3912                 1.5985
 IR Inten    --      8.6970                 7.4189                37.7553

                     70                     71                     72
                      A                      A                      A
 Frequencies --   1510.6336              1511.8096              1513.8380
 Red. masses --      1.1083                 1.1634                 1.0666
 Frc consts  --      1.4901                 1.5666                 1.4402
 IR Inten    --      9.4489                15.8876                 0.4736

                     73                     74                     75
                      A                      A                      A
 Frequencies --   1515.9252              1527.2032              1529.4480
 Red. masses --      1.3826                 1.0727                 1.0668
 Frc consts  --      1.8719                 1.4741                 1.4703
 IR Inten    --      7.1110                 5.2481                10.4772

                     76                     77                     78
                      A                      A                      A
 Frequencies --   1534.3545              1537.7679              1540.2732
 Red. masses --      1.1631                 1.1369                 1.2109
 Frc consts  --      1.6134                 1.5840                 1.6925
 IR Inten    --     15.1996                20.3048                 1.6981

                     79                     80                     81
                      A                      A                      A
 Frequencies --   1544.3715              1619.8741              1661.6371
 Red. masses --      1.0537                 6.3922                 5.6726
 Frc consts  --      1.4806                 9.8824                 9.2280
 IR Inten    --     10.5615                 2.3647                 8.3213

                     82                     83                     84
                      A                      A                      A
 Frequencies --   2958.7020              3013.2971              3024.7583
 Red. masses --      1.0712                 1.0775                 1.0769
 Frc consts  --      5.5247                 5.7644                 5.8051
 IR Inten    --     53.8492                 1.6446                13.8192

                     85                     86                     87
                      A                      A                      A
 Frequencies --   3027.7997              3042.7264              3047.7069
 Red. masses --      1.0834                 1.0412                 1.0373
 Frc consts  --      5.8521                 5.6796                 5.6766
 IR Inten    --     49.7704                30.7574                36.2292

                     88                     89                     90
                      A                      A                      A
 Frequencies --   3048.5102              3066.2156              3082.7158
 Red. masses --      1.0416                 1.0291                 1.0944
 Frc consts  --      5.7031                 5.7003                 6.1276
 IR Inten    --     20.7710                34.3677                10.5045

                     91                     92                     93
                      A                      A                      A
 Frequencies --   3106.3502              3110.5294              3111.4621
 Red. masses --      1.0936                 1.0970                 1.1014
 Frc consts  --      6.2175                 6.2537                 6.2822
 IR Inten    --     20.9072                30.1136                47.8668

                     94                     95                     96
                      A                      A                      A
 Frequencies --   3119.8353              3127.0879              3137.7294
 Red. masses --      1.1016                 1.1011                 1.1028
 Frc consts  --      6.3175                 6.3439                 6.3971
 IR Inten    --     56.6365                37.7831                10.4275

                     97                     98                     99
                      A                      A                      A
 Frequencies --   3152.5150              3156.6077              3166.3455
 Red. masses --      1.1070                 1.1058                 1.0894
 Frc consts  --      6.4819                 6.4917                 6.4348
 IR Inten    --     13.0497                 9.9047                22.1499

                    100                    101                    102
                      A                      A                      A
 Frequencies --   3201.7862              3221.7131              3472.1997
 Red. masses --      1.0885                 1.0933                 1.0734
 Frc consts  --      6.5745                 6.6859                 7.6247
 IR Inten    --      3.3962                 5.4880                 0.5706

 - Thermochemistry -
 -------------------
 Temperature   298.150 Kelvin.  Pressure   1.00000 Atm.
 Atom     1 has atomic number  6 and mass  12.00000

 Molecular mass:   223.13947 amu.
 Principal axes and moments of inertia in atomic units:
                           1         2         3
     Eigenvalues --  1271.88810********************
           X            0.99996   0.00652   0.00540
           Y           -0.00648   0.99996  -0.00620
           Z           -0.00544   0.00616   0.99997
 This molecule is an asymmetric top.
 Rotational symmetry number  1.
 Warning -- assumption of classical behavior for rotation
           may cause significant error
 Rotational temperatures (Kelvin)      0.06810     0.00853     0.00796
 Rotational constants (GHZ):           1.41895     0.17780     0.16594
 Zero-point vibrational energy     832384.9 (Joules/Mol)
                                  198.94477 (Kcal/Mol)
 Warning -- explicit consideration of  26 degrees of freedom as
           vibrations may cause significant error
 Vibrational temperatures:     26.85    35.27    44.37    77.85   116.59
          (Kelvin)            146.80   174.57   181.54   217.29   268.02
                              277.87   309.46   310.53   343.37   381.24
                              390.77   445.16   513.31   539.27   607.57
                              661.22   663.18   679.06   754.63   806.46
                              853.08   969.70  1014.69  1051.30  1088.92
                             1120.44  1139.13  1229.98  1230.81  1296.67
                             1337.09  1370.42  1411.02  1416.98  1420.10
                             1445.26  1448.84  1462.74  1488.50  1522.76
                             1545.16  1546.37  1635.24  1673.93  1676.58
                             1704.64  1728.06  1730.83  1817.73  1823.66
                             1878.35  1895.67  1910.56  1940.79  1979.13
                             1989.94  2004.06  2039.17  2064.72  2075.98
                             2077.99  2100.51  2152.02  2167.71  2173.46
                             2175.16  2178.08  2181.08  2197.30  2200.53
                             2207.59  2212.51  2216.11  2222.01  2330.64
                             2390.73  4256.91  4335.46  4351.95  4356.33
                             4377.80  4384.97  4386.13  4411.60  4435.34
                             4469.35  4475.36  4476.70  4488.75  4499.18
                             4514.49  4535.77  4541.65  4555.66  4606.66
                             4635.33  4995.72

 Zero-point correction=                           0.317039 (Hartree/Particle)
 Thermal correction to Energy=                    0.334737
 Thermal correction to Enthalpy=                  0.335681
 Thermal correction to Gibbs Free Energy=         0.268908
 Sum of electronic and zero-point Energies=           -960.726789
 Sum of electronic and thermal Energies=              -960.709090
 Sum of electronic and thermal Enthalpies=            -960.708146
 Sum of electronic and thermal Free Energies=         -960.774919

                     E (Thermal)             CV                S
                      KCal/Mol        Cal/Mol-Kelvin    Cal/Mol-Kelvin
 Total                  210.051             64.207            140.535
 Electronic               0.000              0.000              0.000
 Translational            0.889              2.981             42.110
 Rotational               0.889              2.981             33.307
 Vibrational            208.273             58.245             65.118
 Vibration     1          0.593              1.986              6.772
 Vibration     2          0.593              1.985              6.230
 Vibration     3          0.594              1.984              5.775
 Vibration     4          0.596              1.976              4.661
 Vibration     5          0.600              1.962              3.866
 Vibration     6          0.604              1.948              3.415
 Vibration     7          0.609              1.931              3.079
 Vibration     8          0.611              1.927              3.003
 Vibration     9          0.618              1.902              2.659
 Vibration    10          0.632              1.859              2.264
 Vibration    11          0.635              1.849              2.198
 Vibration    12          0.645              1.818              2.000
 Vibration    13          0.645              1.817              1.994
 Vibration    14          0.657              1.781              1.813
 Vibration    15          0.671              1.737              1.629
 Vibration    16          0.675              1.726              1.586
 Vibration    17          0.699              1.656              1.366
 Vibration    18          0.732              1.561              1.136
 Vibration    19          0.746              1.524              1.060
 Vibration    20          0.785              1.422              0.884
 Vibration    21          0.817              1.340              0.767
 Vibration    22          0.819              1.337              0.763
 Vibration    23          0.829              1.312              0.732
 Vibration    24          0.879              1.196              0.600
 Vibration    25          0.916              1.117              0.523
 Vibration    26          0.950              1.047              0.462

 Optimization completed.
    -- Stationary point found.
 Normal termination of Gaussian 16 at Thu Dec 10 16:03:34 2020.

 ----------------------------------------------------------------------
 # B3LYP/6-311++G(d,p) empiricaldispersion=gd3bj scf=xqc pop=npa geom=c
 heck
 ----------------------------------------------------------------------

 ---------------------------------------
 CID_115728248_JID_5630_Energie_neutraal
 ---------------------------------------
 Structure from the checkpoint file:  "JID_5630.chk"
 Charge =  0 Multiplicity = 1

 SCF Done:  E(RB3LYP) =  -961.223373481     A.U. after   16 cycles
 Normal termination of Gaussian 16 at Thu Dec 10 16:09:35 2020.

 ----------------------------------------------------------------------
 # B3LYP/6-311++G(d,p) empiricaldispersion=gd3bj scf=xqc pop=npa geom=c
 heck
 ----------------------------------------------------------------------

 -------------------------------------
 CID_115728248_JID_5630_Energie_kation
 -------------------------------------
 Structure from the checkpoint file:  "JID_5630.chk"
 Charge =  1 Multiplicity = 2

 SCF Done:  E(UB3LYP) =  -960.939256691     A.U. after   26 cycles
 Normal termination of Gaussian 16 at Thu Dec 10 16:23:54 2020.
 Gaussian 16:  ES64L-G16RevA.03 25-Dec-2016

 ----------------------------------------------------------------------
 # B3LYP/6-311++G(d,p) empiricaldispersion=gd3bj scf=xqc pop=npa geom=c
 heck
 ----------------------------------------------------------------------

 ------------------------------------
 CID_115728248_JID_5630_Energie_anion
 ------------------------------------
 Structure from the checkpoint file:  "JID_5630.chk"
 Charge = -1 Multiplicity = 2

                         Standard orientation:
 ---------------------------------------------------------------------
 Center     Atomic      Atomic             Coordinates (Angstroms)
 Number     Number       Type             X           Y           Z
 ---------------------------------------------------------------------
      1          6           0       -6.110977   -1.093841    0.062633
      2          6           0       -4.607057   -1.121522    0.346063
      3          6           0       -3.849358    0.138225   -0.098325
      4          6           0       -4.341552    1.401850    0.625941
      5          7           0       -2.412993   -0.118757    0.059468
      6          6           0       -1.520962    0.882032   -0.514591
      7          6           0       -0.073281    0.445258   -0.430790
      8          6           0        0.936577    1.382620   -0.201150
      9          6           0        2.290810    1.032718   -0.155263
     10          6           0        2.628699   -0.324541   -0.330074
     11          6           0        1.621714   -1.270738   -0.557781
     12          6           0        0.282771   -0.894418   -0.610562
     13         16           0        4.334312   -0.885374   -0.315216
     14          6           0        4.665454   -0.909062    1.487423
     15          6           0        3.331558    2.096724    0.085520
     16          1           0       -6.624714   -0.317915    0.640072
     17          1           0       -6.572484   -2.053507    0.319258
     18          1           0       -6.308057   -0.904434   -0.999811
     19          1           0       -4.439168   -1.273134    1.423199
     20          1           0       -4.146052   -1.976244   -0.161923
     21          1           0       -4.016836    0.270808   -1.177654
     22          1           0       -4.219135    1.291721    1.711764
     23          1           0       -3.781585    2.288457    0.311497
     24          1           0       -5.400373    1.596104    0.425869
     25          1           0       -2.193626   -0.237824    1.048418
     26          1           0       -1.614128    1.886672   -0.065245
     27          1           0       -1.806623    0.996962   -1.570709
     28          1           0        0.663672    2.426481   -0.057468
     29          1           0        1.902953   -2.310458   -0.694081
     30          1           0       -0.498025   -1.629362   -0.775595
     31          1           0        4.604635    0.092850    1.919483
     32          1           0        3.964034   -1.574090    1.996986
     33          1           0        5.682252   -1.289915    1.616572
     34          1           0        4.172703    1.992152   -0.606031
     35          1           0        2.899946    3.095296   -0.031310
     36          1           0        3.746198    2.034823    1.099638
 ---------------------------------------------------------------------

 SCF Done:  E(UB3LYP) =  -961.212364952     A.U. after   33 cycles
 SCF Done:  E(UB3LYP) =  -961.212364952     a.u. after    1 cycles

 The electronic state is 2-A.
 Alpha  occ. eigenvalues --  -88.73900 -14.20296 -10.10656 -10.10184 -10.09409
 Alpha  occ. eigenvalues --  -10.08943 -10.08455 -10.07723 -10.07585 -10.07471
 Alpha  occ. eigenvalues --  -10.07221 -10.07112 -10.07075 -10.06683 -10.06562
 Alpha  occ. eigenvalues --   -7.82479  -5.78881  -5.78523  -5.77844  -0.81900
 Alpha  occ. eigenvalues --   -0.76546  -0.70688  -0.68646  -0.67217  -0.64638
 Alpha  occ. eigenvalues --   -0.62516  -0.59063  -0.58266  -0.54594  -0.52327
 Alpha  occ. eigenvalues --   -0.50153  -0.48711  -0.46164  -0.39905  -0.39223
 Alpha  occ. eigenvalues --   -0.37515  -0.36861  -0.35119  -0.34917  -0.34142
 Alpha  occ. eigenvalues --   -0.33394  -0.32635  -0.31899  -0.31568  -0.31104
 Alpha  occ. eigenvalues --   -0.30441  -0.29631  -0.28997  -0.28750  -0.27419
 Alpha  occ. eigenvalues --   -0.26962  -0.25591  -0.24642  -0.24565  -0.23988
 Alpha  occ. eigenvalues --   -0.23341  -0.21533  -0.15415  -0.14798  -0.13333
 Alpha  occ. eigenvalues --   -0.12671   0.04054
 Alpha virt. eigenvalues --    0.05307   0.06785   0.06997   0.07546   0.07769
 Alpha virt. eigenvalues --    0.08039   0.08234   0.09207   0.09589   0.09768
 Alpha virt. eigenvalues --    0.10129   0.10441   0.10906   0.11191   0.11874

  Beta  occ. eigenvalues --  -88.73895 -14.20286 -10.10643 -10.10181 -10.09354
  Beta  occ. eigenvalues --  -10.08842 -10.08373 -10.07629 -10.07585 -10.07461
  Beta  occ. eigenvalues --  -10.07246 -10.07082 -10.07067 -10.06657 -10.06532
  Beta  occ. eigenvalues --   -7.82474  -5.78864  -5.78520  -5.77841  -0.81869
  Beta  occ. eigenvalues --   -0.76432  -0.70593  -0.68566  -0.67111  -0.64538
  Beta  occ. eigenvalues --   -0.62460  -0.59000  -0.58191  -0.54505  -0.52259
  Beta  occ. eigenvalues --   -0.50113  -0.48655  -0.46039  -0.39860  -0.39172
  Beta  occ. eigenvalues --   -0.37474  -0.36805  -0.35056  -0.34873  -0.34084
  Beta  occ. eigenvalues --   -0.33288  -0.32547  -0.31815  -0.31498  -0.31060
  Beta  occ. eigenvalues --   -0.30393  -0.29549  -0.28922  -0.28710  -0.27371
  Beta  occ. eigenvalues --   -0.26856  -0.25477  -0.24579  -0.24501  -0.23926
  Beta  occ. eigenvalues --   -0.23286  -0.21429  -0.15223  -0.14472  -0.13260
  Beta  occ. eigenvalues --   -0.12555
  Beta virt. eigenvalues --    0.05949   0.06444   0.07114   0.07423   0.07784
  Beta virt. eigenvalues --    0.08102   0.08160   0.08591   0.09411   0.09869
  Beta virt. eigenvalues --    0.09949   0.10331   0.10728   0.11108   0.11409

 Mulliken charges and spin densities:
               1          2
     1  C    0.676758  -1.356082
     2  C   -1.195062   1.171362
     3  C   -0.388841   0.241347
     4  C    1.019015  -1.571487
     5  N    0.153678  -0.016835
     6  C   -1.427742   0.666871
     7  C    2.327234  -1.184978
     8  C    0.313758  -0.762146
     9  C   -0.430677   0.582391
    10  C    0.811276   0.331784
    11  C   -1.176959   0.146783
    12  C   -0.872464   0.268732
    13  S   -0.572804   0.211799
    14  C    0.481462  -1.171272
    15  C    0.030221  -0.481806
    16  H   -0.112669   0.257578
    17  H   -0.232797   0.369451
    18  H   -0.196854   0.333477
    19  H   -0.019203   0.127338
    20  H    0.129032   0.033456
    21  H    0.031961   0.112489
    22  H   -0.101745   0.248846
    23  H   -0.203001   0.343193
    24  H   -0.136171   0.272578
    25  H    0.185678   0.004487
    26  H    0.244342  -0.077701
    27  H   -0.050340   0.202098
    28  H   -0.082448   0.180609
    29  H    0.176330   0.016719
    30  H    0.080257   0.088398
    31  H   -0.227189   0.379763
    32  H   -0.105172   0.282633
    33  H   -0.291187   0.450595
    34  H    0.132529   0.021057
    35  H    0.035206   0.096849
    36  H   -0.005410   0.179626
 Sum of Mulliken charges =  -1.00000   1.00000

 Dipole moment (field-independent basis, Debye):
    X=              0.5997    Y=              0.5243    Z=             -1.7050  Tot=              1.8819
 Quadrupole moment (field-independent basis, Debye-Ang):
   XX=           -242.4245   YY=           -131.4219   ZZ=           -133.2724
   XY=              5.2962   XZ=            -10.7374   YZ=             -0.7075

 Summary of Natural Population Analysis:

                                       Natural Population
                Natural  -----------------------------------------------
    Atom  No    Charge         Core      Valence    Rydberg      Total
 -----------------------------------------------------------------------
      C    1   -0.28483      0.99967     2.28096    0.00420     3.28483
      C    2   -0.18909      0.99962     2.18197    0.00750     3.18909
      C    3   -0.00922      0.99960     1.99656    0.01306     3.00922
      C    4   -0.29780      0.99965     2.29207    0.00609     3.29780
      N    5   -0.33836      0.99974     2.82797    0.01066     3.83836
      C    6   -0.09075      0.99959     2.08163    0.00954     3.09075
      C    7    0.00148      0.99951     1.98986    0.00915     2.99852
      C    8   -0.10529      0.99947     2.09814    0.00768     3.10529
      C    9   -0.00307      0.99945     1.99290    0.01072     3.00307
      C   10   -0.08753      0.99935     2.07387    0.01430     3.08753
      C   11   -0.09508      0.99950     2.08531    0.01028     3.09508
      C   12   -0.10143      0.99951     2.09350    0.00843     3.10143
      S   13    0.09262      4.99957     2.88644    0.02138     7.90738
      C   14   -0.33996      0.99962     2.33416    0.00618     3.33996
      C   15   -0.29653      0.99963     2.29114    0.00575     3.29653
      H   16    0.09708      0.00000     0.40150    0.00142     0.40292
      H   17    0.09833      0.00000     0.40058    0.00108     0.40167
      H   18    0.09624      0.00000     0.40247    0.00130     0.40376
      H   19    0.09109      0.00000     0.40775    0.00115     0.40891
      H   20    0.10132      0.00000     0.39730    0.00138     0.39868
      H   21    0.08779      0.00000     0.41021    0.00200     0.41221
      H   22    0.09544      0.00000     0.40346    0.00110     0.40456
      H   23    0.10034      0.00000     0.39860    0.00106     0.39966
      H   24    0.10172      0.00000     0.39722    0.00107     0.39828
      H   25    0.17023      0.00000     0.32716    0.00261     0.32977
      H   26    0.08074      0.00000     0.41657    0.00269     0.41926
      H   27    0.09781      0.00000     0.40083    0.00135     0.40219
      H   28    0.09618      0.00000     0.40266    0.00116     0.40382
      H   29    0.10200      0.00000     0.39680    0.00121     0.39800
      H   30    0.10821      0.00000     0.39051    0.00127     0.39179
      H   31    0.10079      0.00000     0.39733    0.00188     0.39921
      H   32    0.10109      0.00000     0.39735    0.00156     0.39891
      H   33    0.10524      0.00000     0.39302    0.00174     0.39476
      H   34    0.10898      0.00000     0.38976    0.00126     0.39102
      H   35    0.09812      0.00000     0.40110    0.00078     0.40188
      H   36    0.10610      0.00000     0.39267    0.00123     0.39390
 =======================================================================
   * Total *    0.00000     18.99347    41.83131    0.17522    61.00000

 Normal termination of Gaussian 16 at Thu Dec 10 16:38:43 2020.
