 Gaussian 16, Revision A.03,

 -----------------------------------------------------------
 # opt freq B3LYP/6-31G(d) empiricaldispersion=gd3bj scf=xqc
 -----------------------------------------------------------

 -------------------------------
 CID_149833501_JID_8324_neutraal
 -------------------------------
 Symbolic Z-matrix:
 Charge =  0 Multiplicity = 1

 SCF Done:  E(RB3LYP) =  -1293.15841187     A.U. after   15 cycles
 SCF Done:  E(RB3LYP) =  -1293.16461922     A.U. after   13 cycles
 SCF Done:  E(RB3LYP) =  -1293.16383561     A.U. after   13 cycles
 SCF Done:  E(RB3LYP) =  -1293.16572332     A.U. after   13 cycles
 SCF Done:  E(RB3LYP) =  -1293.16576217     A.U. after   13 cycles
 SCF Done:  E(RB3LYP) =  -1293.16660740     A.U. after   12 cycles
 SCF Done:  E(RB3LYP) =  -1293.16721044     A.U. after   13 cycles
 SCF Done:  E(RB3LYP) =  -1293.16729798     A.U. after   15 cycles
 SCF Done:  E(RB3LYP) =  -1293.16813542     A.U. after   12 cycles
 SCF Done:  E(RB3LYP) =  -1293.16832544     A.U. after   12 cycles
 SCF Done:  E(RB3LYP) =  -1293.16843245     A.U. after   10 cycles
 SCF Done:  E(RB3LYP) =  -1293.16843303     A.U. after    9 cycles
 SCF Done:  E(RB3LYP) =  -1293.16843350     A.U. after    8 cycles
 SCF Done:  E(RB3LYP) =  -1293.16843365     A.U. after    7 cycles
 SCF Done:  E(RB3LYP) =  -1293.16843370     A.U. after    6 cycles
 SCF Done:  E(RB3LYP) =  -1293.16843371     A.U. after    6 cycles
 Optimization completed.
    -- Stationary point found.
 Normal termination of Gaussian 16 at Fri Dec 11 20:14:53 2020.

 --------------------------------------------------------------------
 #N Geom=AllCheck Guess=TCheck SCRF=Check GenChk RB3LYP/6-31G(d) Freq
 --------------------------------------------------------------------

 Structure from the checkpoint file:  "JID_8324.chk"
 -------------------------------
 CID_149833501_JID_8324_neutraal
 -------------------------------
 Charge =  0 Multiplicity = 1

 SCF Done:  E(RB3LYP) =  -1293.16843371     A.U. after    1 cycles

  Exact polarizability: 183.098  -5.310 174.733 -15.156  -7.844  88.995
 Approx polarizability: 264.370  -0.218 275.021 -39.300 -20.952 149.506

                      1                      2                      3
                      A                      A                      A
 Frequencies --     30.1245                39.3771                47.6339
 Red. masses --      6.3354                 7.5595                 5.5762
 Frc consts  --      0.0034                 0.0069                 0.0075
 IR Inten    --      4.3148                 4.3926                 0.7557

                      4                      5                      6
                      A                      A                      A
 Frequencies --     67.1844                91.6450               110.3161
 Red. masses --      5.5046                 5.4880                 3.1707
 Frc consts  --      0.0146                 0.0272                 0.0227
 IR Inten    --      3.3537                 0.7207                 2.5303

                      7                      8                      9
                      A                      A                      A
 Frequencies --    128.5082               147.6676               150.7745
 Red. masses --      1.2447                 2.7452                 1.1373
 Frc consts  --      0.0121                 0.0353                 0.0152
 IR Inten    --      1.2242                 1.4236                 0.2559

                     10                     11                     12
                      A                      A                      A
 Frequencies --    165.2354               181.7505               209.3084
 Red. masses --      2.6619                 1.6692                 5.1962
 Frc consts  --      0.0428                 0.0325                 0.1341
 IR Inten    --     33.6063                72.8517                 2.5313

                     13                     14                     15
                      A                      A                      A
 Frequencies --    225.3193               228.9696               241.5463
 Red. masses --      4.5935                 4.1431                 3.8727
 Frc consts  --      0.1374                 0.1280                 0.1331
 IR Inten    --     17.8696                 1.8351                17.7996

                     16                     17                     18
                      A                      A                      A
 Frequencies --    264.6963               287.2138               292.2527
 Red. masses --      6.1843                 2.1995                 1.4519
 Frc consts  --      0.2553                 0.1069                 0.0731
 IR Inten    --     16.0372                 7.4320                14.1853

                     19                     20                     21
                      A                      A                      A
 Frequencies --    317.1663               348.3327               390.0955
 Red. masses --      3.9286                 2.5247                 5.3070
 Frc consts  --      0.2328                 0.1805                 0.4758
 IR Inten    --     17.1653                 7.9679                 7.4108

                     22                     23                     24
                      A                      A                      A
 Frequencies --    404.7633               423.3593               435.0130
 Red. masses --      5.7209                 4.4409                 5.5976
 Frc consts  --      0.5522                 0.4690                 0.6241
 IR Inten    --     10.8642                16.7737                 7.4623

                     25                     26                     27
                      A                      A                      A
 Frequencies --    454.4237               483.4314               496.2261
 Red. masses --      8.3211                 6.3378                 6.4558
 Frc consts  --      1.0124                 0.8727                 0.9366
 IR Inten    --     16.0090                16.0314                 6.3069

                     28                     29                     30
                      A                      A                      A
 Frequencies --    532.6441               582.7592               613.7518
 Red. masses --      5.4872                 1.5651                 3.8682
 Frc consts  --      0.9172                 0.3132                 0.8585
 IR Inten    --    113.9387               261.8060                47.0267

                     31                     32                     33
                      A                      A                      A
 Frequencies --    619.0589               652.3923               695.4191
 Red. masses --      3.6213                 4.1568                 7.2442
 Frc consts  --      0.8177                 1.0424                 2.0641
 IR Inten    --     28.9185                71.7498                 9.9725

                     34                     35                     36
                      A                      A                      A
 Frequencies --    751.1016               761.2327               791.5341
 Red. masses --      8.1706                 4.7123                 5.5594
 Frc consts  --      2.7158                 1.6089                 2.0522
 IR Inten    --     22.0623                 1.8801                10.3025

                     37                     38                     39
                      A                      A                      A
 Frequencies --    795.9632               813.6649               880.0730
 Red. masses --      6.7908                 6.1939                 1.5759
 Frc consts  --      2.5349                 2.4160                 0.7191
 IR Inten    --    130.8968                30.0526                33.2481

                     40                     41                     42
                      A                      A                      A
 Frequencies --    911.3364               919.0630               944.5942
 Red. masses --      2.6816                 1.4287                 3.2577
 Frc consts  --      1.3122                 0.7110                 1.7126
 IR Inten    --     12.5155                 5.2470                13.9091

                     43                     44                     45
                      A                      A                      A
 Frequencies --   1017.3280              1033.6140              1049.9099
 Red. masses --      4.4477                 7.3734                 5.3440
 Frc consts  --      2.7121                 4.6413                 3.4707
 IR Inten    --      3.1067                41.9533                77.8934

                     46                     47                     48
                      A                      A                      A
 Frequencies --   1126.6931              1132.0283              1159.4716
 Red. masses --      3.1500                 1.5537                 1.5325
 Frc consts  --      2.3560                 1.1731                 1.2139
 IR Inten    --     55.3572                40.7255                38.8392

                     49                     50                     51
                      A                      A                      A
 Frequencies --   1177.1194              1185.3971              1189.9448
 Red. masses --      1.8687                 1.2747                 1.2487
 Frc consts  --      1.5256                 1.0554                 1.0417
 IR Inten    --     74.6771                 0.8048                 7.0446

                     52                     53                     54
                      A                      A                      A
 Frequencies --   1200.4109              1217.9439              1224.3891
 Red. masses --      1.3340                 1.4157                 1.4772
 Frc consts  --      1.1325                 1.2373                 1.3047
 IR Inten    --     51.4955                 1.3917                12.2053

                     55                     56                     57
                      A                      A                      A
 Frequencies --   1257.7446              1270.0183              1302.0393
 Red. masses --      2.4706                 1.8616                 1.5834
 Frc consts  --      2.3027                 1.7691                 1.5816
 IR Inten    --    102.3620                61.6864               133.3277

                     58                     59                     60
                      A                      A                      A
 Frequencies --   1320.5394              1364.7309              1376.3141
 Red. masses --      3.6374                 5.1000                 5.8704
 Frc consts  --      3.7371                 5.5965                 6.5517
 IR Inten    --    306.4934                17.6293               110.3238

                     61                     62                     63
                      A                      A                      A
 Frequencies --   1382.0149              1475.1837              1486.0093
 Red. masses --      5.0149                 1.1163                 1.4615
 Frc consts  --      5.6434                 1.4312                 1.9015
 IR Inten    --    245.1073                15.5819                57.7111

                     64                     65                     66
                      A                      A                      A
 Frequencies --   1491.9260              1505.5099              1512.4148
 Red. masses --      1.3687                 2.9566                 1.0495
 Frc consts  --      1.7949                 3.9483                 1.4144
 IR Inten    --     53.1726                28.7717                 6.1679

                     67                     68                     69
                      A                      A                      A
 Frequencies --   1523.7168              1524.3671              1533.1936
 Red. masses --      1.0532                 1.0508                 2.0188
 Frc consts  --      1.4407                 1.4386                 2.7960
 IR Inten    --      5.4123                 3.0327               132.9716

                     70                     71                     72
                      A                      A                      A
 Frequencies --   1538.1141              1635.5998              1669.7712
 Red. masses --      1.1055                 7.1735                 3.3649
 Frc consts  --      1.5409                11.3067                 5.5275
 IR Inten    --      2.5983                13.1847                29.0554

                     73                     74                     75
                      A                      A                      A
 Frequencies --   1695.9790              1788.2230              3067.9043
 Red. masses --      1.3342                11.4236                 1.0287
 Frc consts  --      2.2611                21.5227                 5.7044
 IR Inten    --    126.6141               221.3774                50.5609

                     76                     77                     78
                      A                      A                      A
 Frequencies --   3076.8798              3107.4498              3147.5256
 Red. masses --      1.0295                 1.0600                 1.1065
 Frc consts  --      5.7427                 6.0306                 6.4584
 IR Inten    --     37.4439                 5.8725                16.1767

                     79                     80                     81
                      A                      A                      A
 Frequencies --   3151.5845              3166.3060              3172.4692
 Red. masses --      1.1074                 1.1072                 1.1057
 Frc consts  --      6.4807                 6.5404                 6.5567
 IR Inten    --     19.4621                15.7126                 2.7588

                     82                     83                     84
                      A                      A                      A
 Frequencies --   3185.6003              3189.1422              3214.8345
 Red. masses --      1.1071                 1.0904                 1.0900
 Frc consts  --      6.6196                 6.5339                 6.6372
 IR Inten    --     15.4823                 6.7707                 4.6322

                     85                     86                     87
                      A                      A                      A
 Frequencies --   3557.6262              3657.3345              3709.0775
 Red. masses --      1.0478                 1.0986                 1.0659
 Frc consts  --      7.8139                 8.6584                 8.6397
 IR Inten    --     19.2803                11.4020                79.9367

 - Thermochemistry -
 -------------------
 Temperature   298.150 Kelvin.  Pressure   1.00000 Atm.
 Atom     1 has atomic number  6 and mass  12.00000

 Molecular mass:   275.04636 amu.
 Principal axes and moments of inertia in atomic units:
                           1         2         3
     Eigenvalues --  2986.820987079.998749354.93638
           X            0.99965  -0.02645  -0.00313
           Y            0.02645   0.99965  -0.00218
           Z            0.00319   0.00210   0.99999
 This molecule is an asymmetric top.
 Rotational symmetry number  1.
 Warning -- assumption of classical behavior for rotation
           may cause significant error
 Rotational temperatures (Kelvin)      0.02900     0.01223     0.00926
 Rotational constants (GHZ):           0.60423     0.25491     0.19292
 Zero-point vibrational energy     620253.7 (Joules/Mol)
                                  148.24419 (Kcal/Mol)
 Warning -- explicit consideration of  31 degrees of freedom as
           vibrations may cause significant error
 Vibrational temperatures:     43.34    56.65    68.53    96.66   131.86
          (Kelvin)            158.72   184.89   212.46   216.93   237.74
                              261.50   301.15   324.18   329.44   347.53
                              380.84   413.24   420.49   456.33   501.17
                              561.26   582.36   609.12   625.89   653.81
                              695.55   713.96   766.36   838.46   883.05
                              890.69   938.65  1000.55  1080.67  1095.24
                             1138.84  1145.21  1170.68  1266.23  1311.21
                             1322.33  1359.06  1463.71  1487.14  1510.59
                             1621.06  1628.74  1668.22  1693.61  1705.52
                             1712.07  1727.12  1752.35  1761.62  1809.61
                             1827.27  1873.34  1899.96  1963.54  1980.21
                             1988.41  2122.46  2138.04  2146.55  2166.09
                             2176.03  2192.29  2193.22  2205.92  2213.00
                             2353.26  2402.43  2440.14  2572.85  4414.03
                             4426.94  4470.93  4528.59  4534.43  4555.61
                             4564.48  4583.37  4588.46  4625.43  5118.63
                             5262.09  5336.54

 Zero-point correction=                           0.236242 (Hartree/Particle)
 Thermal correction to Energy=                    0.255114
 Thermal correction to Enthalpy=                  0.256058
 Thermal correction to Gibbs Free Energy=         0.188406
 Sum of electronic and zero-point Energies=          -1292.932192
 Sum of electronic and thermal Energies=             -1292.913320
 Sum of electronic and thermal Enthalpies=           -1292.912376
 Sum of electronic and thermal Free Energies=        -1292.980028

                     E (Thermal)             CV                S
                      KCal/Mol        Cal/Mol-Kelvin    Cal/Mol-Kelvin
 Total                  160.086             68.566            142.386
 Electronic               0.000              0.000              0.000
 Translational            0.889              2.981             42.734
 Rotational               0.889              2.981             33.647
 Vibrational            158.309             62.604             66.005
 Vibration     1          0.594              1.984              5.821
 Vibration     2          0.594              1.981              5.290
 Vibration     3          0.595              1.978              4.913
 Vibration     4          0.598              1.970              4.234
 Vibration     5          0.602              1.955              3.625
 Vibration     6          0.606              1.941              3.263
 Vibration     7          0.611              1.925              2.968
 Vibration     8          0.617              1.905              2.702
 Vibration     9          0.618              1.902              2.662
 Vibration    10          0.624              1.885              2.489
 Vibration    11          0.630              1.865              2.310
 Vibration    12          0.642              1.827              2.050
 Vibration    13          0.650              1.802              1.916
 Vibration    14          0.652              1.797              1.887
 Vibration    15          0.658              1.777              1.791
 Vibration    16          0.671              1.738              1.631
 Vibration    17          0.684              1.697              1.490
 Vibration    18          0.688              1.688              1.461
 Vibration    19          0.704              1.641              1.325
 Vibration    20          0.726              1.579              1.174
 Vibration    21          0.758              1.491              1.000
 Vibration    22          0.770              1.460              0.945
 Vibration    23          0.786              1.419              0.881
 Vibration    24          0.796              1.394              0.842
 Vibration    25          0.813              1.351              0.783
 Vibration    26          0.840              1.287              0.701
 Vibration    27          0.852              1.258              0.668
 Vibration    28          0.888              1.178              0.581
 Vibration    29          0.940              1.069              0.480
 Vibration    30          0.973              1.003              0.427
 Vibration    31          0.979              0.992              0.418

 Optimization completed.
    -- Stationary point found.
 Normal termination of Gaussian 16 at Fri Dec 11 20:26:19 2020.

 ----------------------------------------------------------------------
 # B3LYP/6-311++G(d,p) empiricaldispersion=gd3bj scf=xqc pop=npa geom=c
 heck
 ----------------------------------------------------------------------

 ---------------------------------------
 CID_149833501_JID_8324_Energie_neutraal
 ---------------------------------------
 Structure from the checkpoint file:  "JID_8324.chk"
 Charge =  0 Multiplicity = 1

 SCF Done:  E(RB3LYP) =  -1293.46516956     A.U. after   16 cycles
 Normal termination of Gaussian 16 at Fri Dec 11 20:32:20 2020.

 ----------------------------------------------------------------------
 # B3LYP/6-311++G(d,p) empiricaldispersion=gd3bj scf=xqc pop=npa geom=c
 heck
 ----------------------------------------------------------------------

 -------------------------------------
 CID_149833501_JID_8324_Energie_kation
 -------------------------------------
 Structure from the checkpoint file:  "JID_8324.chk"
 Charge =  1 Multiplicity = 2

 SCF Done:  E(UB3LYP) =  -1293.17146122     A.U. after   24 cycles
 Normal termination of Gaussian 16 at Fri Dec 11 20:45:30 2020.
 Gaussian 16:  ES64L-G16RevA.03 25-Dec-2016

 ----------------------------------------------------------------------
 # B3LYP/6-311++G(d,p) empiricaldispersion=gd3bj scf=xqc pop=npa geom=c
 heck
 ----------------------------------------------------------------------

 ------------------------------------
 CID_149833501_JID_8324_Energie_anion
 ------------------------------------
 Structure from the checkpoint file:  "JID_8324.chk"
 Charge = -1 Multiplicity = 2

                         Standard orientation:
 ---------------------------------------------------------------------
 Center     Atomic      Atomic             Coordinates (Angstroms)
 Number     Number       Type             X           Y           Z
 ---------------------------------------------------------------------
      1          6           0        0.604783   -2.414032   -0.484265
      2          8           0        0.600811   -1.577684    0.683377
      3          6           0        0.557697   -0.227859    0.452358
      4          6           0       -0.654691    0.441622    0.698770
      5          6           0       -0.751019    1.823470    0.529679
      6          6           0        0.346133    2.577505    0.093221
      7          6           0        1.549771    1.907020   -0.144424
      8          6           0        1.678112    0.527193    0.046999
      9          6           0        3.058247   -0.003973   -0.179489
     10          8           0        3.943454    0.643891   -0.706327
     11          8           0        3.249627   -1.253192    0.284798
     12          6           0        4.578030   -1.768347    0.107241
     13          7           0        0.263644    3.965560   -0.025323
     14          6           0       -1.849156   -0.342984    1.151955
     15         16           0       -3.040628   -0.692340   -0.177201
     16          8           0       -2.349373   -1.187994   -1.369795
     17          8           0       -4.171727   -1.399779    0.402128
     18          8           0       -3.559915    0.831366   -0.546761
     19          1           0        0.640381   -3.439478   -0.111336
     20          1           0        1.490222   -2.224779   -1.097650
     21          1           0       -0.305083   -2.256653   -1.069671
     22          1           0       -1.695581    2.317560    0.741580
     23          1           0        2.431575    2.452717   -0.463957
     24          1           0        4.840407   -1.798032   -0.953500
     25          1           0        5.303860   -1.143782    0.633997
     26          1           0        4.555358   -2.773224    0.528758
     27          1           0        0.949195    4.382307   -0.642318
     28          1           0       -0.664858    4.329608   -0.197196
     29          1           0       -1.560605   -1.328241    1.522671
     30          1           0       -2.435881    0.174983    1.914714
     31          1           0       -3.154898    1.054968   -1.405243
 ---------------------------------------------------------------------

 SCF Done:  E(UB3LYP) =  -1293.47996893     A.U. after   27 cycles

 The electronic state is 2-A.
 Alpha  occ. eigenvalues --  -88.96601 -19.06655 -19.03294 -19.02200 -19.02185
 Alpha  occ. eigenvalues --  -19.01370 -18.95808 -14.20097 -10.14580 -10.11540
 Alpha  occ. eigenvalues --  -10.10126 -10.09570 -10.09518 -10.07760 -10.04972
 Alpha  occ. eigenvalues --  -10.03568 -10.02607 -10.02028  -8.02819  -5.99214
 Alpha  occ. eigenvalues --   -5.99020  -5.98783  -1.04235  -0.97379  -0.93456
 Alpha  occ. eigenvalues --   -0.92950  -0.91555  -0.87693  -0.79820  -0.72142
 Alpha  occ. eigenvalues --   -0.67696  -0.62881  -0.60996  -0.59961  -0.56045
 Alpha  occ. eigenvalues --   -0.53486  -0.50039  -0.46816  -0.44811  -0.43534
 Alpha  occ. eigenvalues --   -0.41023  -0.40402  -0.39427  -0.38557  -0.37907
 Alpha  occ. eigenvalues --   -0.36598  -0.35838  -0.35177  -0.34165  -0.33812
 Alpha  occ. eigenvalues --   -0.32972  -0.31565  -0.30503  -0.29863  -0.28424
 Alpha  occ. eigenvalues --   -0.28198  -0.27094  -0.26604  -0.25083  -0.24430
 Alpha  occ. eigenvalues --   -0.23875  -0.23389  -0.22793  -0.22028  -0.21719
 Alpha  occ. eigenvalues --   -0.20940  -0.18222  -0.17669  -0.15252  -0.14215
 Alpha  occ. eigenvalues --   -0.12568  -0.08212   0.03854
 Alpha virt. eigenvalues --    0.07030   0.07709   0.08651   0.09789   0.10217
 Alpha virt. eigenvalues --    0.10916   0.11170   0.11566   0.12377   0.12576
 Alpha virt. eigenvalues --    0.13084   0.13893   0.14411   0.14630   0.14995

  Beta  occ. eigenvalues --  -88.96575 -19.06594 -19.03207 -19.02193 -19.02160
  Beta  occ. eigenvalues --  -19.01371 -18.95586 -14.20100 -10.14379 -10.11544
  Beta  occ. eigenvalues --  -10.10105 -10.09566 -10.09531 -10.07847 -10.04897
  Beta  occ. eigenvalues --  -10.03398 -10.02270 -10.01729  -8.02788  -5.99187
  Beta  occ. eigenvalues --   -5.98998  -5.98750  -1.04150  -0.97127  -0.93327
  Beta  occ. eigenvalues --   -0.92940  -0.91508  -0.87334  -0.79786  -0.71870
  Beta  occ. eigenvalues --   -0.67409  -0.62574  -0.60853  -0.59612  -0.55910
  Beta  occ. eigenvalues --   -0.53271  -0.49503  -0.46711  -0.44630  -0.43458
  Beta  occ. eigenvalues --   -0.40909  -0.40324  -0.39324  -0.38434  -0.37805
  Beta  occ. eigenvalues --   -0.36268  -0.35762  -0.35016  -0.34080  -0.33754
  Beta  occ. eigenvalues --   -0.32732  -0.31527  -0.30345  -0.29680  -0.28283
  Beta  occ. eigenvalues --   -0.27643  -0.26559  -0.26508  -0.24740  -0.24178
  Beta  occ. eigenvalues --   -0.23762  -0.23303  -0.22674  -0.21895  -0.21653
  Beta  occ. eigenvalues --   -0.20894  -0.17570  -0.17127  -0.15116  -0.13950
  Beta  occ. eigenvalues --   -0.10816  -0.07349
  Beta virt. eigenvalues --    0.07224   0.07706   0.08681   0.09247   0.09967
  Beta virt. eigenvalues --    0.10563   0.10897   0.11210   0.11893   0.12431
  Beta virt. eigenvalues --    0.12602   0.13106   0.13845   0.14543   0.14661

 Mulliken charges and spin densities:
               1          2
     1  C   -0.320604   0.000719
     2  O   -0.115909   0.005622
     3  C   -1.110651  -0.054745
     4  C    0.942736  -0.081149
     5  C   -0.502564   0.503484
     6  C   -0.170538  -0.095914
     7  C   -0.550872   0.204814
     8  C    0.788023   0.094049
     9  C   -0.029594   0.021836
    10  O   -0.344396   0.077823
    11  O   -0.111236   0.014745
    12  C   -0.218920  -0.004079
    13  N   -0.350286  -0.012211
    14  C   -0.931673   0.138496
    15  S    0.481401  -0.133385
    16  O   -0.268620   0.008535
    17  O   -0.147507   0.008060
    18  O   -0.188893  -0.001936
    19  H    0.126432  -0.001120
    20  H    0.135267   0.002132
    21  H    0.176748   0.002908
    22  H    0.171062  -0.036188
    23  H    0.151174  -0.006788
    24  H    0.164434   0.004011
    25  H    0.160330   0.001882
    26  H    0.125304  -0.000111
    27  H    0.226238  -0.001435
    28  H    0.134812   0.095171
    29  H    0.288655   0.004425
    30  H    0.243822   0.001518
    31  H    0.045825   0.238831
 Sum of Mulliken charges =  -1.00000   1.00000

 Dipole moment (field-independent basis, Debye):
    X=              0.6799    Y=             -1.5579    Z=              0.4450  Tot=              1.7570
 Quadrupole moment (field-independent basis, Debye-Ang):
   XX=           -171.8468   YY=           -128.4008   ZZ=           -124.1710
   XY=            -15.2653   XZ=             -0.2766   YZ=             -2.8999

 Summary of Natural Population Analysis:

                                       Natural Population
                Natural  -----------------------------------------------
    Atom  No    Charge         Core      Valence    Rydberg      Total
 -----------------------------------------------------------------------
      C    1   -0.09949      0.99959     2.09235    0.00755     3.09949
      O    2   -0.29515      0.99986     3.28544    0.00985     4.29515
      C    3    0.16187      0.99930     1.82378    0.01505     2.83813
      C    4   -0.05651      0.99947     2.04510    0.01195     3.05651
      C    5   -0.04667      0.99949     2.03800    0.00918     3.04667
      C    6    0.05770      0.99949     1.93122    0.01160     2.94230
      C    7   -0.03731      0.99951     2.02981    0.00799     3.03731
      C    8   -0.06274      0.99941     2.05364    0.00969     3.06274
      C    9    0.42691      0.99965     1.55008    0.02337     2.57309
      O   10   -0.30798      0.99987     3.30249    0.00561     4.30798
      O   11   -0.27260      0.99986     3.26386    0.00888     4.27260
      C   12   -0.10585      0.99961     2.09787    0.00837     3.10585
      N   13   -0.40735      0.99972     2.89755    0.01008     3.90735
      C   14   -0.28009      0.99953     2.26961    0.01095     3.28009
      S   15    1.11867      4.99940     1.77934    0.10260     6.88133
      O   16   -0.46330      0.99990     3.45719    0.00621     4.46330
      O   17   -0.45565      0.99990     3.45029    0.00546     4.45565
      O   18   -0.43959      0.99991     3.43297    0.00671     4.43959
      H   19    0.08049      0.00000     0.41862    0.00090     0.41951
      H   20    0.08444      0.00000     0.41433    0.00123     0.41556
      H   21    0.09408      0.00000     0.40483    0.00108     0.40592
      H   22    0.09188      0.00000     0.40670    0.00142     0.40812
      H   23    0.10146      0.00000     0.39738    0.00116     0.39854
      H   24    0.08697      0.00000     0.41186    0.00117     0.41303
      H   25    0.08785      0.00000     0.41099    0.00117     0.41215
      H   26    0.08346      0.00000     0.41573    0.00081     0.41654
      H   27    0.18053      0.00000     0.31809    0.00138     0.31947
      H   28    0.18081      0.00000     0.31776    0.00143     0.31919
      H   29    0.12578      0.00000     0.37287    0.00135     0.37422
      H   30    0.11634      0.00000     0.38279    0.00087     0.38366
      H   31    0.25106      0.00000     0.24351    0.00543     0.24894
 =======================================================================
   * Total *   -0.00000     21.99345    49.71604    0.29051    72.00000

 Normal termination of Gaussian 16 at Fri Dec 11 20:59:31 2020.
