 Gaussian 16, Revision A.03,

 -----------------------------------------------------------
 # opt freq B3LYP/6-31G(d) empiricaldispersion=gd3bj scf=xqc
 -----------------------------------------------------------

 -------------------------------
 CID_150886190_JID_4189_neutraal
 -------------------------------
 Symbolic Z-matrix:
 Charge =  0 Multiplicity = 1

 SCF Done:  E(RB3LYP) =  -598.475244045     A.U. after   13 cycles
 SCF Done:  E(RB3LYP) =  -598.482191483     A.U. after   12 cycles
 SCF Done:  E(RB3LYP) =  -598.483196817     A.U. after   12 cycles
 SCF Done:  E(RB3LYP) =  -598.483691332     A.U. after   11 cycles
 SCF Done:  E(RB3LYP) =  -598.483814956     A.U. after   11 cycles
 SCF Done:  E(RB3LYP) =  -598.484022979     A.U. after   11 cycles
 SCF Done:  E(RB3LYP) =  -598.484196573     A.U. after   11 cycles
 SCF Done:  E(RB3LYP) =  -598.484213563     A.U. after   10 cycles
 SCF Done:  E(RB3LYP) =  -598.484218513     A.U. after    8 cycles
 SCF Done:  E(RB3LYP) =  -598.484218730     A.U. after    7 cycles
 SCF Done:  E(RB3LYP) =  -598.484218840     A.U. after    6 cycles
 SCF Done:  E(RB3LYP) =  -598.484218808     A.U. after    6 cycles
 SCF Done:  E(RB3LYP) =  -598.484218814     A.U. after    6 cycles
 Optimization completed.
    -- Stationary point found.
 Normal termination of Gaussian 16 at Thu Dec 10 09:21:37 2020.

 --------------------------------------------------------------------
 #N Geom=AllCheck Guess=TCheck SCRF=Check GenChk RB3LYP/6-31G(d) Freq
 --------------------------------------------------------------------

 Structure from the checkpoint file:  "JID_4189.chk"
 -------------------------------
 CID_150886190_JID_4189_neutraal
 -------------------------------
 Charge =  0 Multiplicity = 1

 SCF Done:  E(RB3LYP) =  -598.484218814     A.U. after    1 cycles

  Exact polarizability: 151.229  -2.663 141.468  -1.978  -1.153 118.824
 Approx polarizability: 189.467  -1.479 193.180  -4.761  -1.941 179.850

                      1                      2                      3
                      A                      A                      A
 Frequencies --     38.6617                46.3044                56.2641
 Red. masses --      2.8895                 3.2156                 2.6035
 Frc consts  --      0.0025                 0.0041                 0.0049
 IR Inten    --      0.5023                 0.3292                 0.1167

                      4                      5                      6
                      A                      A                      A
 Frequencies --     95.3793               106.7205               129.5707
 Red. masses --      2.6851                 2.8596                 2.2590
 Frc consts  --      0.0144                 0.0192                 0.0223
 IR Inten    --      0.6183                 0.0995                 1.2913

                      7                      8                      9
                      A                      A                      A
 Frequencies --    151.6857               200.4082               216.5765
 Red. masses --      1.7708                 1.5317                 2.6401
 Frc consts  --      0.0240                 0.0362                 0.0730
 IR Inten    --      1.1016                 1.0835                 2.6368

                     10                     11                     12
                      A                      A                      A
 Frequencies --    233.7655               237.2481               261.1074
 Red. masses --      1.8176                 1.1182                 1.3320
 Frc consts  --      0.0585                 0.0371                 0.0535
 IR Inten    --      0.6917                 0.4577                 0.9864

                     13                     14                     15
                      A                      A                      A
 Frequencies --    272.5810               310.2185               329.8745
 Red. masses --      2.2908                 2.1252                 2.4202
 Frc consts  --      0.1003                 0.1205                 0.1552
 IR Inten    --      0.4050                 0.0514                 3.8502

                     16                     17                     18
                      A                      A                      A
 Frequencies --    343.9016               371.1593               405.9086
 Red. masses --      2.5310                 2.3096                 2.6826
 Frc consts  --      0.1764                 0.1875                 0.2604
 IR Inten    --      3.7225                 0.4585                 0.5075

                     19                     20                     21
                      A                      A                      A
 Frequencies --    450.0725               471.6149               475.8108
 Red. masses --      3.0258                 2.5673                 2.2625
 Frc consts  --      0.3611                 0.3364                 0.3018
 IR Inten    --      4.2545                 3.4259                 6.6155

                     22                     23                     24
                      A                      A                      A
 Frequencies --    497.2430               538.8260               555.1132
 Red. masses --      3.0922                 2.0014                 2.8358
 Frc consts  --      0.4505                 0.3424                 0.5149
 IR Inten    --      5.9862                 9.4401                 4.1127

                     25                     26                     27
                      A                      A                      A
 Frequencies --    655.9023               714.0552               784.3076
 Red. masses --      2.1435                 2.1073                 1.9100
 Frc consts  --      0.5433                 0.6331                 0.6922
 IR Inten    --     36.7040                20.0304                 5.3002

                     28                     29                     30
                      A                      A                      A
 Frequencies --    791.3371               822.5920               845.9010
 Red. masses --      1.4202                 1.1236                 1.9366
 Frc consts  --      0.5240                 0.4480                 0.8165
 IR Inten    --      7.2406                 1.4963                 3.1838

                     31                     32                     33
                      A                      A                      A
 Frequencies --    857.4116               876.8206               886.9084
 Red. masses --      2.7879                 1.4953                 2.7760
 Frc consts  --      1.2075                 0.6773                 1.2865
 IR Inten    --      4.7662                 0.7983                 4.6758

                     34                     35                     36
                      A                      A                      A
 Frequencies --    896.9833               919.7180               929.0667
 Red. masses --      1.7560                 2.2587                 1.4502
 Frc consts  --      0.8324                 1.1257                 0.7375
 IR Inten    --      2.6158                 1.5696                14.6597

                     37                     38                     39
                      A                      A                      A
 Frequencies --    969.2849               984.0007               986.8461
 Red. masses --      1.3856                 2.0303                 1.7947
 Frc consts  --      0.7670                 1.1582                 1.0298
 IR Inten    --     27.8408                 1.0157                 2.7712

                     40                     41                     42
                      A                      A                      A
 Frequencies --    996.8583              1024.4138              1049.4876
 Red. masses --      1.5111                 2.5879                 2.2997
 Frc consts  --      0.8847                 1.6001                 1.4924
 IR Inten    --      2.6421                 8.6951                11.4367

                     43                     44                     45
                      A                      A                      A
 Frequencies --   1066.7191              1075.5452              1084.7138
 Red. masses --      1.7459                 2.9433                 1.5479
 Frc consts  --      1.1705                 2.0061                 1.0731
 IR Inten    --     10.7719                 8.9631                 1.1830

                     46                     47                     48
                      A                      A                      A
 Frequencies --   1112.5272              1120.9822              1134.3999
 Red. masses --      2.4609                 2.7617                 1.2961
 Frc consts  --      1.7946                 2.0447                 0.9827
 IR Inten    --     15.4701                 0.7857                 1.9403

                     49                     50                     51
                      A                      A                      A
 Frequencies --   1141.8116              1170.4139              1180.2577
 Red. masses --      1.8582                 2.0142                 1.7977
 Frc consts  --      1.4274                 1.6257                 1.4754
 IR Inten    --      5.2818                 8.5661                11.9044

                     52                     53                     54
                      A                      A                      A
 Frequencies --   1185.8328              1216.4223              1245.0948
 Red. masses --      2.0253                 2.2546                 1.8096
 Frc consts  --      1.6780                 1.9656                 1.6529
 IR Inten    --     12.4080                 3.8265                 4.9458

                     55                     56                     57
                      A                      A                      A
 Frequencies --   1257.5760              1288.0379              1302.5395
 Red. masses --      1.6560                 1.2736                 1.2407
 Frc consts  --      1.5431                 1.2449                 1.2402
 IR Inten    --      1.6302                 5.0045                 1.8458

                     58                     59                     60
                      A                      A                      A
 Frequencies --   1309.7537              1327.8286              1336.8273
 Red. masses --      1.1989                 1.3412                 1.2213
 Frc consts  --      1.2117                 1.3933                 1.2860
 IR Inten    --      1.7404                 2.5812                 2.3500

                     61                     62                     63
                      A                      A                      A
 Frequencies --   1354.9493              1367.7090              1381.7096
 Red. masses --      1.3303                 1.4034                 1.3796
 Frc consts  --      1.4389                 1.5467                 1.5518
 IR Inten    --      2.4407                 4.2994                16.9282

                     64                     65                     66
                      A                      A                      A
 Frequencies --   1388.1037              1396.6569              1400.7356
 Red. masses --      1.3379                 1.4429                 1.3699
 Frc consts  --      1.5189                 1.6583                 1.5837
 IR Inten    --      4.6464                 2.5059                 9.0082

                     67                     68                     69
                      A                      A                      A
 Frequencies --   1407.1704              1415.7993              1422.8678
 Red. masses --      1.3939                 1.4350                 1.4843
 Frc consts  --      1.6262                 1.6948                 1.7705
 IR Inten    --      0.7502                 5.7467                 3.7805

                     70                     71                     72
                      A                      A                      A
 Frequencies --   1426.4169              1439.7207              1440.2247
 Red. masses --      1.2950                 1.2855                 1.2470
 Frc consts  --      1.5525                 1.5699                 1.5239
 IR Inten    --      7.8151                 4.6053                 7.9039

                     73                     74                     75
                      A                      A                      A
 Frequencies --   1491.7092              1510.2416              1513.7763
 Red. masses --      1.1165                 1.1272                 1.0805
 Frc consts  --      1.4639                 1.5148                 1.4588
 IR Inten    --      6.3390                 7.1056                 0.9615

                     76                     77                     78
                      A                      A                      A
 Frequencies --   1516.3303              1517.4648              1519.9190
 Red. masses --      1.0861                 1.0743                 1.0665
 Frc consts  --      1.4713                 1.4575                 1.4516
 IR Inten    --      4.4777                 5.3841                 9.2917

                     79                     80                     81
                      A                      A                      A
 Frequencies --   1526.8147              1527.7362              1529.4953
 Red. masses --      1.0616                 1.0601                 1.0792
 Frc consts  --      1.4580                 1.4578                 1.4874
 IR Inten    --      4.3199                 4.5783                 3.4231

                     82                     83                     84
                      A                      A                      A
 Frequencies --   1531.7579              1532.9836              1535.7478
 Red. masses --      1.0828                 1.0922                 1.0654
 Frc consts  --      1.4969                 1.5123                 1.4804
 IR Inten    --     15.4071                 3.5964                12.4412

                     85                     86                     87
                      A                      A                      A
 Frequencies --   1554.8752              1562.2734              2945.6271
 Red. masses --      1.0903                 1.0953                 1.0822
 Frc consts  --      1.5531                 1.5751                 5.5324
 IR Inten    --      2.9354                 4.1558                60.5365

                     88                     89                     90
                      A                      A                      A
 Frequencies --   2988.4989              3009.3132              3029.2085
 Red. masses --      1.0725                 1.0667                 1.0730
 Frc consts  --      5.6434                 5.6913                 5.8009
 IR Inten    --     69.1382                23.4874                 6.8123

                     91                     92                     93
                      A                      A                      A
 Frequencies --   3034.5661              3039.4406              3041.3816
 Red. masses --      1.0437                 1.0418                 1.0676
 Frc consts  --      5.6624                 5.6708                 5.8185
 IR Inten    --     14.9723                36.4239                29.2679

                     94                     95                     96
                      A                      A                      A
 Frequencies --   3046.5166              3047.1666              3051.3938
 Red. masses --      1.0660                 1.0410                 1.0676
 Frc consts  --      5.8292                 5.6949                 5.8569
 IR Inten    --     52.1959                21.8284                39.9306

                     97                     98                     99
                      A                      A                      A
 Frequencies --   3060.8024              3065.0439              3076.6348
 Red. masses --      1.0686                 1.0937                 1.0958
 Frc consts  --      5.8984                 6.0539                 6.1113
 IR Inten    --     47.8636                52.8432                26.3221

                    100                    101                    102
                      A                      A                      A
 Frequencies --   3089.3272              3096.1270              3097.7181
 Red. masses --      1.0885                 1.0981                 1.0953
 Frc consts  --      6.1210                 6.2022                 6.1927
 IR Inten    --      6.4838                29.9897                20.9750

                    103                    104                    105
                      A                      A                      A
 Frequencies --   3100.0980              3104.2659              3106.7773
 Red. masses --      1.1001                 1.0983                 1.1021
 Frc consts  --      6.2292                 6.2357                 6.2675
 IR Inten    --     45.4250                79.3378                37.6155

                    106                    107                    108
                      A                      A                      A
 Frequencies --   3114.1234              3126.9051              3133.7327
 Red. masses --      1.0979                 1.0951                 1.1034
 Frc consts  --      6.2733                 6.3085                 6.3843
 IR Inten    --     44.3524                26.8612                31.8906

                    109                    110                    111
                      A                      A                      A
 Frequencies --   3139.2697              3417.9071              3479.8277
 Red. masses --      1.1003                 1.0741                 1.0722
 Frc consts  --      6.3891                 7.3931                 7.6496
 IR Inten    --     31.1110                10.0999                 2.8785

 - Thermochemistry -
 -------------------
 Temperature   298.150 Kelvin.  Pressure   1.00000 Atm.
 Atom     1 has atomic number  6 and mass  12.00000

 Molecular mass:   199.20485 amu.
 Principal axes and moments of inertia in atomic units:
                           1         2         3
     Eigenvalues --  2105.387323652.201634745.48889
           X            0.99982  -0.01791  -0.00564
           Y            0.01783   0.99975  -0.01379
           Z            0.00589   0.01368   0.99989
 This molecule is an asymmetric top.
 Rotational symmetry number  1.
 Warning -- assumption of classical behavior for rotation
           may cause significant error
 Rotational temperatures (Kelvin)      0.04114     0.02372     0.01825
 Rotational constants (GHZ):           0.85720     0.49415     0.38031
 Zero-point vibrational energy     957012.9 (Joules/Mol)
                                  228.73157 (Kcal/Mol)
 Warning -- explicit consideration of  24 degrees of freedom as
           vibrations may cause significant error
 Vibrational temperatures:     55.63    66.62    80.95   137.23   153.55
          (Kelvin)            186.42   218.24   288.34   311.61   336.34
                              341.35   375.68   392.18   446.34   474.62
                              494.80   534.02   584.01   647.55   678.55
                              684.59   715.42   775.25   798.68   943.70
                             1027.37  1128.44  1138.56  1183.53  1217.06
                             1233.62  1261.55  1276.06  1290.56  1323.27
                             1336.72  1394.58  1415.76  1419.85  1434.26
                             1473.90  1509.98  1534.77  1547.47  1560.66
                             1600.68  1612.84  1632.15  1642.81  1683.96
                             1698.13  1706.15  1750.16  1791.41  1809.37
                             1853.20  1874.06  1884.44  1910.45  1923.40
                             1949.47  1967.83  1987.97  1997.17  2009.48
                             2015.35  2024.60  2037.02  2047.19  2052.30
                             2071.44  2072.16  2146.24  2172.90  2177.99
                             2181.66  2183.29  2186.82  2196.75  2198.07
                             2200.60  2203.86  2205.62  2209.60  2237.12
                             2247.76  4238.10  4299.78  4329.73  4358.36
                             4366.06  4373.08  4375.87  4383.26  4384.19
                             4390.28  4403.81  4409.91  4426.59  4444.85
                             4454.64  4456.93  4460.35  4466.35  4469.96
                             4480.53  4498.92  4508.74  4516.71  4917.61
                             5006.70

 Zero-point correction=                           0.364507 (Hartree/Particle)
 Thermal correction to Energy=                    0.380415
 Thermal correction to Enthalpy=                  0.381359
 Thermal correction to Gibbs Free Energy=         0.321491
 Sum of electronic and zero-point Energies=           -598.119712
 Sum of electronic and thermal Energies=              -598.103804
 Sum of electronic and thermal Enthalpies=            -598.102860
 Sum of electronic and thermal Free Energies=         -598.162728

                     E (Thermal)             CV                S
                      KCal/Mol        Cal/Mol-Kelvin    Cal/Mol-Kelvin
 Total                  238.714             61.311            126.003
 Electronic               0.000              0.000              0.000
 Translational            0.889              2.981             41.772
 Rotational               0.889              2.981             31.968
 Vibrational            236.937             55.349             52.263
 Vibration     1          0.594              1.981              5.327
 Vibration     2          0.595              1.979              4.969
 Vibration     3          0.596              1.975              4.584
 Vibration     4          0.603              1.952              3.547
 Vibration     5          0.606              1.944              3.328
 Vibration     6          0.612              1.924              2.952
 Vibration     7          0.619              1.901              2.651
 Vibration     8          0.638              1.839              2.129
 Vibration     9          0.645              1.816              1.988
 Vibration    10          0.654              1.789              1.850
 Vibration    11          0.656              1.784              1.823
 Vibration    12          0.669              1.744              1.654
 Vibration    13          0.676              1.724              1.580
 Vibration    14          0.699              1.654              1.361
 Vibration    15          0.713              1.616              1.261
 Vibration    16          0.723              1.588              1.194
 Vibration    17          0.743              1.531              1.075
 Vibration    18          0.771              1.457              0.941
 Vibration    19          0.809              1.361              0.796
 Vibration    20          0.829              1.313              0.733
 Vibration    21          0.832              1.304              0.721
 Vibration    22          0.853              1.256              0.665
 Vibration    23          0.894              1.164              0.568
 Vibration    24          0.911              1.129              0.534

                           ! Non-Optimized Parameters !
 Normal termination of Gaussian 16 at Thu Dec 10 09:34:21 2020.

 ----------------------------------------------------------------------
 # B3LYP/6-311++G(d,p) empiricaldispersion=gd3bj scf=xqc pop=npa geom=c
 heck
 ----------------------------------------------------------------------

 ---------------------------------------
 CID_150886190_JID_4189_Energie_neutraal
 ---------------------------------------
 Structure from the checkpoint file:  "JID_4189.chk"
 Charge =  0 Multiplicity = 1

 SCF Done:  E(RB3LYP) =  -598.656014433     A.U. after   13 cycles
 Normal termination of Gaussian 16 at Thu Dec 10 09:39:31 2020.

 ----------------------------------------------------------------------
 # B3LYP/6-311++G(d,p) empiricaldispersion=gd3bj scf=xqc pop=npa geom=c
 heck
 ----------------------------------------------------------------------

 -------------------------------------
 CID_150886190_JID_4189_Energie_kation
 -------------------------------------
 Structure from the checkpoint file:  "JID_4189.chk"
 Charge =  1 Multiplicity = 2

 SCF Done:  E(UB3LYP) =  -598.385211215     A.U. after   20 cycles
 Normal termination of Gaussian 16 at Thu Dec 10 09:49:46 2020.
 Gaussian 16:  ES64L-G16RevA.03 25-Dec-2016

 ----------------------------------------------------------------------
 # B3LYP/6-311++G(d,p) empiricaldispersion=gd3bj scf=xqc pop=npa geom=c
 heck
 ----------------------------------------------------------------------

 ------------------------------------
 CID_150886190_JID_4189_Energie_anion
 ------------------------------------
 Structure from the checkpoint file:  "JID_4189.chk"
 Charge = -1 Multiplicity = 2

                         Standard orientation:
 ---------------------------------------------------------------------
 Center     Atomic      Atomic             Coordinates (Angstroms)
 Number     Number       Type             X           Y           Z
 ---------------------------------------------------------------------
      1          6           0        3.824857   -1.491844   -0.382089
      2          6           0        2.374590   -1.073304   -0.609340
      3          7           0        1.892529   -0.340195    0.553533
      4          7           0        0.610105    0.239276    0.404960
      5          6           0       -0.419124   -0.506881    1.170795
      6          6           0       -0.569982   -1.932157    0.613392
      7          6           0       -1.131634   -1.935802   -0.814764
      8          6           0       -2.465740   -1.183169   -0.895765
      9          6           0       -2.363616    0.238911   -0.320893
     10          6           0       -1.799158    0.173906    1.106721
     11          6           0       -3.713691    0.957995   -0.351931
     12          7           0        0.729293    1.587856    1.015904
     13          6           0        1.592443    2.429057    0.174308
     14          6           0        1.101248    2.654498   -1.259196
     15          1           0        4.452280   -0.617696   -0.181246
     16          1           0        4.217390   -2.015282   -1.260299
     17          1           0        3.910600   -2.172696    0.474349
     18          1           0        2.305342   -0.394843   -1.465614
     19          1           0        1.772472   -1.961632   -0.861384
     20          1           0        1.967772   -0.875625    1.421177
     21          1           0       -0.100278   -0.553023    2.228736
     22          1           0       -1.257609   -2.471579    1.278676
     23          1           0        0.381277   -2.471095    0.658074
     24          1           0       -1.258488   -2.968939   -1.161647
     25          1           0       -0.409627   -1.457222   -1.485192
     26          1           0       -3.232303   -1.735144   -0.329787
     27          1           0       -2.815603   -1.142306   -1.935461
     28          1           0       -1.651764    0.801735   -0.940528
     29          1           0       -1.783737    1.167618    1.568626
     30          1           0       -2.481612   -0.420748    1.730583
     31          1           0       -3.629749    1.982738    0.029762
     32          1           0       -4.111709    1.010691   -1.372098
     33          1           0       -4.451940    0.431810    0.267073
     34          1           0       -0.209153    1.975558    0.920191
     35          1           0        1.680596    3.386166    0.703100
     36          1           0        2.583227    1.967831    0.174919
     37          1           0        0.132668    3.171719   -1.267144
     38          1           0        1.811388    3.267080   -1.827238
     39          1           0        0.973914    1.699055   -1.775841
 ---------------------------------------------------------------------

 SCF Done:  E(UB3LYP) =  -598.640707792     A.U. after   28 cycles

 The electronic state is 2-A.
 Alpha  occ. eigenvalues --  -14.25506 -14.22122 -14.22026 -10.10183 -10.09450
 Alpha  occ. eigenvalues --  -10.08843 -10.07273 -10.06974 -10.06627 -10.06518
 Alpha  occ. eigenvalues --  -10.06319 -10.06214 -10.06100 -10.05940  -0.90717
 Alpha  occ. eigenvalues --   -0.78724  -0.74587  -0.69826  -0.66450  -0.64515
 Alpha  occ. eigenvalues --   -0.63057  -0.58550  -0.58021  -0.52038  -0.50970
 Alpha  occ. eigenvalues --   -0.50098  -0.48945  -0.46127  -0.40144  -0.39734
 Alpha  occ. eigenvalues --   -0.38592  -0.37590  -0.35652  -0.34652  -0.33651
 Alpha  occ. eigenvalues --   -0.33582  -0.32391  -0.31954  -0.31126  -0.29327
 Alpha  occ. eigenvalues --   -0.29125  -0.28551  -0.27977  -0.27252  -0.26861
 Alpha  occ. eigenvalues --   -0.26280  -0.25438  -0.25162  -0.24380  -0.23517
 Alpha  occ. eigenvalues --   -0.22956  -0.21325  -0.20337  -0.19278  -0.13658
 Alpha  occ. eigenvalues --   -0.10486   0.04339
 Alpha virt. eigenvalues --    0.06197   0.06548   0.07340   0.07845   0.08623
 Alpha virt. eigenvalues --    0.09036   0.09212   0.09676   0.10406   0.10735
 Alpha virt. eigenvalues --    0.10942   0.11617   0.11867   0.12193   0.12777

  Beta  occ. eigenvalues --  -14.25498 -14.22109 -14.22020 -10.10178 -10.09438
  Beta  occ. eigenvalues --  -10.08835 -10.07269 -10.06961 -10.06608 -10.06487
  Beta  occ. eigenvalues --  -10.06302 -10.06203 -10.06072 -10.05921  -0.90701
  Beta  occ. eigenvalues --   -0.78707  -0.74565  -0.69805  -0.66420  -0.64483
  Beta  occ. eigenvalues --   -0.63027  -0.58509  -0.57969  -0.51988  -0.50921
  Beta  occ. eigenvalues --   -0.50058  -0.48900  -0.46090  -0.40116  -0.39697
  Beta  occ. eigenvalues --   -0.38564  -0.37556  -0.35626  -0.34621  -0.33620
  Beta  occ. eigenvalues --   -0.33560  -0.32364  -0.31923  -0.31100  -0.29296
  Beta  occ. eigenvalues --   -0.29092  -0.28521  -0.27936  -0.27221  -0.26817
  Beta  occ. eigenvalues --   -0.26251  -0.25410  -0.25136  -0.24361  -0.23491
  Beta  occ. eigenvalues --   -0.22926  -0.21294  -0.20306  -0.19252  -0.13629
  Beta  occ. eigenvalues --   -0.10459
  Beta virt. eigenvalues --    0.06325   0.07008   0.07208   0.07770   0.08323
  Beta virt. eigenvalues --    0.09126   0.09411   0.09501   0.10046   0.10729
  Beta virt. eigenvalues --    0.11126   0.11323   0.11881   0.12111   0.12493

 Mulliken charges and spin densities:
               1          2
     1  C    1.157019  -1.692593
     2  C   -0.715326   0.502051
     3  N   -0.453338   0.040266
     4  N    0.418673  -0.003995
     5  C   -0.566732   0.671877
     6  C    0.908663  -1.427987
     7  C   -0.301945   0.245525
     8  C    0.643053  -1.315937
     9  C   -1.645620   2.109010
    10  C   -0.163006  -0.655342
    11  C    1.386124  -2.107436
    12  N   -0.032070  -0.028155
    13  C   -0.429005  -0.055199
    14  C    0.195094  -0.565134
    15  H   -0.070414   0.211853
    16  H   -0.216924   0.362219
    17  H   -0.279148   0.411705
    18  H    0.126994  -0.002249
    19  H    0.083903   0.025517
    20  H    0.240561  -0.018769
    21  H   -0.181539   0.332003
    22  H   -0.174551   0.313657
    23  H   -0.241629   0.439595
    24  H   -0.469153   0.663181
    25  H    0.028304   0.119698
    26  H   -0.020126   0.161502
    27  H   -0.116122   0.272288
    28  H    0.486213  -0.321704
    29  H   -0.011275   0.178106
    30  H   -0.030870   0.202340
    31  H   -0.289855   0.419963
    32  H   -0.171874   0.310996
    33  H   -0.097295   0.228188
    34  H    0.297510  -0.066990
    35  H   -0.124770   0.278086
    36  H    0.210836  -0.036425
    37  H   -0.068863   0.191928
    38  H   -0.196682   0.332247
    39  H   -0.114816   0.274112
 Sum of Mulliken charges =  -1.00000   1.00000

 Dipole moment (field-independent basis, Debye):
    X=              0.3883    Y=              1.7143    Z=              0.5384  Tot=              1.8383
 Quadrupole moment (field-independent basis, Debye-Ang):
   XX=           -162.0997   YY=           -150.7347   ZZ=           -128.3760
   XY=              5.6574   XZ=             -0.7176   YZ=              0.4614

 Summary of Natural Population Analysis:

                                       Natural Population
                Natural  -----------------------------------------------
    Atom  No    Charge         Core      Valence    Rydberg      Total
 -----------------------------------------------------------------------
      C    1   -0.28897      0.99966     2.28389    0.00542     3.28897
      C    2   -0.08666      0.99963     2.07645    0.01058     3.08666
      N    3   -0.24995      0.99973     2.73706    0.01316     3.74995
      N    4   -0.12278      0.99970     2.60908    0.01400     3.62278
      C    5   -0.00729      0.99957     1.99411    0.01360     3.00729
      C    6   -0.19417      0.99960     2.18447    0.01010     3.19417
      C    7   -0.19221      0.99962     2.18327    0.00933     3.19221
      C    8   -0.18445      0.99961     2.17635    0.00849     3.18445
      C    9   -0.11833      0.99959     2.10955    0.00920     3.11833
      C   10   -0.19374      0.99959     2.18468    0.00948     3.19374
      C   11   -0.28123      0.99965     2.27571    0.00587     3.28123
      N   12   -0.24585      0.99976     2.73481    0.01127     3.74585
      C   13   -0.09727      0.99965     2.08609    0.01154     3.09727
      C   14   -0.29813      0.99966     2.29352    0.00495     3.29813
      H   15    0.09884      0.00000     0.40007    0.00110     0.40116
      H   16    0.10053      0.00000     0.39849    0.00098     0.39947
      H   17    0.09666      0.00000     0.40211    0.00123     0.40334
      H   18    0.09358      0.00000     0.40475    0.00167     0.40642
      H   19    0.08067      0.00000     0.41737    0.00196     0.41933
      H   20    0.16648      0.00000     0.33037    0.00315     0.33352
      H   21    0.08971      0.00000     0.40827    0.00202     0.41029
      H   22    0.09910      0.00000     0.39968    0.00123     0.40090
      H   23    0.10304      0.00000     0.39532    0.00164     0.39696
      H   24    0.09820      0.00000     0.40070    0.00110     0.40180
      H   25    0.09822      0.00000     0.39945    0.00233     0.40178
      H   26    0.09177      0.00000     0.40690    0.00134     0.40823
      H   27    0.09845      0.00000     0.40060    0.00095     0.40155
      H   28    0.09817      0.00000     0.39923    0.00260     0.40183
      H   29    0.09881      0.00000     0.40001    0.00118     0.40119
      H   30    0.10142      0.00000     0.39733    0.00125     0.39858
      H   31    0.09872      0.00000     0.40027    0.00101     0.40128
      H   32    0.09914      0.00000     0.39996    0.00090     0.40086
      H   33    0.09569      0.00000     0.40328    0.00103     0.40431
      H   34    0.16770      0.00000     0.32880    0.00350     0.33230
      H   35    0.09089      0.00000     0.40823    0.00088     0.40911
      H   36    0.10114      0.00000     0.39744    0.00142     0.39886
      H   37    0.09422      0.00000     0.40447    0.00131     0.40578
      H   38    0.09695      0.00000     0.40217    0.00088     0.40305
      H   39    0.10293      0.00000     0.39538    0.00169     0.39707
 =======================================================================
   * Total *   -0.00000     13.99502    41.82969    0.17529    56.00000

 Normal termination of Gaussian 16 at Thu Dec 10 10:03:54 2020.
