 Gaussian 16, Revision A.03,

 -----------------------------------------------------------
 # opt freq B3LYP/6-31G(d) empiricaldispersion=gd3bj scf=xqc
 -----------------------------------------------------------

 ------------------------------
 CID_90569761_JID_7261_neutraal
 ------------------------------
 Symbolic Z-matrix:
 Charge =  0 Multiplicity = 1

 SCF Done:  E(RB3LYP) =  -1139.80941379     A.U. after   15 cycles
 SCF Done:  E(RB3LYP) =  -1139.82197371     A.U. after   13 cycles
 SCF Done:  E(RB3LYP) =  -1139.82473104     A.U. after   13 cycles
 SCF Done:  E(RB3LYP) =  -1139.82648516     A.U. after   13 cycles
 SCF Done:  E(RB3LYP) =  -1139.82946899     A.U. after   15 cycles
 SCF Done:  E(RB3LYP) =  -1139.83069272     A.U. after   12 cycles
 SCF Done:  E(RB3LYP) =  -1139.83122167     A.U. after   12 cycles
 SCF Done:  E(RB3LYP) =  -1139.83128551     A.U. after   11 cycles
 SCF Done:  E(RB3LYP) =  -1139.83133405     A.U. after   11 cycles
 SCF Done:  E(RB3LYP) =  -1139.83138953     A.U. after   11 cycles
 SCF Done:  E(RB3LYP) =  -1139.83320245     A.U. after   11 cycles
 SCF Done:  E(RB3LYP) =  -1139.83322408     A.U. after   10 cycles
 SCF Done:  E(RB3LYP) =  -1139.83322844     A.U. after   10 cycles
 SCF Done:  E(RB3LYP) =  -1139.83322894     A.U. after    9 cycles
 SCF Done:  E(RB3LYP) =  -1139.83322906     A.U. after    8 cycles
 SCF Done:  E(RB3LYP) =  -1139.83322907     A.U. after    7 cycles
 Optimization completed.
    -- Stationary point found.
 Normal termination of Gaussian 16 at Mon Dec 14 13:31:52 2020.

 --------------------------------------------------------------------
 #N Geom=AllCheck Guess=TCheck SCRF=Check GenChk RB3LYP/6-31G(d) Freq
 --------------------------------------------------------------------

 Structure from the checkpoint file:  "JID_7261.chk"
 ------------------------------
 CID_90569761_JID_7261_neutraal
 ------------------------------
 Charge =  0 Multiplicity = 1

 SCF Done:  E(RB3LYP) =  -1139.83322907     A.U. after    1 cycles

  Exact polarizability: 226.221 -11.864 139.340 -16.244  -7.996  95.083
 Approx polarizability: 306.490 -21.259 250.673 -31.033 -20.109 164.608

                      1                      2                      3
                      A                      A                      A
 Frequencies --     19.8614                30.9583                50.9202
 Red. masses --      4.9677                 5.4656                 4.9017
 Frc consts  --      0.0012                 0.0031                 0.0075
 IR Inten    --      0.5546                 3.1143                 2.9214

                      4                      5                      6
                      A                      A                      A
 Frequencies --     70.3449                87.2956               146.7981
 Red. masses --      3.1223                 4.8807                 5.9126
 Frc consts  --      0.0091                 0.0219                 0.0751
 IR Inten    --      0.5551                 0.5032                 0.9827

                      7                      8                      9
                      A                      A                      A
 Frequencies --    172.7264               206.6667               237.7743
 Red. masses --      6.1658                 3.8945                 4.3572
 Frc consts  --      0.1084                 0.0980                 0.1451
 IR Inten    --      1.2702                 0.3247                 2.8032

                     10                     11                     12
                      A                      A                      A
 Frequencies --    258.1189               292.6324               329.8969
 Red. masses --      4.2382                 3.3715                 4.6942
 Frc consts  --      0.1664                 0.1701                 0.3010
 IR Inten    --      1.1840                 2.2189                 3.7264

                     13                     14                     15
                      A                      A                      A
 Frequencies --    348.8736               403.7253               437.1122
 Red. masses --      3.6168                 4.1032                 5.6525
 Frc consts  --      0.2594                 0.3940                 0.6363
 IR Inten    --     12.3307                19.3819                18.5596

                     16                     17                     18
                      A                      A                      A
 Frequencies --    446.2681               474.7246               485.4577
 Red. masses --      3.4294                 3.6977                 3.7287
 Frc consts  --      0.4024                 0.4910                 0.5177
 IR Inten    --      7.2603                21.4557                12.7557

                     19                     20                     21
                      A                      A                      A
 Frequencies --    523.9904               555.8071               578.9117
 Red. masses --      4.7459                 4.0565                 4.1671
 Frc consts  --      0.7677                 0.7383                 0.8228
 IR Inten    --      7.8117                 0.4003                 3.3985

                     22                     23                     24
                      A                      A                      A
 Frequencies --    612.6519               633.9806               673.7415
 Red. masses --      4.2636                 6.4175                 3.7888
 Frc consts  --      0.9429                 1.5197                 1.0133
 IR Inten    --     74.2861                 0.0448                20.9872

                     25                     26                     27
                      A                      A                      A
 Frequencies --    699.9138               740.1619               749.2200
 Red. masses --      2.9325                 4.3699                 3.8458
 Frc consts  --      0.8464                 1.4105                 1.2719
 IR Inten    --     31.9176                 2.9998                25.3983

                     28                     29                     30
                      A                      A                      A
 Frequencies --    755.0978               784.2386               815.7794
 Red. masses --      1.2789                 1.1258                 1.3590
 Frc consts  --      0.4296                 0.4079                 0.5328
 IR Inten    --     43.5809                 1.3009                26.5100

                     31                     32                     33
                      A                      A                      A
 Frequencies --    835.2281               841.8016               851.5056
 Red. masses --      1.2554                 3.3504                 1.5786
 Frc consts  --      0.5160                 1.3988                 0.6744
 IR Inten    --     20.0307                24.6109                43.7760

                     34                     35                     36
                      A                      A                      A
 Frequencies --    854.1364               918.1117               923.3737
 Red. masses --      2.1599                 5.1281                 3.8275
 Frc consts  --      0.9284                 2.5468                 1.9228
 IR Inten    --    154.0714                 5.5503                42.4378

                     37                     38                     39
                      A                      A                      A
 Frequencies --    934.5811               963.5720               976.2471
 Red. masses --      1.2925                 4.2882                 1.2494
 Frc consts  --      0.6651                 2.3458                 0.7016
 IR Inten    --      0.7383                 0.9151                 0.0945

                     40                     41                     42
                      A                      A                      A
 Frequencies --    992.6192              1020.8955              1051.8168
 Red. masses --      2.3822                 2.9296                 2.9850
 Frc consts  --      1.3829                 1.7990                 1.9457
 IR Inten    --     52.2360                 5.3427                 4.8134

                     43                     44                     45
                      A                      A                      A
 Frequencies --   1068.2857              1076.7689              1099.7400
 Red. masses --      3.8003                 1.3420                 1.3560
 Frc consts  --      2.5553                 0.9167                 0.9663
 IR Inten    --     93.7795                 1.1944                 1.7198

                     46                     47                     48
                      A                      A                      A
 Frequencies --   1100.3842              1116.4221              1125.2501
 Red. masses --      1.3799                 7.4334                 1.1525
 Frc consts  --      0.9844                 5.4588                 0.8598
 IR Inten    --      5.1994               153.4040                 2.4201

                     49                     50                     51
                      A                      A                      A
 Frequencies --   1155.6929              1173.0567              1176.2844
 Red. masses --      1.5392                 1.3747                 1.2054
 Frc consts  --      1.2113                 1.1145                 0.9826
 IR Inten    --      0.8041                37.6645                 1.3165

                     52                     53                     54
                      A                      A                      A
 Frequencies --   1203.2639              1236.1068              1253.0380
 Red. masses --      1.3548                 1.9651                 1.3882
 Frc consts  --      1.1557                 1.7690                 1.2842
 IR Inten    --      2.0163                 9.3360                20.5457

                     55                     56                     57
                      A                      A                      A
 Frequencies --   1264.1238              1287.3762              1321.1298
 Red. masses --      3.4705                 2.4104                 5.0547
 Frc consts  --      3.2675                 2.3537                 5.1980
 IR Inten    --     10.6245                18.8224               148.5284

                     58                     59                     60
                      A                      A                      A
 Frequencies --   1355.4358              1364.5908              1367.9287
 Red. masses --      1.6583                 2.5509                 1.5316
 Frc consts  --      1.7950                 2.7986                 1.6886
 IR Inten    --      7.7291                41.7469                10.9619

                     61                     62                     63
                      A                      A                      A
 Frequencies --   1402.0016              1448.5956              1467.1463
 Red. masses --      2.1608                 1.5013                 3.2776
 Frc consts  --      2.5024                 1.8562                 4.1567
 IR Inten    --      7.9760                93.9119                 3.3745

                     64                     65                     66
                      A                      A                      A
 Frequencies --   1475.3949              1481.6320              1502.0242
 Red. masses --      2.3092                 1.0928                 1.0898
 Frc consts  --      2.9616                 1.4135                 1.4486
 IR Inten    --      9.5939                 2.8846                 4.0329

                     67                     68                     69
                      A                      A                      A
 Frequencies --   1521.2213              1545.8297              1572.9827
 Red. masses --      1.3299                 4.7150                 5.0126
 Frc consts  --      1.8132                 6.6382                 7.3074
 IR Inten    --      2.3034                14.5924                49.6939

                     70                     71                     72
                      A                      A                      A
 Frequencies --   1591.0815              1697.5108              3094.2169
 Red. masses --      5.4727                 6.1759                 1.0626
 Frc consts  --      8.1627                10.4852                 5.9940
 IR Inten    --      2.2616                33.7538                16.4218

                     73                     74                     75
                      A                      A                      A
 Frequencies --   3151.4595              3165.5533              3166.2806
 Red. masses --      1.1031                 1.0518                 1.0572
 Frc consts  --      6.4551                 6.2096                 6.2446
 IR Inten    --      2.2427                 9.5831                 9.2670

                     76                     77                     78
                      A                      A                      A
 Frequencies --   3196.5936              3207.7176              3225.2646
 Red. masses --      1.0902                 1.0872                 1.0926
 Frc consts  --      6.5633                 6.5907                 6.6963
 IR Inten    --      0.1317                 3.9778                 8.3638

                     79                     80                     81
                      A                      A                      A
 Frequencies --   3232.0713              3246.0070              3256.1485
 Red. masses --      1.0938                 1.1193                 1.1162
 Frc consts  --      6.7318                 6.9484                 6.9730
 IR Inten    --      6.9647                 0.3405                 7.4827

                     82                     83                     84
                      A                      A                      A
 Frequencies --   3261.9240              3300.5424              3534.6398
 Red. masses --      1.0960                 1.0975                 1.0750
 Frc consts  --      6.8709                 7.0439                 7.9133
 IR Inten    --      2.8092                 5.7204                29.4196

 - Thermochemistry -
 -------------------
 Temperature   298.150 Kelvin.  Pressure   1.00000 Atm.
 Atom     1 has atomic number  6 and mass  12.00000

 Molecular mass:   251.07285 amu.
 Principal axes and moments of inertia in atomic units:
                           1         2         3
     Eigenvalues --  1343.576059167.911149758.26450
           X            0.99994  -0.01058  -0.00278
           Y            0.01053   0.99978  -0.01813
           Z            0.00297   0.01810   0.99983
 This molecule is an asymmetric top.
 Rotational symmetry number  1.
 Warning -- assumption of classical behavior for rotation
           may cause significant error
 Rotational temperatures (Kelvin)      0.06447     0.00945     0.00888
 Rotational constants (GHZ):           1.34324     0.19685     0.18494
 Zero-point vibrational energy     623710.5 (Joules/Mol)
                                  149.07039 (Kcal/Mol)
 Warning -- explicit consideration of  22 degrees of freedom as
           vibrations may cause significant error
 Vibrational temperatures:     28.58    44.54    73.26   101.21   125.60
          (Kelvin)            211.21   248.51   297.35   342.10   371.38
                              421.03   474.65   501.95   580.87   628.91
                              642.08   683.02   698.47   753.91   799.68
                              832.92   881.47   912.16   969.36  1007.02
                             1064.93  1077.96  1086.42  1128.34  1173.72
                             1201.71  1211.16  1225.13  1228.91  1320.96
                             1328.53  1344.65  1386.37  1404.60  1428.16
                             1468.84  1513.33  1537.02  1549.23  1582.28
                             1583.21  1606.28  1618.98  1662.78  1687.77
                             1692.41  1731.23  1778.48  1802.84  1818.79
                             1852.25  1900.81  1950.17  1963.34  1968.14
                             2017.17  2084.21  2110.90  2122.76  2131.74
                             2161.08  2188.70  2224.10  2263.17  2289.21
                             2442.34  4451.89  4534.25  4554.53  4555.57
                             4599.19  4615.19  4640.44  4650.23  4670.28
                             4684.87  4693.18  4748.74  5085.56

 Zero-point correction=                           0.237559 (Hartree/Particle)
 Thermal correction to Energy=                    0.252338
 Thermal correction to Enthalpy=                  0.253282
 Thermal correction to Gibbs Free Energy=         0.193429
 Sum of electronic and zero-point Energies=          -1139.595670
 Sum of electronic and thermal Energies=             -1139.580891
 Sum of electronic and thermal Enthalpies=           -1139.579947
 Sum of electronic and thermal Free Energies=        -1139.639801

                     E (Thermal)             CV                S
                      KCal/Mol        Cal/Mol-Kelvin    Cal/Mol-Kelvin
 Total                  158.345             57.416            125.973
 Electronic               0.000              0.000              0.000
 Translational            0.889              2.981             42.462
 Rotational               0.889              2.981             33.152
 Vibrational            156.567             51.454             50.359
 Vibration     1          0.593              1.986              6.648
 Vibration     2          0.594              1.984              5.767
 Vibration     3          0.595              1.977              4.781
 Vibration     4          0.598              1.968              4.144
 Vibration     5          0.601              1.958              3.720
 Vibration     6          0.617              1.906              2.713
 Vibration     7          0.626              1.876              2.406
 Vibration     8          0.641              1.830              2.073
 Vibration     9          0.656              1.783              1.819
 Vibration    10          0.667              1.749              1.674
 Vibration    11          0.688              1.687              1.459
 Vibration    12          0.713              1.616              1.261
 Vibration    13          0.726              1.578              1.171
 Vibration    14          0.769              1.462              0.949
 Vibration    15          0.797              1.389              0.836
 Vibration    16          0.806              1.369              0.807
 Vibration    17          0.831              1.306              0.724
 Vibration    18          0.842              1.282              0.695
 Vibration    19          0.879              1.197              0.601
 Vibration    20          0.911              1.127              0.532
 Vibration    21          0.935              1.077              0.487
 Vibration    22          0.972              1.005              0.428

 Optimization completed.
    -- Stationary point found.
 Normal termination of Gaussian 16 at Mon Dec 14 13:41:20 2020.

 ----------------------------------------------------------------------
 # B3LYP/6-311++G(d,p) empiricaldispersion=gd3bj scf=xqc pop=npa geom=c
 heck
 ----------------------------------------------------------------------

 --------------------------------------
 CID_90569761_JID_7261_Energie_neutraal
 --------------------------------------
 Structure from the checkpoint file:  "JID_7261.chk"
 Charge =  0 Multiplicity = 1

 SCF Done:  E(RB3LYP) =  -1140.06278789     A.U. after   16 cycles
 Normal termination of Gaussian 16 at Mon Dec 14 13:46:28 2020.

 ----------------------------------------------------------------------
 # B3LYP/6-311++G(d,p) empiricaldispersion=gd3bj scf=xqc pop=npa geom=c
 heck
 ----------------------------------------------------------------------

 ------------------------------------
 CID_90569761_JID_7261_Energie_kation
 ------------------------------------
 Structure from the checkpoint file:  "JID_7261.chk"
 Charge =  1 Multiplicity = 2

 SCF Done:  E(UB3LYP) =  -1139.77619472     A.U. after   23 cycles
 Normal termination of Gaussian 16 at Mon Dec 14 13:57:20 2020.
 Gaussian 16:  ES64L-G16RevA.03 25-Dec-2016

 ----------------------------------------------------------------------
 # B3LYP/6-311++G(d,p) empiricaldispersion=gd3bj scf=xqc pop=npa geom=c
 heck
 ----------------------------------------------------------------------

 -----------------------------------
 CID_90569761_JID_7261_Energie_anion
 -----------------------------------
 Structure from the checkpoint file:  "JID_7261.chk"
 Charge = -1 Multiplicity = 2

                         Standard orientation:
 ---------------------------------------------------------------------
 Center     Atomic      Atomic             Coordinates (Angstroms)
 Number     Number       Type             X           Y           Z
 ---------------------------------------------------------------------
      1          6           0       -4.400276    0.954133    0.732461
      2          6           0       -4.624683    0.811450   -0.751105
      3          6           0       -4.006230   -0.314052    0.027510
      4         16           0       -2.289934   -0.749904   -0.192643
      5          8           0       -1.837436   -1.355536    1.067478
      6          8           0       -2.151495   -1.462238   -1.467202
      7          7           0       -1.553175    0.761868   -0.387412
      8          6           0       -0.612811    1.221487    0.657796
      9          6           0        0.783641    0.702397    0.485132
     10          7           0        1.731380    1.542718    0.026794
     11          7           0        2.841434    0.775796   -0.053586
     12          6           0        4.060464    1.229663   -0.472903
     13          6           0        5.113412    0.360743   -0.515154
     14          6           0        4.935331   -0.998145   -0.124927
     15          6           0        3.708333   -1.446072    0.296752
     16          6           0        2.613021   -0.548955    0.342339
     17          6           0        1.264620   -0.599997    0.696439
     18          1           0       -5.246892    0.895339    1.409413
     19          1           0       -3.607083    1.624609    1.046085
     20          1           0       -5.631012    0.654861   -1.126834
     21          1           0       -3.972934    1.384355   -1.402231
     22          1           0       -4.581925   -1.217943    0.205155
     23          1           0       -1.145003    0.785414   -1.319715
     24          1           0       -0.594284    2.314183    0.620315
     25          1           0       -1.023923    0.914047    1.621111
     26          1           0        4.094516    2.275863   -0.747529
     27          1           0        6.080625    0.718778   -0.848206
     28          1           0        5.779498   -1.678946   -0.164026
     29          1           0        3.551286   -2.476327    0.597061
     30          1           0        0.701110   -1.452159    1.042878
 ---------------------------------------------------------------------

 SCF Done:  E(UB3LYP) =  -1140.05990282     A.U. after   32 cycles

 The electronic state is 2-A.
 Alpha  occ. eigenvalues --  -88.96749 -19.02213 -19.02176 -14.28390 -14.24925
 Alpha  occ. eigenvalues --  -14.21503 -10.12349 -10.11825 -10.10011 -10.09993
 Alpha  occ. eigenvalues --  -10.09917 -10.08849 -10.08763 -10.06452 -10.05993
 Alpha  occ. eigenvalues --  -10.05279 -10.04375  -8.02939  -5.99237  -5.99183
 Alpha  occ. eigenvalues --   -5.99006  -1.02329  -0.94379  -0.91366  -0.83376
 Alpha  occ. eigenvalues --   -0.79166  -0.76556  -0.70144  -0.66837  -0.63775
 Alpha  occ. eigenvalues --   -0.60825  -0.58466  -0.52811  -0.52260  -0.50476
 Alpha  occ. eigenvalues --   -0.50112  -0.47965  -0.43758  -0.42673  -0.40623
 Alpha  occ. eigenvalues --   -0.39946  -0.39025  -0.38529  -0.36982  -0.35354
 Alpha  occ. eigenvalues --   -0.34527  -0.34421  -0.33528  -0.32220  -0.30560
 Alpha  occ. eigenvalues --   -0.30071  -0.29169  -0.26604  -0.25979  -0.25747
 Alpha  occ. eigenvalues --   -0.25412  -0.24590  -0.22907  -0.22243  -0.21275
 Alpha  occ. eigenvalues --   -0.20310  -0.19557  -0.18996  -0.18154  -0.14088
 Alpha  occ. eigenvalues --   -0.09902   0.04110
 Alpha virt. eigenvalues --    0.05324   0.07379   0.07800   0.07883   0.08977
 Alpha virt. eigenvalues --    0.09014   0.10177   0.10408   0.10599   0.11340
 Alpha virt. eigenvalues --    0.11984   0.12812   0.13051   0.13491   0.14113

  Beta  occ. eigenvalues --  -88.96747 -19.02210 -19.02174 -14.28243 -14.24898
  Beta  occ. eigenvalues --  -14.21539 -10.12338 -10.11824 -10.10036 -10.09984
  Beta  occ. eigenvalues --  -10.09892 -10.08735 -10.08538 -10.06484 -10.05856
  Beta  occ. eigenvalues --  -10.05019 -10.04325  -8.02936  -5.99231  -5.99181
  Beta  occ. eigenvalues --   -5.99005  -1.02320  -0.94179  -0.91361  -0.83335
  Beta  occ. eigenvalues --   -0.79136  -0.76343  -0.69878  -0.66656  -0.63625
  Beta  occ. eigenvalues --   -0.60611  -0.58380  -0.52728  -0.51853  -0.50362
  Beta  occ. eigenvalues --   -0.49991  -0.47867  -0.43729  -0.42621  -0.40504
  Beta  occ. eigenvalues --   -0.39829  -0.38950  -0.38386  -0.36891  -0.35056
  Beta  occ. eigenvalues --   -0.34306  -0.34177  -0.33485  -0.32114  -0.30495
  Beta  occ. eigenvalues --   -0.30010  -0.29130  -0.26494  -0.25947  -0.25725
  Beta  occ. eigenvalues --   -0.25282  -0.24553  -0.22329  -0.22122  -0.21168
  Beta  occ. eigenvalues --   -0.20296  -0.19063  -0.18657  -0.18001  -0.13632
  Beta  occ. eigenvalues --   -0.09021
  Beta virt. eigenvalues --    0.06694   0.07336   0.08001   0.08306   0.08571
  Beta virt. eigenvalues --    0.08946   0.09281   0.10292   0.10588   0.10854
  Beta virt. eigenvalues --    0.11231   0.12088   0.12778   0.13133   0.13639

 Mulliken charges and spin densities:
               1          2
     1  C    0.831833  -1.127934
     2  C    0.840093  -1.227625
     3  C   -1.194407   1.053182
     4  S    0.480571  -0.350476
     5  O   -0.154961   0.002187
     6  O   -0.178150  -0.002469
     7  N   -0.253539  -0.006244
     8  C   -0.997051   0.137307
     9  C    0.243890  -0.239466
    10  N    0.029641   0.000565
    11  N    0.205135   0.013521
    12  C    0.118276   0.257168
    13  C   -0.540266   0.008727
    14  C   -0.212808   0.100995
    15  C   -0.344274   0.253770
    16  C    0.112822  -0.091220
    17  C   -0.284982   0.082064
    18  H   -0.514289   0.699673
    19  H    0.075245   0.110936
    20  H   -0.361091   0.530705
    21  H    0.050996   0.118472
    22  H   -0.311379   0.603925
    23  H    0.238410   0.064373
    24  H    0.148592   0.032971
    25  H    0.187387   0.016343
    26  H    0.158869  -0.018740
    27  H    0.130594   0.002678
    28  H    0.129652  -0.009538
    29  H    0.143715  -0.015349
    30  H    0.221477  -0.000503
 Sum of Mulliken charges =  -1.00000   1.00000

 Dipole moment (field-independent basis, Debye):
    X=              4.3610    Y=              1.4161    Z=             -0.1554  Tot=              4.5878
 Quadrupole moment (field-independent basis, Debye-Ang):
   XX=           -211.6404   YY=           -129.9423   ZZ=           -129.0471
   XY=             -1.9374   XZ=              1.3787   YZ=             -2.5523

 Summary of Natural Population Analysis:

                                       Natural Population
                Natural  -----------------------------------------------
    Atom  No    Charge         Core      Valence    Rydberg      Total
 -----------------------------------------------------------------------
      C    1   -0.19393      0.99961     2.18362    0.01070     3.19393
      C    2   -0.19370      0.99961     2.18366    0.01043     3.19370
      C    3   -0.22546      0.99950     2.20836    0.01759     3.22546
      S    4    1.10071      4.99925     1.79974    0.10030     6.89929
      O    5   -0.46480      0.99991     3.45916    0.00574     4.46480
      O    6   -0.46361      0.99991     3.45834    0.00536     4.46361
      N    7   -0.44040      0.99977     2.92904    0.01159     3.94040
      C    8   -0.10569      0.99957     2.09363    0.01249     3.10569
      C    9    0.06641      0.99958     1.91930    0.01471     2.93359
      N   10   -0.18284      0.99971     2.67115    0.01197     3.68284
      N   11   -0.07228      0.99960     2.56106    0.01162     3.57228
      C   12    0.07422      0.99957     1.91529    0.01092     2.92578
      C   13   -0.14512      0.99958     2.13641    0.00913     3.14512
      C   14   -0.08010      0.99958     2.07085    0.00967     3.08010
      C   15   -0.07059      0.99954     2.06255    0.00850     3.07059
      C   16    0.07337      0.99956     1.91723    0.00985     2.92663
      C   17   -0.15981      0.99946     2.15268    0.00768     3.15981
      H   18    0.11067      0.00000     0.38702    0.00232     0.38933
      H   19    0.10958      0.00000     0.38926    0.00116     0.39042
      H   20    0.11020      0.00000     0.38778    0.00202     0.38980
      H   21    0.11026      0.00000     0.38848    0.00126     0.38974
      H   22    0.12380      0.00000     0.37496    0.00124     0.37620
      H   23    0.20008      0.00000     0.29790    0.00202     0.29992
      H   24    0.10510      0.00000     0.39336    0.00154     0.39490
      H   25    0.11069      0.00000     0.38781    0.00150     0.38931
      H   26    0.09753      0.00000     0.40160    0.00087     0.40247
      H   27    0.09790      0.00000     0.40120    0.00090     0.40210
      H   28    0.09270      0.00000     0.40635    0.00095     0.40730
      H   29    0.09730      0.00000     0.40133    0.00137     0.40270
      H   30    0.11781      0.00000     0.38128    0.00090     0.38219
 =======================================================================
   * Total *   -0.00000     20.99330    44.72039    0.28631    66.00000

 Normal termination of Gaussian 16 at Mon Dec 14 14:11:44 2020.
