 Gaussian 16, Revision A.03,

 -----------------------------------------------------------
 # opt freq B3LYP/6-31G(d) empiricaldispersion=gd3bj scf=xqc
 -----------------------------------------------------------

 ------------------------------
 CID_43417872_JID_8759_neutraal
 ------------------------------
 Symbolic Z-matrix:
 Charge =  0 Multiplicity = 1

 SCF Done:  E(RB3LYP) =  -859.896423834     A.U. after   15 cycles
 SCF Done:  E(RB3LYP) =  -859.897273260     A.U. after   13 cycles
 SCF Done:  E(RB3LYP) =  -859.892137355     A.U. after   13 cycles
 SCF Done:  E(RB3LYP) =  -859.899791171     A.U. after   13 cycles
 SCF Done:  E(RB3LYP) =  -859.900372872     A.U. after   12 cycles
 SCF Done:  E(RB3LYP) =  -859.901493541     A.U. after   12 cycles
 SCF Done:  E(RB3LYP) =  -859.901822705     A.U. after   11 cycles
 SCF Done:  E(RB3LYP) =  -859.902025937     A.U. after   11 cycles
 SCF Done:  E(RB3LYP) =  -859.902453787     A.U. after   13 cycles
 SCF Done:  E(RB3LYP) =  -859.902811534     A.U. after   13 cycles
 SCF Done:  E(RB3LYP) =  -859.904002778     A.U. after   10 cycles
 SCF Done:  E(RB3LYP) =  -859.904003888     A.U. after   10 cycles
 SCF Done:  E(RB3LYP) =  -859.904003958     A.U. after    8 cycles
 SCF Done:  E(RB3LYP) =  -859.904004145     A.U. after    9 cycles
 SCF Done:  E(RB3LYP) =  -859.904004507     A.U. after    8 cycles
 SCF Done:  E(RB3LYP) =  -859.904004627     A.U. after    7 cycles
 Optimization completed.
    -- Stationary point found.
 Normal termination of Gaussian 16 at Fri Dec 11 22:23:45 2020.

 --------------------------------------------------------------------
 #N Geom=AllCheck Guess=TCheck SCRF=Check GenChk RB3LYP/6-31G(d) Freq
 --------------------------------------------------------------------

 Structure from the checkpoint file:  "JID_8759.chk"
 ------------------------------
 CID_43417872_JID_8759_neutraal
 ------------------------------
 Charge =  0 Multiplicity = 1

 SCF Done:  E(RB3LYP) =  -859.904004627     A.U. after    1 cycles

  Exact polarizability: 151.821   0.393 170.159   1.773   3.866 123.962
 Approx polarizability: 209.324  -5.546 247.802   5.668  -1.038 187.659

                      1                      2                      3
                      A                      A                      A
 Frequencies --     26.1476                28.2768                44.1965
 Red. masses --      4.1925                 4.6552                 4.2483
 Frc consts  --      0.0017                 0.0022                 0.0049
 IR Inten    --      0.5271                 0.2043                 0.3489

                      4                      5                      6
                      A                      A                      A
 Frequencies --     49.5617                60.4854                72.7411
 Red. masses --      3.8528                 4.7244                 7.8036
 Frc consts  --      0.0056                 0.0102                 0.0243
 IR Inten    --      2.3180                 0.4463                 3.6039

                      7                      8                      9
                      A                      A                      A
 Frequencies --     81.2646                84.3265               100.5434
 Red. masses --      3.7658                 2.0768                 2.7408
 Frc consts  --      0.0147                 0.0087                 0.0163
 IR Inten    --      0.1067                 0.4542                 0.4048

                     10                     11                     12
                      A                      A                      A
 Frequencies --    130.1150               156.0149               184.6847
 Red. masses --      2.4918                 2.2940                 4.6827
 Frc consts  --      0.0249                 0.0329                 0.0941
 IR Inten    --      6.1863                 0.6590                 0.1091

                     13                     14                     15
                      A                      A                      A
 Frequencies --    199.4704               214.1993               244.5591
 Red. masses --      3.0947                 1.5367                 1.5587
 Frc consts  --      0.0725                 0.0415                 0.0549
 IR Inten    --      1.2823                 0.3938                 3.2766

                     16                     17                     18
                      A                      A                      A
 Frequencies --    272.4383               276.4856               291.4397
 Red. masses --      2.2514                 2.0633                 2.5844
 Frc consts  --      0.0985                 0.0929                 0.1293
 IR Inten    --      7.0529                 7.2991                 1.2691

                     19                     20                     21
                      A                      A                      A
 Frequencies --    327.1057               358.1441               364.7070
 Red. masses --      3.8615                 2.3264                 2.3543
 Frc consts  --      0.2434                 0.1758                 0.1845
 IR Inten    --      0.4449                11.9942                 9.7889

                     22                     23                     24
                      A                      A                      A
 Frequencies --    415.2520               451.3525               462.4127
 Red. masses --      2.3211                 1.6651                 2.9048
 Frc consts  --      0.2358                 0.1999                 0.3659
 IR Inten    --     36.8273                62.8790                 0.7133

                     25                     26                     27
                      A                      A                      A
 Frequencies --    482.4077               523.4899               537.3573
 Red. masses --      3.2597                 2.7217                 3.3613
 Frc consts  --      0.4469                 0.4395                 0.5718
 IR Inten    --     35.7047                 4.8605                63.6232

                     28                     29                     30
                      A                      A                      A
 Frequencies --    581.9129               615.9215               627.3921
 Red. masses --      2.7881                 2.9847                 2.2834
 Frc consts  --      0.5563                 0.6671                 0.5295
 IR Inten    --     14.5088                 6.8422                21.3431

                     31                     32                     33
                      A                      A                      A
 Frequencies --    663.5798               723.8400               732.3632
 Red. masses --      3.3208                 4.4143                 1.9509
 Frc consts  --      0.8616                 1.3627                 0.6165
 IR Inten    --     28.3337                 2.1044                30.5460

                     34                     35                     36
                      A                      A                      A
 Frequencies --    745.1985               778.4330               802.0972
 Red. masses --      2.0513                 2.0367                 1.5644
 Frc consts  --      0.6711                 0.7271                 0.5930
 IR Inten    --     27.8420                 8.0282                16.3444

                     37                     38                     39
                      A                      A                      A
 Frequencies --    831.5828               881.1235               895.9553
 Red. masses --      1.7936                 2.6417                 3.3964
 Frc consts  --      0.7308                 1.2084                 1.6064
 IR Inten    --     13.6944                 3.1623                10.0370

                     40                     41                     42
                      A                      A                      A
 Frequencies --    909.5549               915.5347               925.9311
 Red. masses --      2.6868                 1.9007                 1.9066
 Frc consts  --      1.3096                 0.9387                 0.9631
 IR Inten    --     11.8234                 3.2118                 0.3441

                     43                     44                     45
                      A                      A                      A
 Frequencies --    949.6496               996.3747              1002.4333
 Red. masses --      2.6320                 2.1259                 1.5081
 Frc consts  --      1.3985                 1.2435                 0.8929
 IR Inten    --      1.5116                 7.2166                 4.4371

                     46                     47                     48
                      A                      A                      A
 Frequencies --   1027.3745              1043.2878              1054.8711
 Red. masses --      5.3346                 1.6645                 2.1931
 Frc consts  --      3.3175                 1.0675                 1.4378
 IR Inten    --      1.8916                 1.2456                 0.9027

                     49                     50                     51
                      A                      A                      A
 Frequencies --   1067.1172              1074.2999              1079.3664
 Red. masses --      2.8120                 4.3719                 3.7898
 Frc consts  --      1.8866                 2.9728                 2.6014
 IR Inten    --     11.4226                 6.2539                72.4930

                     52                     53                     54
                      A                      A                      A
 Frequencies --   1106.3400              1110.6514              1123.3146
 Red. masses --      2.5220                 1.8320                 1.7547
 Frc consts  --      1.8187                 1.3315                 1.3045
 IR Inten    --     17.4291                 0.7945                 9.8132

                     55                     56                     57
                      A                      A                      A
 Frequencies --   1143.8650              1194.0081              1205.4520
 Red. masses --      2.0985                 1.9901                 1.3198
 Frc consts  --      1.6177                 1.6716                 1.1300
 IR Inten    --      4.2208                25.6881                15.4641

                     58                     59                     60
                      A                      A                      A
 Frequencies --   1240.5083              1241.5269              1256.1966
 Red. masses --      1.6416                 1.4515                 1.3599
 Frc consts  --      1.4884                 1.3182                 1.2643
 IR Inten    --     16.5277                15.9732                 7.5277

                     61                     62                     63
                      A                      A                      A
 Frequencies --   1284.8802              1304.8818              1307.2897
 Red. masses --      1.7581                 1.2431                 1.2445
 Frc consts  --      1.7101                 1.2471                 1.2531
 IR Inten    --      6.8179                 5.3676                 2.5537

                     64                     65                     66
                      A                      A                      A
 Frequencies --   1326.7568              1339.7861              1360.3850
 Red. masses --      1.8044                 1.3333                 1.7486
 Frc consts  --      1.8714                 1.4101                 1.9066
 IR Inten    --     92.1048                 0.8114                71.4986

                     67                     68                     69
                      A                      A                      A
 Frequencies --   1376.0274              1385.4090              1398.2302
 Red. masses --      1.3510                 1.5312                 1.3390
 Frc consts  --      1.5072                 1.7315                 1.5423
 IR Inten    --      4.7723                10.9065                10.7229

                     70                     71                     72
                      A                      A                      A
 Frequencies --   1402.7361              1410.3654              1426.5345
 Red. masses --      1.6570                 1.2402                 2.4755
 Frc consts  --      1.9209                 1.4534                 2.9681
 IR Inten    --     15.2501                 9.3575                58.0064

                     73                     74                     75
                      A                      A                      A
 Frequencies --   1432.7303              1445.5560              1447.5894
 Red. masses --      1.8639                 1.5061                 1.3005
 Frc consts  --      2.2542                 1.8543                 1.6056
 IR Inten    --     42.0597                80.9253                 2.5095

                     76                     77                     78
                      A                      A                      A
 Frequencies --   1452.1882              1494.2605              1497.4976
 Red. masses --      1.2452                 1.3719                 1.1426
 Frc consts  --      1.5472                 1.8048                 1.5096
 IR Inten    --      6.3450                25.3739                16.1688

                     79                     80                     81
                      A                      A                      A
 Frequencies --   1501.6073              1513.3116              1514.7805
 Red. masses --      1.1142                 1.0776                 1.1530
 Frc consts  --      1.4802                 1.4540                 1.5588
 IR Inten    --     11.6106                 5.9430                23.2934

                     82                     83                     84
                      A                      A                      A
 Frequencies --   1518.0117              1530.3402              1530.9267
 Red. masses --      1.0788                 1.0800                 1.0455
 Frc consts  --      1.4646                 1.4903                 1.4437
 IR Inten    --      2.7757                10.6027                 7.1318

                     85                     86                     87
                      A                      A                      A
 Frequencies --   1533.5550              1535.5795              1541.0162
 Red. masses --      1.0722                 1.0793                 1.0596
 Frc consts  --      1.4857                 1.4994                 1.4825
 IR Inten    --      2.7170                 0.8964                 5.9162

                     88                     89                     90
                      A                      A                      A
 Frequencies --   1577.0618              1632.3141              1781.1309
 Red. masses --      7.5625                 8.7519                 7.8502
 Frc consts  --     11.0819                13.7391                14.6731
 IR Inten    --      6.9897                87.3140               339.7884

                     91                     92                     93
                      A                      A                      A
 Frequencies --   3008.1756              3046.3742              3050.2637
 Red. masses --      1.0694                 1.0635                 1.0499
 Frc consts  --      5.7014                 5.8153                 5.7553
 IR Inten    --     61.0168                12.5476                15.1071

                     94                     95                     96
                      A                      A                      A
 Frequencies --   3050.9140              3052.0793              3059.3745
 Red. masses --      1.0401                 1.0490                 1.0616
 Frc consts  --      5.7040                 5.7574                 5.8546
 IR Inten    --     53.8125                 4.8642                27.5249

                     97                     98                     99
                      A                      A                      A
 Frequencies --   3069.2779              3078.3480              3087.7966
 Red. masses --      1.0623                 1.0686                 1.1027
 Frc consts  --      5.8959                 5.9664                 6.1946
 IR Inten    --     10.3942                 9.6892                 7.6847

                    100                    101                    102
                      A                      A                      A
 Frequencies --   3091.0569              3103.5798              3108.4213
 Red. masses --      1.0971                 1.0942                 1.1022
 Frc consts  --      6.1762                 6.2099                 6.2746
 IR Inten    --      4.6234                26.4855                 2.9187

                    103                    104                    105
                      A                      A                      A
 Frequencies --   3111.1531              3112.2672              3121.2743
 Red. masses --      1.1001                 1.0995                 1.1016
 Frc consts  --      6.2740                 6.2746                 6.3235
 IR Inten    --      5.9016                49.0759                48.3065

                    106                    107                    108
                      A                      A                      A
 Frequencies --   3123.3695              3128.1258              3147.4927
 Red. masses --      1.1027                 1.1022                 1.0874
 Frc consts  --      6.3381                 6.3542                 6.3469
 IR Inten    --     50.6191                35.4606                 3.9252

                    109                    110                    111
                      A                      A                      A
 Frequencies --   3167.2560              3569.0610              3715.0716
 Red. masses --      1.0907                 1.0743                 1.0650
 Frc consts  --      6.4465                 8.0627                 8.6605
 IR Inten    --      9.9307                15.1839                14.8413

 - Thermochemistry -
 -------------------
 Temperature   298.150 Kelvin.  Pressure   1.00000 Atm.
 Atom     1 has atomic number  6 and mass  12.00000

 Molecular mass:   255.15829 amu.
 Principal axes and moments of inertia in atomic units:
                           1         2         3
     Eigenvalues --  3747.769945950.524637786.32630
           X            0.99974   0.01798  -0.01424
           Y           -0.01760   0.99948   0.02695
           Z            0.01471  -0.02669   0.99954
 This molecule is an asymmetric top.
 Rotational symmetry number  1.
 Warning -- assumption of classical behavior for rotation
           may cause significant error
 Rotational temperatures (Kelvin)      0.02311     0.01456     0.01112
 Rotational constants (GHZ):           0.48155     0.30329     0.23178
 Zero-point vibrational energy     883978.8 (Joules/Mol)
                                  211.27600 (Kcal/Mol)
 Warning -- explicit consideration of  29 degrees of freedom as
           vibrations may cause significant error
 Vibrational temperatures:     37.62    40.68    63.59    71.31    87.03
          (Kelvin)            104.66   116.92   121.33   144.66   187.21
                              224.47   265.72   286.99   308.19   351.87
                              391.98   397.80   419.32   470.63   515.29
                              524.73   597.46   649.40   665.31   694.08
                              753.19   773.14   837.24   886.17   902.68
                              954.74  1041.44  1053.71  1072.17  1119.99
                             1154.04  1196.46  1267.74  1289.08  1308.65
                             1317.25  1332.21  1366.33  1433.56  1442.28
                             1478.16  1501.06  1517.72  1535.34  1545.68
                             1552.97  1591.78  1597.98  1616.20  1645.77
                             1717.91  1734.38  1784.81  1786.28  1807.39
                             1848.66  1877.43  1880.90  1908.91  1927.65
                             1957.29  1979.80  1993.29  2011.74  2018.22
                             2029.20  2052.46  2061.38  2079.83  2082.76
                             2089.37  2149.91  2154.57  2160.48  2177.32
                             2179.43  2184.08  2201.82  2202.66  2206.44
                             2209.36  2217.18  2269.04  2348.54  2562.65
                             4328.09  4383.05  4388.65  4389.58  4391.26
                             4401.76  4416.01  4429.06  4442.65  4447.34
                             4465.36  4472.32  4476.26  4477.86  4490.82
                             4493.83  4500.68  4528.54  4556.97  5135.08
                             5345.16

 Zero-point correction=                           0.336690 (Hartree/Particle)
 Thermal correction to Energy=                    0.356254
 Thermal correction to Enthalpy=                  0.357199
 Thermal correction to Gibbs Free Energy=         0.286333
 Sum of electronic and zero-point Energies=           -859.567315
 Sum of electronic and thermal Energies=              -859.547750
 Sum of electronic and thermal Enthalpies=            -859.546806
 Sum of electronic and thermal Free Energies=         -859.617672

                     E (Thermal)             CV                S
                      KCal/Mol        Cal/Mol-Kelvin    Cal/Mol-Kelvin
 Total                  223.553             70.919            149.150
 Electronic               0.000              0.000              0.000
 Translational            0.889              2.981             42.510
 Rotational               0.889              2.981             33.518
 Vibrational            221.776             64.957             73.122
 Vibration     1          0.593              1.985              6.102
 Vibration     2          0.593              1.984              5.947
 Vibration     3          0.595              1.980              5.062
 Vibration     4          0.595              1.978              4.835
 Vibration     5          0.597              1.973              4.441
 Vibration     6          0.599              1.967              4.078
 Vibration     7          0.600              1.962              3.860
 Vibration     8          0.601              1.960              3.788
 Vibration     9          0.604              1.949              3.444
 Vibration    10          0.612              1.923              2.944
 Vibration    11          0.620              1.896              2.598
 Vibration    12          0.631              1.861              2.281
 Vibration    13          0.638              1.841              2.138
 Vibration    14          0.644              1.819              2.008
 Vibration    15          0.660              1.772              1.769
 Vibration    16          0.675              1.724              1.581
 Vibration    17          0.678              1.717              1.555
 Vibration    18          0.687              1.690              1.466
 Vibration    19          0.711              1.621              1.274
 Vibration    20          0.733              1.559              1.130
 Vibration    21          0.738              1.545              1.102
 Vibration    22          0.779              1.437              0.908
 Vibration    23          0.810              1.358              0.792
 Vibration    24          0.820              1.333              0.759
 Vibration    25          0.839              1.289              0.704
 Vibration    26          0.878              1.198              0.602
 Vibration    27          0.892              1.167              0.571
 Vibration    28          0.939              1.070              0.482
 Vibration    29          0.976              0.998              0.423

                           ! Non-Optimized Parameters !
 Normal termination of Gaussian 16 at Fri Dec 11 22:41:01 2020.

 ----------------------------------------------------------------------
 # B3LYP/6-311++G(d,p) empiricaldispersion=gd3bj scf=xqc pop=npa geom=c
 heck
 ----------------------------------------------------------------------

 --------------------------------------
 CID_43417872_JID_8759_Energie_neutraal
 --------------------------------------
 Structure from the checkpoint file:  "JID_8759.chk"
 Charge =  0 Multiplicity = 1

 SCF Done:  E(RB3LYP) =  -860.157580799     A.U. after   15 cycles
 Normal termination of Gaussian 16 at Fri Dec 11 22:47:56 2020.

 ----------------------------------------------------------------------
 # B3LYP/6-311++G(d,p) empiricaldispersion=gd3bj scf=xqc pop=npa geom=c
 heck
 ----------------------------------------------------------------------

 ------------------------------------
 CID_43417872_JID_8759_Energie_kation
 ------------------------------------
 Structure from the checkpoint file:  "JID_8759.chk"
 Charge =  1 Multiplicity = 2

 SCF Done:  E(UB3LYP) =  -859.826902404     A.U. after   30 cycles
 Normal termination of Gaussian 16 at Fri Dec 11 23:06:33 2020.
 Gaussian 16:  ES64L-G16RevA.03 25-Dec-2016

 ----------------------------------------------------------------------
 # B3LYP/6-311++G(d,p) empiricaldispersion=gd3bj scf=xqc pop=npa geom=c
 heck
 ----------------------------------------------------------------------

 -----------------------------------
 CID_43417872_JID_8759_Energie_anion
 -----------------------------------
 Structure from the checkpoint file:  "JID_8759.chk"
 Charge = -1 Multiplicity = 2

                         Standard orientation:
 ---------------------------------------------------------------------
 Center     Atomic      Atomic             Coordinates (Angstroms)
 Number     Number       Type             X           Y           Z
 ---------------------------------------------------------------------
      1          6           0       -3.321257   -2.074864    1.553884
      2          6           0       -2.476142   -2.369645    0.313355
      3          6           0       -2.766580   -1.410950   -0.856383
      4          6           0       -2.448322    0.008809   -0.517672
      5          7           0       -3.340352    0.965977   -0.548782
      6          8           0       -2.605158    2.107674   -0.144922
      7          6           0       -1.350241    1.694865    0.088467
      8          7           0       -1.188089    0.418233   -0.118706
      9          6           0       -0.336388    2.694022    0.532324
     10          6           0        1.021612    2.044505    0.815787
     11          6           0        1.681837    1.596796   -0.487393
     12          8           0        1.793975    2.385071   -1.419335
     13          7           0        2.225634    0.337818   -0.555878
     14          6           0        1.833369   -0.861250    0.197501
     15          6           0        1.395179   -1.989684   -0.750199
     16          6           0        2.454589   -2.494693   -1.736965
     17          6           0        2.959675   -1.254351    1.160440
     18          8           0        3.289600   -0.180876    2.028049
     19          1           0       -3.122283   -1.068814    1.939259
     20          1           0       -3.105638   -2.789378    2.355373
     21          1           0       -4.391971   -2.135404    1.326243
     22          1           0       -1.410827   -2.306488    0.564465
     23          1           0       -2.659963   -3.394648   -0.030979
     24          1           0       -2.165824   -1.701755   -1.727389
     25          1           0       -3.820032   -1.467941   -1.149141
     26          1           0       -0.213478    3.446982   -0.254326
     27          1           0       -0.716385    3.212404    1.420001
     28          1           0        1.682844    2.809829    1.238370
     29          1           0        0.941043    1.248979    1.555981
     30          1           0        2.645929    0.175881   -1.465029
     31          1           0        0.958123   -0.596424    0.790135
     32          1           0        1.053666   -2.828764   -0.129835
     33          1           0        0.517540   -1.628854   -1.298016
     34          1           0        3.331554   -2.906354   -1.226745
     35          1           0        2.037566   -3.287006   -2.367146
     36          1           0        2.802859   -1.704820   -2.413852
     37          1           0        2.630172   -2.080634    1.798629
     38          1           0        3.845361   -1.593967    0.601289
     39          1           0        3.568066    0.546677    1.447067
 ---------------------------------------------------------------------

 SCF Done:  E(UB3LYP) =  -860.151719109     A.U. after   31 cycles

 The electronic state is 2-A.
 Alpha  occ. eigenvalues --  -19.11213 -19.03763 -18.99887 -14.25861 -14.24670
 Alpha  occ. eigenvalues --  -14.21930 -10.18496 -10.17510 -10.13781 -10.12739
 Alpha  occ. eigenvalues --  -10.12014 -10.10616 -10.09651 -10.08844 -10.08240
 Alpha  occ. eigenvalues --  -10.07800 -10.07516 -10.06883  -1.06027  -0.95145
 Alpha  occ. eigenvalues --   -0.94039  -0.84028  -0.83387  -0.78257  -0.70854
 Alpha  occ. eigenvalues --   -0.70147  -0.69558  -0.63300  -0.61719  -0.59908
 Alpha  occ. eigenvalues --   -0.56317  -0.53054  -0.51644  -0.50638  -0.48808
 Alpha  occ. eigenvalues --   -0.47734  -0.43127  -0.42276  -0.41094  -0.39732
 Alpha  occ. eigenvalues --   -0.38939  -0.37039  -0.36283  -0.35892  -0.35349
 Alpha  occ. eigenvalues --   -0.34852  -0.34365  -0.33892  -0.32712  -0.32406
 Alpha  occ. eigenvalues --   -0.30852  -0.30502  -0.29594  -0.28830  -0.27729
 Alpha  occ. eigenvalues --   -0.27396  -0.26705  -0.26506  -0.25759  -0.25284
 Alpha  occ. eigenvalues --   -0.24917  -0.24503  -0.23858  -0.22470  -0.20207
 Alpha  occ. eigenvalues --   -0.19657  -0.18715  -0.17560  -0.16427   0.03828
 Alpha virt. eigenvalues --    0.05736   0.06142   0.06708   0.07561   0.07973
 Alpha virt. eigenvalues --    0.08482   0.09321   0.09482   0.10020   0.10054
 Alpha virt. eigenvalues --    0.10499   0.10965   0.11420   0.11888   0.12055

  Beta  occ. eigenvalues --  -19.11116 -19.03753 -18.99866 -14.25715 -14.24664
  Beta  occ. eigenvalues --  -14.21949 -10.18473 -10.17383 -10.13746 -10.12718
  Beta  occ. eigenvalues --  -10.12012 -10.10617 -10.09640 -10.08842 -10.08225
  Beta  occ. eigenvalues --  -10.07773 -10.07480 -10.06868  -1.05853  -0.95106
  Beta  occ. eigenvalues --   -0.94020  -0.83951  -0.83364  -0.78052  -0.70813
  Beta  occ. eigenvalues --   -0.70106  -0.69498  -0.63256  -0.61669  -0.59806
  Beta  occ. eigenvalues --   -0.56263  -0.52973  -0.51553  -0.50550  -0.48736
  Beta  occ. eigenvalues --   -0.47680  -0.43089  -0.42154  -0.41009  -0.39546
  Beta  occ. eigenvalues --   -0.38795  -0.36989  -0.36229  -0.35809  -0.35300
  Beta  occ. eigenvalues --   -0.34813  -0.34276  -0.33830  -0.32643  -0.32359
  Beta  occ. eigenvalues --   -0.30782  -0.30467  -0.29511  -0.28784  -0.27663
  Beta  occ. eigenvalues --   -0.27353  -0.26607  -0.26452  -0.25731  -0.25243
  Beta  occ. eigenvalues --   -0.24861  -0.24471  -0.23740  -0.22240  -0.20143
  Beta  occ. eigenvalues --   -0.19623  -0.18062  -0.17520  -0.16387
  Beta virt. eigenvalues --    0.05994   0.06605   0.06835   0.07465   0.08035
  Beta virt. eigenvalues --    0.08280   0.08825   0.09513   0.09736   0.10215
  Beta virt. eigenvalues --    0.10317   0.10829   0.11153   0.11680   0.12041

 Mulliken charges and spin densities:
               1          2
     1  C   -0.124584  -0.535224
     2  C   -0.039582  -0.067533
     3  C   -0.206868  -0.048068
     4  C    1.014780  -0.568478
     5  N   -0.359085   0.113825
     6  O    0.199818   0.019151
     7  C   -0.289208  -0.043141
     8  N   -0.044291   0.031958
     9  C   -0.363009  -0.260683
    10  C    0.107845  -0.136698
    11  C   -0.545272   0.224910
    12  O   -0.286293   0.010745
    13  N   -0.152348  -0.017059
    14  C    0.169859  -0.146680
    15  C   -1.469702   1.093862
    16  C    0.799389  -1.471931
    17  C    0.379644  -0.717174
    18  O   -0.178967   0.004743
    19  H    0.060822   0.114033
    20  H   -0.139904   0.287077
    21  H    0.126945  -0.008738
    22  H    0.277275  -0.128886
    23  H   -0.604879   0.787338
    24  H   -0.051867   0.226465
    25  H    0.057668   0.128116
    26  H    0.262224  -0.022519
    27  H   -0.095561   0.301168
    28  H   -0.129273   0.348058
    29  H    0.204213   0.001078
    30  H    0.286185   0.019910
    31  H    0.545636  -0.274209
    32  H   -0.169737   0.322439
    33  H    0.459030  -0.287719
    34  H   -0.091451   0.238675
    35  H   -0.487225   0.654690
    36  H   -0.103175   0.212810
    37  H   -0.137363   0.323656
    38  H   -0.056753   0.206210
    39  H    0.175065   0.063823
 Sum of Mulliken charges =  -1.00000   1.00000

 Dipole moment (field-independent basis, Debye):
    X=              0.2204    Y=              3.5204    Z=              1.3151  Tot=              3.7644
 Quadrupole moment (field-independent basis, Debye-Ang):
   XX=           -172.0361   YY=           -176.7970   ZZ=           -149.8291
   XY=              0.8381   XZ=             -1.5359   YZ=             -1.4194

 Summary of Natural Population Analysis:

                                       Natural Population
                Natural  -----------------------------------------------
    Atom  No    Charge         Core      Valence    Rydberg      Total
 -----------------------------------------------------------------------
      C    1   -0.28749      0.99966     2.28200    0.00583     3.28749
      C    2   -0.18727      0.99964     2.17961    0.00802     3.18727
      C    3   -0.21009      0.99958     2.20049    0.01002     3.21009
      C    4    0.18288      0.99964     1.79871    0.01877     2.81712
      N    5   -0.07809      0.99966     2.56715    0.01128     3.57809
      O    6   -0.16657      0.99985     3.15897    0.00775     4.16657
      C    7    0.31121      0.99962     1.67117    0.01800     2.68879
      N    8   -0.29106      0.99966     2.78238    0.00902     3.79106
      C    9   -0.22125      0.99958     2.21264    0.00903     3.22125
      C   10   -0.23293      0.99958     2.22373    0.00962     3.23293
      C   11    0.35299      0.99967     1.62452    0.02282     2.64701
      O   12   -0.32637      0.99988     3.32076    0.00573     4.32637
      N   13   -0.33042      0.99965     2.81970    0.01106     3.83042
      C   14   -0.03023      0.99956     2.01782    0.01284     3.03023
      C   15   -0.19467      0.99961     2.18603    0.00903     3.19467
      C   16   -0.28911      0.99966     2.28389    0.00556     3.28911
      C   17   -0.00911      0.99956     1.99848    0.01107     3.00911
      O   18   -0.36841      0.99990     3.36191    0.00660     4.36841
      H   19    0.09883      0.00000     0.40024    0.00094     0.40117
      H   20    0.09954      0.00000     0.39973    0.00072     0.40046
      H   21    0.09481      0.00000     0.40431    0.00088     0.40519
      H   22    0.09943      0.00000     0.39858    0.00200     0.40057
      H   23    0.09894      0.00000     0.39894    0.00213     0.40106
      H   24    0.11096      0.00000     0.38760    0.00144     0.38904
      H   25    0.10659      0.00000     0.39224    0.00117     0.39341
      H   26    0.12262      0.00000     0.37610    0.00128     0.37738
      H   27    0.11472      0.00000     0.38377    0.00151     0.38528
      H   28    0.11395      0.00000     0.38494    0.00112     0.38605
      H   29    0.11180      0.00000     0.38667    0.00153     0.38820
      H   30    0.19428      0.00000     0.30327    0.00245     0.30572
      H   31    0.11317      0.00000     0.38353    0.00330     0.38683
      H   32    0.10142      0.00000     0.39689    0.00169     0.39858
      H   33    0.10509      0.00000     0.39257    0.00234     0.39491
      H   34    0.09748      0.00000     0.40134    0.00118     0.40252
      H   35    0.10647      0.00000     0.39223    0.00130     0.39353
      H   36    0.09122      0.00000     0.40759    0.00120     0.40878
      H   37    0.08976      0.00000     0.40899    0.00125     0.41024
      H   38    0.07688      0.00000     0.42160    0.00152     0.42312
      H   39    0.22802      0.00000     0.26856    0.00342     0.27198
 =======================================================================
   * Total *   -0.00000     17.99396    50.77962    0.22642    69.00000

 Normal termination of Gaussian 16 at Fri Dec 11 23:25:37 2020.
