 Gaussian 16, Revision A.03,

 -----------------------------------------------------------
 # opt freq B3LYP/6-31G(d) empiricaldispersion=gd3bj scf=xqc
 -----------------------------------------------------------

 ------------------------------
 CID_58536860_JID_1683_neutraal
 ------------------------------
 Symbolic Z-matrix:
 Charge =  0 Multiplicity = 1

 SCF Done:  E(RB3LYP) =  -469.578749706     A.U. after   12 cycles
 SCF Done:  E(RB3LYP) =  -469.579922206     A.U. after   10 cycles
 SCF Done:  E(RB3LYP) =  -469.576902908     A.U. after   11 cycles
 SCF Done:  E(RB3LYP) =  -469.578893798     A.U. after   11 cycles
 SCF Done:  E(RB3LYP) =  -469.580667939     A.U. after    8 cycles
 SCF Done:  E(RB3LYP) =  -469.581150583     A.U. after   10 cycles
 SCF Done:  E(RB3LYP) =  -469.581307215     A.U. after   10 cycles
 SCF Done:  E(RB3LYP) =  -469.581428406     A.U. after    9 cycles
 SCF Done:  E(RB3LYP) =  -469.581451294     A.U. after    9 cycles
 SCF Done:  E(RB3LYP) =  -469.581468646     A.U. after    8 cycles
 SCF Done:  E(RB3LYP) =  -469.581471892     A.U. after    8 cycles
 SCF Done:  E(RB3LYP) =  -469.581473029     A.U. after    7 cycles
 SCF Done:  E(RB3LYP) =  -469.581473247     A.U. after    6 cycles
 SCF Done:  E(RB3LYP) =  -469.581473303     A.U. after    6 cycles
 Optimization completed.
    -- Stationary point found.
 Normal termination of Gaussian 16 at Tue Dec  8 20:16:43 2020.

 --------------------------------------------------------------------
 #N Geom=AllCheck Guess=TCheck SCRF=Check GenChk RB3LYP/6-31G(d) Freq
 --------------------------------------------------------------------

 Structure from the checkpoint file:  "JID_1683.chk"
 ------------------------------
 CID_58536860_JID_1683_neutraal
 ------------------------------
 Charge =  0 Multiplicity = 1

 SCF Done:  E(RB3LYP) =  -469.581473303     A.U. after    1 cycles

  Exact polarizability: 124.013  -1.690 109.675   0.658  -1.498  96.614
 Approx polarizability: 153.290  -3.734 145.911   1.627   0.571 142.557

                      1                      2                      3
                      A                      A                      A
 Frequencies --     40.6212                65.8514                90.0252
 Red. masses --      2.4748                 2.4120                 3.1950
 Frc consts  --      0.0024                 0.0062                 0.0153
 IR Inten    --      0.0265                 0.0513                 0.4832

                      4                      5                      6
                      A                      A                      A
 Frequencies --    111.3895               127.3828               172.0606
 Red. masses --      2.0980                 2.7600                 1.7498
 Frc consts  --      0.0153                 0.0264                 0.0305
 IR Inten    --      0.7333                 0.5834                 0.0679

                      7                      8                      9
                      A                      A                      A
 Frequencies --    194.2188               207.4351               217.1036
 Red. masses --      2.1784                 2.2580                 2.1810
 Frc consts  --      0.0484                 0.0572                 0.0606
 IR Inten    --      0.0633                 1.1476                 0.3627

                     10                     11                     12
                      A                      A                      A
 Frequencies --    250.7730               260.8483               269.5606
 Red. masses --      1.1078                 1.5927                 1.4658
 Frc consts  --      0.0410                 0.0639                 0.0628
 IR Inten    --      0.2712                 0.4852                 0.1079

                     13                     14                     15
                      A                      A                      A
 Frequencies --    296.0739               299.7101               348.3792
 Red. masses --      1.0903                 2.0019                 2.4412
 Frc consts  --      0.0563                 0.1059                 0.1746
 IR Inten    --      0.0517                 0.1223                 0.1531

                     16                     17                     18
                      A                      A                      A
 Frequencies --    364.2576               387.7295               429.5479
 Red. masses --      2.2179                 2.0457                 2.7607
 Frc consts  --      0.1734                 0.1812                 0.3001
 IR Inten    --      0.2450                 1.4031                 7.0256

                     19                     20                     21
                      A                      A                      A
 Frequencies --    485.2637               534.1518               660.0154
 Red. masses --      2.9028                 2.9881                 2.2262
 Frc consts  --      0.4027                 0.5023                 0.5714
 IR Inten    --      6.6975                 2.1438                 0.5834

                     22                     23                     24
                      A                      A                      A
 Frequencies --    710.1836               754.2311               776.3549
 Red. masses --      2.1579                 1.1830                 1.7585
 Frc consts  --      0.6412                 0.3965                 0.6245
 IR Inten    --      5.3698                 1.8946                 4.2897

                     25                     26                     27
                      A                      A                      A
 Frequencies --    827.9248               881.4580               892.1419
 Red. masses --      1.8218                 1.6715                 2.0632
 Frc consts  --      0.7358                 0.7652                 0.9675
 IR Inten    --      3.5459                 5.0343                 0.7430

                     28                     29                     30
                      A                      A                      A
 Frequencies --    900.5160               918.6494               928.9973
 Red. masses --      1.6367                 1.9039                 1.3572
 Frc consts  --      0.7820                 0.9467                 0.6901
 IR Inten    --      1.9478                 4.8698                 0.3880

                     31                     32                     33
                      A                      A                      A
 Frequencies --    949.1590               974.5559              1024.0672
 Red. masses --      1.2774                 1.5784                 1.9694
 Frc consts  --      0.6780                 0.8832                 1.2168
 IR Inten    --      1.0262                 1.9010                 6.1154

                     34                     35                     36
                      A                      A                      A
 Frequencies --   1048.7759              1062.6604              1074.3879
 Red. masses --      2.0749                 1.9555                 1.6059
 Frc consts  --      1.3446                 1.3010                 1.0922
 IR Inten    --     66.2320                 3.2740                 0.0538

                     37                     38                     39
                      A                      A                      A
 Frequencies --   1092.1833              1155.5195              1159.5135
 Red. masses --      2.1613                 2.1571                 2.2087
 Frc consts  --      1.5190                 1.6970                 1.7496
 IR Inten    --      2.4042                13.5865                 3.1502

                     40                     41                     42
                      A                      A                      A
 Frequencies --   1168.7451              1184.5522              1204.3871
 Red. masses --      2.1650                 1.9829                 1.9885
 Frc consts  --      1.7424                 1.6393                 1.6995
 IR Inten    --      5.2653                13.5820                18.0420

                     43                     44                     45
                      A                      A                      A
 Frequencies --   1211.3023              1254.3688              1295.8911
 Red. masses --      2.7575                 1.3833                 1.2704
 Frc consts  --      2.3838                 1.2824                 1.2570
 IR Inten    --    184.1238                 1.7191                 2.4295

                     46                     47                     48
                      A                      A                      A
 Frequencies --   1314.0306              1336.6898              1354.8179
 Red. masses --      1.2653                 1.3218                 1.1424
 Frc consts  --      1.2873                 1.3915                 1.2354
 IR Inten    --      9.8265                 3.3850                 2.1353

                     49                     50                     51
                      A                      A                      A
 Frequencies --   1371.6540              1386.7929              1392.6532
 Red. masses --      1.2473                 1.3036                 1.4307
 Frc consts  --      1.3826                 1.4771                 1.6348
 IR Inten    --      6.3351                 7.2652                10.3513

                     52                     53                     54
                      A                      A                      A
 Frequencies --   1409.3179              1423.8614              1429.0956
 Red. masses --      1.3946                 1.3075                 1.1684
 Frc consts  --      1.6320                 1.5618                 1.4059
 IR Inten    --      2.2626                15.8338                 0.8806

                     55                     56                     57
                      A                      A                      A
 Frequencies --   1430.3152              1440.7128              1443.8936
 Red. masses --      1.4218                 1.2315                 1.2699
 Frc consts  --      1.7138                 1.5060                 1.5598
 IR Inten    --      1.2611                 4.7023                 2.6809

                     58                     59                     60
                      A                      A                      A
 Frequencies --   1444.3171              1454.8402              1508.2982
 Red. masses --      1.2423                 1.1636                 1.0812
 Frc consts  --      1.5268                 1.4510                 1.4492
 IR Inten    --     14.2788                 1.2428                 3.3468

                     61                     62                     63
                      A                      A                      A
 Frequencies --   1512.5441              1518.4627              1522.0356
 Red. masses --      1.0536                 1.0709                 1.0552
 Frc consts  --      1.4202                 1.4548                 1.4402
 IR Inten    --      1.2912                 2.8142                 0.5835

                     64                     65                     66
                      A                      A                      A
 Frequencies --   1527.0317              1528.6319              1529.4582
 Red. masses --      1.0565                 1.0445                 1.0445
 Frc consts  --      1.4516                 1.4380                 1.4395
 IR Inten    --      1.2305                 5.1690                 1.4020

                     67                     68                     69
                      A                      A                      A
 Frequencies --   1530.8720              1535.4534              1540.3331
 Red. masses --      1.0438                 1.0643                 1.0674
 Frc consts  --      1.4413                 1.4784                 1.4921
 IR Inten    --      4.5810                 4.5298                 7.7139

                     70                     71                     72
                      A                      A                      A
 Frequencies --   1541.4345              1548.3748              3027.0867
 Red. masses --      1.0628                 1.0771                 1.0683
 Frc consts  --      1.4878                 1.5215                 5.7675
 IR Inten    --      1.7252                 4.3928                12.5584

                     73                     74                     75
                      A                      A                      A
 Frequencies --   3035.4073              3039.2026              3041.4897
 Red. masses --      1.0852                 1.0610                 1.0364
 Frc consts  --      5.8912                 5.7742                 5.6490
 IR Inten    --     34.9414                26.5551                34.0224

                     76                     77                     78
                      A                      A                      A
 Frequencies --   3046.1566              3051.1080              3055.7594
 Red. masses --      1.0384                 1.0709                 1.0405
 Frc consts  --      5.6772                 5.8736                 5.7244
 IR Inten    --     13.4237                 8.7806                15.7430

                     79                     80                     81
                      A                      A                      A
 Frequencies --   3058.0398              3060.3888              3063.1821
 Red. masses --      1.0676                 1.0686                 1.0549
 Frc consts  --      5.8820                 5.8970                 5.8316
 IR Inten    --     18.4999                60.3967                 1.7473

                     82                     83                     84
                      A                      A                      A
 Frequencies --   3071.6583              3082.3616              3094.3610
 Red. masses --      1.0935                 1.0887                 1.0982
 Frc consts  --      6.0785                 6.0940                 6.1956
 IR Inten    --     41.0196                21.5770                 3.3522

                     85                     86                     87
                      A                      A                      A
 Frequencies --   3109.9295              3112.2842              3113.6574
 Red. masses --      1.0993                 1.1022                 1.1008
 Frc consts  --      6.2645                 6.2902                 6.2881
 IR Inten    --     67.7234                23.2210                63.2284

                     88                     89                     90
                      A                      A                      A
 Frequencies --   3116.6036              3117.9094              3122.0452
 Red. masses --      1.1013                 1.1009                 1.0977
 Frc consts  --      6.3027                 6.3058                 6.3041
 IR Inten    --     58.2041                92.1768                23.5555

                     91                     92                     93
                      A                      A                      A
 Frequencies --   3126.9848              3146.6246              3153.0123
 Red. masses --      1.0979                 1.1022                 1.0994
 Frc consts  --      6.3250                 6.4296                 6.4393
 IR Inten    --     22.1184                10.8818                45.9836

 - Thermochemistry -
 -------------------
 Temperature   298.150 Kelvin.  Pressure   1.00000 Atm.
 Atom     1 has atomic number  6 and mass  12.00000

 Molecular mass:   158.16707 amu.
 Principal axes and moments of inertia in atomic units:
                           1         2         3
     Eigenvalues --  1599.910702401.968923298.47182
           X            0.99979   0.01885   0.00745
           Y           -0.01873   0.99969  -0.01629
           Z           -0.00776   0.01615   0.99984
 This molecule is an asymmetric top.
 Rotational symmetry number  1.
 Warning -- assumption of classical behavior for rotation
           may cause significant error
 Rotational temperatures (Kelvin)      0.05414     0.03606     0.02626
 Rotational constants (GHZ):           1.12803     0.75136     0.54714
 Zero-point vibrational energy     813963.7 (Joules/Mol)
                                  194.54199 (Kcal/Mol)
 Warning -- explicit consideration of  20 degrees of freedom as
           vibrations may cause significant error
 Vibrational temperatures:     58.44    94.75   129.53   160.26   183.28
          (Kelvin)            247.56   279.44   298.45   312.36   360.81
                              375.30   387.84   425.98   431.22   501.24
                              524.09   557.86   618.02   698.19   768.53
                              949.61  1021.80  1085.17  1117.00  1191.20
                             1268.22  1283.59  1295.64  1321.73  1336.62
                             1365.63  1402.17  1473.40  1508.95  1528.93
                             1545.80  1571.41  1662.53  1668.28  1681.56
                             1704.31  1732.84  1742.79  1804.76  1864.50
                             1890.60  1923.20  1949.28  1973.50  1995.29
                             2003.72  2027.69  2048.62  2056.15  2057.90
                             2072.86  2077.44  2078.05  2093.19  2170.10
                             2176.21  2184.73  2189.87  2197.06  2199.36
                             2200.55  2202.58  2209.17  2216.20  2217.78
                             2227.77  4355.30  4367.27  4372.73  4376.03
                             4382.74  4389.86  4396.56  4399.84  4403.22
                             4407.24  4419.43  4434.83  4452.10  4474.49
                             4477.88  4479.86  4484.10  4485.98  4491.93
                             4499.03  4527.29  4536.48

 Zero-point correction=                           0.310022 (Hartree/Particle)
 Thermal correction to Energy=                    0.324207
 Thermal correction to Enthalpy=                  0.325151
 Thermal correction to Gibbs Free Energy=         0.269753
 Sum of electronic and zero-point Energies=           -469.271451
 Sum of electronic and thermal Energies=              -469.257266
 Sum of electronic and thermal Enthalpies=            -469.256322
 Sum of electronic and thermal Free Energies=         -469.311721

                     E (Thermal)             CV                S
                      KCal/Mol        Cal/Mol-Kelvin    Cal/Mol-Kelvin
 Total                  203.443             52.750            116.596
 Electronic               0.000              0.000              0.000
 Translational            0.889              2.981             41.085
 Rotational               0.889              2.981             30.917
 Vibrational            201.665             46.789             44.594
 Vibration     1          0.594              1.981              5.229
 Vibration     2          0.597              1.971              4.274
 Vibration     3          0.602              1.956              3.660
 Vibration     4          0.607              1.940              3.245
 Vibration     5          0.611              1.926              2.985
 Vibration     6          0.626              1.877              2.413
 Vibration     7          0.635              1.848              2.187
 Vibration     8          0.641              1.829              2.066
 Vibration     9          0.646              1.815              1.983
 Vibration    10          0.663              1.761              1.725
 Vibration    11          0.669              1.744              1.656
 Vibration    12          0.674              1.729              1.599
 Vibration    13          0.690              1.681              1.439
 Vibration    14          0.692              1.674              1.419
 Vibration    15          0.726              1.579              1.174
 Vibration    16          0.738              1.546              1.104
 Vibration    17          0.756              1.496              1.009
 Vibration    18          0.791              1.406              0.860
 Vibration    19          0.841              1.283              0.696
 Vibration    20          0.889              1.174              0.578

 Optimization completed.
    -- Stationary point found.
 Normal termination of Gaussian 16 at Tue Dec  8 20:25:24 2020.

 ----------------------------------------------------------------------
 # B3LYP/6-311++G(d,p) empiricaldispersion=gd3bj scf=xqc pop=npa geom=c
 heck
 ----------------------------------------------------------------------

 --------------------------------------
 CID_58536860_JID_1683_Energie_neutraal
 --------------------------------------
 Structure from the checkpoint file:  "JID_1683.chk"
 Charge =  0 Multiplicity = 1

 SCF Done:  E(RB3LYP) =  -469.716739690     A.U. after   13 cycles
 Normal termination of Gaussian 16 at Tue Dec  8 20:30:48 2020.

 ----------------------------------------------------------------------
 # B3LYP/6-311++G(d,p) empiricaldispersion=gd3bj scf=xqc pop=npa geom=c
 heck
 ----------------------------------------------------------------------

 ------------------------------------
 CID_58536860_JID_1683_Energie_kation
 ------------------------------------
 Structure from the checkpoint file:  "JID_1683.chk"
 Charge =  1 Multiplicity = 2

 SCF Done:  E(UB3LYP) =  -469.393764972     A.U. after   20 cycles
 Normal termination of Gaussian 16 at Tue Dec  8 20:39:56 2020.
 Gaussian 16:  ES64L-G16RevA.03 25-Dec-2016

 ----------------------------------------------------------------------
 # B3LYP/6-311++G(d,p) empiricaldispersion=gd3bj scf=xqc pop=npa geom=c
 heck
 ----------------------------------------------------------------------

 -----------------------------------
 CID_58536860_JID_1683_Energie_anion
 -----------------------------------
 Structure from the checkpoint file:  "JID_1683.chk"
 Charge = -1 Multiplicity = 2

                         Standard orientation:
 ---------------------------------------------------------------------
 Center     Atomic      Atomic             Coordinates (Angstroms)
 Number     Number       Type             X           Y           Z
 ---------------------------------------------------------------------
      1          6           0       -3.579274   -0.664283   -0.493849
      2          6           0       -2.666625   -0.246702    0.664246
      3          6           0       -1.254164   -0.854655    0.616311
      4          6           0       -0.439683   -0.464400   -0.628455
      5          6           0       -0.156267    1.049420   -0.748814
      6          6           0        0.242430    1.831781    0.509135
      7          6           0        0.538339    3.300310    0.192294
      8          8           0        0.669880   -1.344813   -0.860879
      9          6           0        1.916678   -1.343645   -0.163018
     10          6           0        2.876136   -0.249939   -0.649108
     11          6           0        1.827921   -1.412265    1.364313
     12          1           0       -3.227026   -0.277558   -1.456382
     13          1           0       -4.597465   -0.288193   -0.344399
     14          1           0       -3.634267   -1.756583   -0.576770
     15          1           0       -2.602633    0.848738    0.699684
     16          1           0       -3.132946   -0.549799    1.610578
     17          1           0       -0.720129   -0.572704    1.528521
     18          1           0       -1.331396   -1.949165    0.622187
     19          1           0       -1.058372   -0.711672   -1.497950
     20          1           0        0.597841    1.186453   -1.532661
     21          1           0       -1.073714    1.512087   -1.139841
     22          1           0       -0.564406    1.777133    1.250093
     23          1           0        1.120054    1.386270    0.987187
     24          1           0       -0.329580    3.786977   -0.269218
     25          1           0        0.795887    3.862428    1.096841
     26          1           0        1.377075    3.390163   -0.508881
     27          1           0        2.344601   -2.299276   -0.492813
     28          1           0        2.606051    0.744209   -0.284472
     29          1           0        3.892662   -0.465894   -0.299090
     30          1           0        2.887532   -0.226255   -1.743096
     31          1           0        1.150629   -2.212246    1.676708
     32          1           0        2.822173   -1.626341    1.773582
     33          1           0        1.485462   -0.473994    1.808879
 ---------------------------------------------------------------------

 SCF Done:  E(UB3LYP) =  -469.700014435     A.U. after   27 cycles

 The electronic state is 2-A.
 Alpha  occ. eigenvalues --  -19.01000 -10.12126 -10.11626 -10.06615 -10.06478
 Alpha  occ. eigenvalues --  -10.06417 -10.06043 -10.05912 -10.05909 -10.05832
 Alpha  occ. eigenvalues --  -10.05715  -0.91825  -0.71301  -0.68098  -0.67558
 Alpha  occ. eigenvalues --   -0.62306  -0.59251  -0.57866  -0.54013  -0.49693
 Alpha  occ. eigenvalues --   -0.48562  -0.43756  -0.38933  -0.38099  -0.36291
 Alpha  occ. eigenvalues --   -0.34884  -0.34571  -0.33375  -0.31855  -0.31461
 Alpha  occ. eigenvalues --   -0.30792  -0.29761  -0.29155  -0.27986  -0.27176
 Alpha  occ. eigenvalues --   -0.26863  -0.25672  -0.24752  -0.24380  -0.24148
 Alpha  occ. eigenvalues --   -0.22921  -0.21964  -0.21689  -0.18131  -0.15093
 Alpha  occ. eigenvalues --    0.04534
 Alpha virt. eigenvalues --    0.06393   0.06896   0.07585   0.08969   0.09022
 Alpha virt. eigenvalues --    0.09336   0.09759   0.10151   0.10835   0.11552
 Alpha virt. eigenvalues --    0.12207   0.12432   0.12757   0.13052   0.13451

  Beta  occ. eigenvalues --  -19.01000 -10.12117 -10.11622 -10.06593 -10.06461
  Beta  occ. eigenvalues --  -10.06404 -10.06016 -10.05898 -10.05879 -10.05806
  Beta  occ. eigenvalues --  -10.05690  -0.91819  -0.71276  -0.68068  -0.67526
  Beta  occ. eigenvalues --   -0.62267  -0.59201  -0.57817  -0.53962  -0.49625
  Beta  occ. eigenvalues --   -0.48498  -0.43719  -0.38897  -0.38069  -0.36265
  Beta  occ. eigenvalues --   -0.34847  -0.34544  -0.33349  -0.31815  -0.31422
  Beta  occ. eigenvalues --   -0.30767  -0.29725  -0.29125  -0.27951  -0.27132
  Beta  occ. eigenvalues --   -0.26838  -0.25641  -0.24709  -0.24347  -0.24106
  Beta  occ. eigenvalues --   -0.22892  -0.21935  -0.21663  -0.18109  -0.15081
  Beta virt. eigenvalues --    0.06634   0.07316   0.07634   0.08049   0.09465
  Beta virt. eigenvalues --    0.09582   0.09750   0.10114   0.10527   0.11330
  Beta virt. eigenvalues --    0.12061   0.12517   0.12783   0.13092   0.13439

 Mulliken charges and spin densities:
               1          2
     1  C    0.663114  -1.267968
     2  C    0.063125  -0.371443
     3  C   -0.304285   0.215806
     4  C   -0.099113  -0.177366
     5  C    0.777150  -1.119112
     6  C   -1.842589   1.852590
     7  C    1.436634  -2.095939
     8  O   -0.068310  -0.007269
     9  C   -0.870983   0.958499
    10  C    0.724254  -1.342180
    11  C    0.799137  -1.240226
    12  H   -0.136471   0.252976
    13  H   -0.323008   0.468790
    14  H    0.001873   0.132710
    15  H    0.069738   0.060278
    16  H   -0.507089   0.667041
    17  H    0.264468  -0.130979
    18  H   -0.146495   0.327129
    19  H    0.152150   0.075557
    20  H    0.212999  -0.056643
    21  H    0.151606   0.028817
    22  H   -0.200294   0.364503
    23  H    0.325336  -0.211990
    24  H   -0.215844   0.345538
    25  H   -0.510106   0.656410
    26  H   -0.112019   0.240234
    27  H   -0.171157   0.352253
    28  H   -0.028587   0.174337
    29  H   -0.175810   0.307573
    30  H   -0.067198   0.215873
    31  H   -0.121487   0.273540
    32  H   -0.383032   0.544606
    33  H   -0.357708   0.506056
 Sum of Mulliken charges =  -1.00000   1.00000

 Dipole moment (field-independent basis, Debye):
    X=              0.3316    Y=             -1.0478    Z=             -2.5577  Tot=              2.7838
 Quadrupole moment (field-independent basis, Debye-Ang):
   XX=           -143.9462   YY=           -127.8905   ZZ=           -109.0411
   XY=              1.0070   XZ=             -0.1104   YZ=             -0.6116

 Summary of Natural Population Analysis:

                                       Natural Population
                Natural  -----------------------------------------------
    Atom  No    Charge         Core      Valence    Rydberg      Total
 -----------------------------------------------------------------------
      C    1   -0.28722      0.99967     2.28178    0.00577     3.28722
      C    2   -0.19091      0.99964     2.18339    0.00787     3.19091
      C    3   -0.20442      0.99960     2.19536    0.00946     3.20442
      C    4    0.07285      0.99951     1.91349    0.01416     2.92715
      C    5   -0.20624      0.99960     2.19852    0.00812     3.20624
      C    6   -0.19781      0.99963     2.19059    0.00759     3.19781
      C    7   -0.28207      0.99967     2.27717    0.00523     3.28207
      O    8   -0.31274      0.99988     3.30327    0.00959     4.31274
      C    9    0.06765      0.99955     1.91809    0.01471     2.93235
      C   10   -0.29789      0.99964     2.29269    0.00556     3.29789
      C   11   -0.30078      0.99964     2.29560    0.00554     3.30078
      H   12    0.09430      0.00000     0.40466    0.00104     0.40570
      H   13    0.10006      0.00000     0.39887    0.00107     0.39994
      H   14    0.09552      0.00000     0.40351    0.00098     0.40448
      H   15    0.09461      0.00000     0.40382    0.00157     0.40539
      H   16    0.09719      0.00000     0.40151    0.00130     0.40281
      H   17    0.09914      0.00000     0.39907    0.00179     0.40086
      H   18    0.10065      0.00000     0.39806    0.00129     0.39935
      H   19    0.08892      0.00000     0.40926    0.00182     0.41108
      H   20    0.10205      0.00000     0.39676    0.00118     0.39795
      H   21    0.10006      0.00000     0.39881    0.00114     0.39994
      H   22    0.09618      0.00000     0.40216    0.00166     0.40382
      H   23    0.09341      0.00000     0.40463    0.00196     0.40659
      H   24    0.09608      0.00000     0.40283    0.00109     0.40392
      H   25    0.09981      0.00000     0.39910    0.00109     0.40019
      H   26    0.09478      0.00000     0.40406    0.00116     0.40522
      H   27    0.08544      0.00000     0.41313    0.00143     0.41456
      H   28    0.09729      0.00000     0.40136    0.00135     0.40271
      H   29    0.10027      0.00000     0.39858    0.00115     0.39973
      H   30    0.10115      0.00000     0.39777    0.00108     0.39885
      H   31    0.10325      0.00000     0.39559    0.00116     0.39675
      H   32    0.10273      0.00000     0.39603    0.00124     0.39727
      H   33    0.09667      0.00000     0.40182    0.00151     0.40333
 =======================================================================
   * Total *   -0.00000     10.99602    33.88134    0.12265    45.00000

 Normal termination of Gaussian 16 at Tue Dec  8 20:53:00 2020.
