 Gaussian 16, Revision A.03,

 -----------------------------------------------------------
 # opt freq B3LYP/6-31G(d) empiricaldispersion=gd3bj scf=xqc
 -----------------------------------------------------------

 ------------------------------
 CID_73739902_JID_1174_neutraal
 ------------------------------
 Symbolic Z-matrix:
 Charge =  0 Multiplicity = 1

 SCF Done:  E(RB3LYP) =  -554.971041748     A.U. after   14 cycles
 SCF Done:  E(RB3LYP) =  -554.974846369     A.U. after   13 cycles
 SCF Done:  E(RB3LYP) =  -554.975316873     A.U. after   13 cycles
 SCF Done:  E(RB3LYP) =  -554.976215880     A.U. after   13 cycles
 SCF Done:  E(RB3LYP) =  -554.976427196     A.U. after   12 cycles
 SCF Done:  E(RB3LYP) =  -554.976599334     A.U. after   11 cycles
 SCF Done:  E(RB3LYP) =  -554.976653590     A.U. after   11 cycles
 SCF Done:  E(RB3LYP) =  -554.976694163     A.U. after   11 cycles
 SCF Done:  E(RB3LYP) =  -554.976706392     A.U. after   11 cycles
 SCF Done:  E(RB3LYP) =  -554.976715116     A.U. after   10 cycles
 SCF Done:  E(RB3LYP) =  -554.980020159     A.U. after    9 cycles
 SCF Done:  E(RB3LYP) =  -554.980022659     A.U. after    8 cycles
 SCF Done:  E(RB3LYP) =  -554.980023307     A.U. after    8 cycles
 SCF Done:  E(RB3LYP) =  -554.980023161     A.U. after    7 cycles
 SCF Done:  E(RB3LYP) =  -554.980026962     A.U. after   10 cycles
 SCF Done:  E(RB3LYP) =  -554.980027166     A.U. after    8 cycles
 Optimization completed.
    -- Stationary point found.
 Normal termination of Gaussian 16 at Tue Dec  8 19:27:09 2020.

 --------------------------------------------------------------------
 #N Geom=AllCheck Guess=TCheck SCRF=Check GenChk RB3LYP/6-31G(d) Freq
 --------------------------------------------------------------------

 Structure from the checkpoint file:  "JID_1174.chk"
 ------------------------------
 CID_73739902_JID_1174_neutraal
 ------------------------------
 Charge =  0 Multiplicity = 1

 SCF Done:  E(RB3LYP) =  -554.980027166     A.U. after    1 cycles

  Exact polarizability: 115.233   7.053  80.218  -2.355  -1.147  74.927
 Approx polarizability: 153.497  15.190 112.107  -2.769  -1.744 112.456

                      1                      2                      3
                      A                      A                      A
 Frequencies --     37.4662                44.0713                48.6570
 Red. masses --      7.5002                 5.2180                 3.6212
 Frc consts  --      0.0062                 0.0060                 0.0051
 IR Inten    --      1.4815                 0.2989                 0.4523

                      4                      5                      6
                      A                      A                      A
 Frequencies --    101.7586               156.4755               209.2618
 Red. masses --      3.8833                 3.5513                 1.0735
 Frc consts  --      0.0237                 0.0512                 0.0277
 IR Inten    --      0.1060                 0.7378                 0.0772

                      7                      8                      9
                      A                      A                      A
 Frequencies --    247.1975               257.7937               275.2312
 Red. masses --      1.1742                 2.1737                 3.1405
 Frc consts  --      0.0423                 0.0851                 0.1402
 IR Inten    --      0.7039                 0.8732                 3.8458

                     10                     11                     12
                      A                      A                      A
 Frequencies --    289.4619               290.3394               329.2977
 Red. masses --      1.9096                 1.7703                 2.7921
 Frc consts  --      0.0943                 0.0879                 0.1784
 IR Inten    --      0.4149                 3.0078                 4.5372

                     13                     14                     15
                      A                      A                      A
 Frequencies --    379.8265               394.3047               426.4350
 Red. masses --      2.3369                 2.4626                 2.5574
 Frc consts  --      0.1986                 0.2256                 0.2740
 IR Inten    --      0.0007                 0.8900                 1.3668

                     16                     17                     18
                      A                      A                      A
 Frequencies --    507.8780               518.7886               592.6777
 Red. masses --      1.9941                 4.4486                 3.7001
 Frc consts  --      0.3031                 0.7054                 0.7658
 IR Inten    --      9.8954                12.0932                26.9683

                     19                     20                     21
                      A                      A                      A
 Frequencies --    616.5828               695.3260               711.9663
 Red. masses --      4.2759                 1.5351                 4.0873
 Frc consts  --      0.9578                 0.4373                 1.2207
 IR Inten    --     34.6282                97.5298                15.4652

                     22                     23                     24
                      A                      A                      A
 Frequencies --    802.3637               856.3181               869.9453
 Red. masses --      4.8158                 4.3602                 3.8135
 Frc consts  --      1.8267                 1.8838                 1.7004
 IR Inten    --      6.7050                13.0303                57.7778

                     25                     26                     27
                      A                      A                      A
 Frequencies --    891.8287               937.6548               951.2745
 Red. masses --      1.3631                 2.3794                 1.6867
 Frc consts  --      0.6388                 1.2325                 0.8993
 IR Inten    --      6.0199                48.0524                 0.3588

                     28                     29                     30
                      A                      A                      A
 Frequencies --    957.9933               980.3922              1047.2479
 Red. masses --      1.7039                 1.1987                 2.5549
 Frc consts  --      0.9213                 0.6788                 1.6509
 IR Inten    --     11.1631                 0.2812                21.7022

                     31                     32                     33
                      A                      A                      A
 Frequencies --   1068.6490              1070.8956              1144.2536
 Red. masses --      1.3987                 1.5006                 5.2767
 Frc consts  --      0.9411                 1.0139                 4.0706
 IR Inten    --      0.1253                33.0619               126.8506

                     34                     35                     36
                      A                      A                      A
 Frequencies --   1202.9659              1244.6685              1255.9992
 Red. masses --      2.1280                 2.6761                 2.4595
 Frc consts  --      1.8144                 2.4426                 2.2860
 IR Inten    --    197.0295                 5.6571                20.9375

                     37                     38                     39
                      A                      A                      A
 Frequencies --   1290.2762              1304.8483              1372.0402
 Red. masses --      2.6564                 1.1413                 1.2734
 Frc consts  --      2.6056                 1.1449                 1.4124
 IR Inten    --      3.2734                 6.2019                23.1771

                     40                     41                     42
                      A                      A                      A
 Frequencies --   1392.1794              1408.3999              1422.5215
 Red. masses --      1.5023                 2.0928                 1.2097
 Frc consts  --      1.7155                 2.4459                 1.4423
 IR Inten    --     18.3957                52.1714                 5.0826

                     43                     44                     45
                      A                      A                      A
 Frequencies --   1426.1416              1457.4108              1473.9081
 Red. masses --      1.2243                 1.2183                 1.0901
 Frc consts  --      1.4671                 1.5247                 1.3953
 IR Inten    --      4.8210                 4.0116                 3.0423

                     46                     47                     48
                      A                      A                      A
 Frequencies --   1508.0104              1519.6518              1523.5483
 Red. masses --      1.0474                 1.0470                 1.0459
 Frc consts  --      1.4034                 1.4246                 1.4303
 IR Inten    --      0.3817                 0.5662                 0.4374

                     49                     50                     51
                      A                      A                      A
 Frequencies --   1530.4225              1536.4298              1553.4827
 Red. masses --      1.0553                 1.0501                 1.0597
 Frc consts  --      1.4563                 1.4605                 1.5068
 IR Inten    --      5.3986                 5.2942                14.2024

                     52                     53                     54
                      A                      A                      A
 Frequencies --   1727.5275              1851.8011              3042.6699
 Red. masses --      9.1930                10.0830                 1.0354
 Frc consts  --     16.1643                20.3717                 5.6479
 IR Inten    --      7.4663               305.2346                21.5087

                     55                     56                     57
                      A                      A                      A
 Frequencies --   3050.1096              3054.9358              3079.9000
 Red. masses --      1.0391                 1.0400                 1.0574
 Frc consts  --      5.6958                 5.7183                 5.9099
 IR Inten    --     29.7687                32.0474                27.0421

                     58                     59                     60
                      A                      A                      A
 Frequencies --   3107.4428              3111.2895              3112.4988
 Red. masses --      1.1030                 1.1021                 1.1018
 Frc consts  --      6.2750                 6.2854                 6.2887
 IR Inten    --      4.1853                31.4741                33.3797

                     61                     62                     63
                      A                      A                      A
 Frequencies --   3121.6799              3131.3554              3151.6579
 Red. masses --      1.1017                 1.1069                 1.0881
 Frc consts  --      6.3253                 6.3948                 6.3676
 IR Inten    --     49.5125                 5.1029                15.0053

                     64                     65                     66
                      A                      A                      A
 Frequencies --   3165.7606              3174.1032              3683.8588
 Red. masses --      1.0981                 1.0973                 1.0640
 Frc consts  --      6.4842                 6.5138                 8.5075
 IR Inten    --      8.5625                10.4005                50.8704

 - Thermochemistry -
 -------------------
 Temperature   298.150 Kelvin.  Pressure   1.00000 Atm.
 Atom     1 has atomic number  6 and mass  12.00000

 Molecular mass:   159.08954 amu.
 Principal axes and moments of inertia in atomic units:
                           1         2         3
     Eigenvalues --   723.958483298.189033485.99520
           X            0.99997   0.00814  -0.00026
           Y           -0.00814   0.99925  -0.03784
           Z           -0.00005   0.03784   0.99928
 This molecule is an asymmetric top.
 Rotational symmetry number  1.
 Warning -- assumption of classical behavior for rotation
           may cause significant error
 Rotational temperatures (Kelvin)      0.11964     0.02626     0.02485
 Rotational constants (GHZ):           2.49288     0.54719     0.51771
 Zero-point vibrational energy     530538.5 (Joules/Mol)
                                  126.80174 (Kcal/Mol)
 Warning -- explicit consideration of  19 degrees of freedom as
           vibrations may cause significant error
 Vibrational temperatures:     53.91    63.41    70.01   146.41   225.13
          (Kelvin)            301.08   355.66   370.91   396.00   416.47
                              417.73   473.79   546.49   567.32   613.54
                              730.72   746.42   852.73   887.13  1000.42
                             1024.36  1154.42  1232.05  1251.66  1283.14
                             1349.08  1368.67  1378.34  1410.57  1506.76
                             1537.55  1540.78  1646.33  1730.80  1790.80
                             1807.10  1856.42  1877.39  1974.06  2003.04
                             2026.37  2046.69  2051.90  2096.89  2120.62
                             2169.69  2186.44  2192.05  2201.94  2210.58
                             2235.12  2485.53  2664.33  4377.72  4388.43
                             4395.37  4431.29  4470.92  4476.45  4478.19
                             4491.40  4505.32  4534.53  4554.82  4566.83
                             5300.25

 Zero-point correction=                           0.202071 (Hartree/Particle)
 Thermal correction to Energy=                    0.214608
 Thermal correction to Enthalpy=                  0.215552
 Thermal correction to Gibbs Free Energy=         0.162544
 Sum of electronic and zero-point Energies=           -554.777956
 Sum of electronic and thermal Energies=              -554.765419
 Sum of electronic and thermal Enthalpies=            -554.764475
 Sum of electronic and thermal Free Energies=         -554.817484

                     E (Thermal)             CV                S
                      KCal/Mol        Cal/Mol-Kelvin    Cal/Mol-Kelvin
 Total                  134.668             45.509            111.565
 Electronic               0.000              0.000              0.000
 Translational            0.889              2.981             41.102
 Rotational               0.889              2.981             30.499
 Vibrational            132.891             39.548             39.964
 Vibration     1          0.594              1.982              5.389
 Vibration     2          0.595              1.980              5.067
 Vibration     3          0.595              1.978              4.871
 Vibration     4          0.604              1.948              3.420
 Vibration     5          0.620              1.895              2.592
 Vibration     6          0.642              1.827              2.050
 Vibration     7          0.661              1.767              1.750
 Vibration     8          0.667              1.750              1.677
 Vibration     9          0.677              1.719              1.563
 Vibration    10          0.686              1.693              1.477
 Vibration    11          0.686              1.692              1.472
 Vibration    12          0.712              1.617              1.264
 Vibration    13          0.750              1.513              1.040
 Vibration    14          0.761              1.482              0.984
 Vibration    15          0.788              1.413              0.870
 Vibration    16          0.863              1.233              0.639
 Vibration    17          0.874              1.208              0.613
 Vibration    18          0.950              1.047              0.462
 Vibration    19          0.976              0.997              0.422

 Optimization completed.
    -- Stationary point found.
 Normal termination of Gaussian 16 at Tue Dec  8 19:31:56 2020.

 ----------------------------------------------------------------------
 # B3LYP/6-311++G(d,p) empiricaldispersion=gd3bj scf=xqc pop=npa geom=c
 heck
 ----------------------------------------------------------------------

 --------------------------------------
 CID_73739902_JID_1174_Energie_neutraal
 --------------------------------------
 Structure from the checkpoint file:  "JID_1174.chk"
 Charge =  0 Multiplicity = 1

 SCF Done:  E(RB3LYP) =  -555.152897725     A.U. after   14 cycles
 Normal termination of Gaussian 16 at Tue Dec  8 19:34:04 2020.

 ----------------------------------------------------------------------
 # B3LYP/6-311++G(d,p) empiricaldispersion=gd3bj scf=xqc pop=npa geom=c
 heck
 ----------------------------------------------------------------------

 ------------------------------------
 CID_73739902_JID_1174_Energie_kation
 ------------------------------------
 Structure from the checkpoint file:  "JID_1174.chk"
 Charge =  1 Multiplicity = 2

 SCF Done:  E(UB3LYP) =  -554.815268103     A.U. after   21 cycles
 Normal termination of Gaussian 16 at Tue Dec  8 19:38:30 2020.
 Gaussian 16:  ES64L-G16RevA.03 25-Dec-2016

 ----------------------------------------------------------------------
 # B3LYP/6-311++G(d,p) empiricaldispersion=gd3bj scf=xqc pop=npa geom=c
 heck
 ----------------------------------------------------------------------

 -----------------------------------
 CID_73739902_JID_1174_Energie_anion
 -----------------------------------
 Structure from the checkpoint file:  "JID_1174.chk"
 Charge = -1 Multiplicity = 2

                         Standard orientation:
 ---------------------------------------------------------------------
 Center     Atomic      Atomic             Coordinates (Angstroms)
 Number     Number       Type             X           Y           Z
 ---------------------------------------------------------------------
      1          6           0        1.529480    1.321051    0.802133
      2          6           0        2.105993    0.122255    0.018283
      3          6           0        3.423487    0.543435   -0.657508
      4          6           0        2.382549   -1.059189    0.971975
      5          6           0        1.132504   -0.292129   -1.074641
      6          7           0       -0.070466   -0.716504   -1.008032
      7          8           0       -0.530555   -0.847880    0.324260
      8          6           0       -1.923905   -1.060349    0.291742
      9          6           0       -2.755135    0.187747    0.030899
     10          8           0       -3.942168    0.153284   -0.201807
     11          8           0       -2.043499    1.330148    0.122500
     12          1           0        2.239370    1.625500    1.580490
     13          1           0        0.576822    1.067564    1.268529
     14          1           0        1.365614    2.177157    0.138444
     15          1           0        4.152105    0.861448    0.095760
     16          1           0        3.863917   -0.286237   -1.223310
     17          1           0        3.266169    1.380465   -1.348112
     18          1           0        1.471609   -1.380216    1.479496
     19          1           0        2.793117   -1.915685    0.425408
     20          1           0        3.117897   -0.756423    1.726884
     21          1           0        1.474834   -0.221216   -2.107835
     22          1           0       -2.195258   -1.805147   -0.462859
     23          1           0       -2.196427   -1.444677    1.280287
     24          1           0       -2.676575    2.051653   -0.053879
 ---------------------------------------------------------------------

 SCF Done:  E(UB3LYP) =  -555.139262808     A.U. after   31 cycles

 The electronic state is 2-A.
 Alpha  occ. eigenvalues --  -19.07086 -19.06940 -19.01914 -14.26307 -10.20913
 Alpha  occ. eigenvalues --  -10.13970 -10.10767 -10.09393 -10.05933 -10.05464
 Alpha  occ. eigenvalues --  -10.05047  -1.01631  -0.99123  -0.92550  -0.78830
 Alpha  occ. eigenvalues --   -0.71057  -0.63418  -0.58652  -0.58197  -0.53233
 Alpha  occ. eigenvalues --   -0.50884  -0.46198  -0.41153  -0.39803  -0.39345
 Alpha  occ. eigenvalues --   -0.37667  -0.35677  -0.34088  -0.33447  -0.32211
 Alpha  occ. eigenvalues --   -0.31216  -0.30020  -0.29362  -0.27797  -0.27045
 Alpha  occ. eigenvalues --   -0.26321  -0.26086  -0.23555  -0.22899  -0.22600
 Alpha  occ. eigenvalues --   -0.19716  -0.17569  -0.15703   0.04557
 Alpha virt. eigenvalues --    0.06722   0.07310   0.08156   0.08445   0.08916
 Alpha virt. eigenvalues --    0.10022   0.10250   0.10861   0.11089   0.11335
 Alpha virt. eigenvalues --    0.13007   0.13255   0.13787   0.14563   0.14947

  Beta  occ. eigenvalues --  -19.07029 -19.06932 -19.01891 -14.26291 -10.20889
  Beta  occ. eigenvalues --  -10.13944 -10.10749 -10.09390 -10.05895 -10.05430
  Beta  occ. eigenvalues --  -10.05024  -1.01552  -0.99098  -0.92479  -0.78798
  Beta  occ. eigenvalues --   -0.71029  -0.63326  -0.58583  -0.58143  -0.53147
  Beta  occ. eigenvalues --   -0.50796  -0.46148  -0.41091  -0.39760  -0.39292
  Beta  occ. eigenvalues --   -0.37615  -0.35597  -0.34051  -0.33412  -0.32161
  Beta  occ. eigenvalues --   -0.31154  -0.29975  -0.29315  -0.27757  -0.27003
  Beta  occ. eigenvalues --   -0.26281  -0.26050  -0.23517  -0.22831  -0.22552
  Beta  occ. eigenvalues --   -0.19665  -0.17526  -0.15654
  Beta virt. eigenvalues --    0.06952   0.07790   0.07968   0.08842   0.09044
  Beta virt. eigenvalues --    0.09399   0.10296   0.10778   0.11230   0.11551
  Beta virt. eigenvalues --    0.11705   0.13318   0.13560   0.14260   0.14867

 Mulliken charges and spin densities:
               1          2
     1  C    0.759319  -1.343908
     2  C   -2.188653   2.665494
     3  C    0.762736  -1.324102
     4  C    0.871174  -1.444707
     5  C    0.924867  -1.201307
     6  N   -0.343631   0.101687
     7  O    0.164358  -0.018151
     8  C    0.766572  -1.048723
     9  C   -0.080618   0.188953
    10  O   -0.317660   0.023260
    11  O   -0.157773  -0.038503
    12  H    0.002380   0.128166
    13  H   -0.054878   0.233306
    14  H   -0.215170   0.362643
    15  H   -0.175594   0.316993
    16  H   -0.304143   0.447976
    17  H   -0.254426   0.396326
    18  H   -0.059986   0.220793
    19  H   -0.237282   0.385565
    20  H   -0.122948   0.260249
    21  H   -0.213904   0.458885
    22  H    0.137105   0.066016
    23  H   -0.310450   0.509028
    24  H   -0.351395   0.654064
 Sum of Mulliken charges =  -1.00000   1.00000

 Dipole moment (field-independent basis, Debye):
    X=             -1.0549    Y=             -2.0464    Z=              0.1531  Tot=              2.3074
 Quadrupole moment (field-independent basis, Debye-Ang):
   XX=           -138.4637   YY=           -103.5757   ZZ=            -97.5593
   XY=              6.3437   XZ=              2.3925   YZ=              1.2757

 Summary of Natural Population Analysis:

                                       Natural Population
                Natural  -----------------------------------------------
    Atom  No    Charge         Core      Valence    Rydberg      Total
 -----------------------------------------------------------------------
      C    1   -0.28145      0.99962     2.27437    0.00746     3.28145
      C    2   -0.07830      0.99958     2.06630    0.01242     3.07830
      C    3   -0.28190      0.99964     2.27448    0.00778     3.28190
      C    4   -0.28232      0.99962     2.27529    0.00741     3.28232
      C    5    0.05986      0.99959     1.92262    0.01793     2.94014
      N    6   -0.07917      0.99965     2.56575    0.01378     3.57917
      O    7   -0.22549      0.99989     3.21315    0.01246     4.22549
      C    8   -0.05551      0.99954     2.04159    0.01437     3.05551
      C    9    0.39719      0.99974     1.57827    0.02481     2.60281
      O   10   -0.31041      0.99987     3.30414    0.00640     4.31041
      O   11   -0.33438      0.99988     3.32653    0.00798     4.33438
      H   12    0.09626      0.00000     0.40265    0.00109     0.40374
      H   13    0.11291      0.00000     0.38491    0.00218     0.38709
      H   14    0.10098      0.00000     0.39760    0.00142     0.39902
      H   15    0.10140      0.00000     0.39742    0.00117     0.39860
      H   16    0.10097      0.00000     0.39750    0.00152     0.39903
      H   17    0.10065      0.00000     0.39802    0.00133     0.39935
      H   18    0.10987      0.00000     0.38814    0.00199     0.39013
      H   19    0.09943      0.00000     0.39932    0.00125     0.40057
      H   20    0.09830      0.00000     0.40061    0.00109     0.40170
      H   21    0.09711      0.00000     0.40147    0.00141     0.40289
      H   22    0.10189      0.00000     0.39655    0.00156     0.39811
      H   23    0.10758      0.00000     0.39088    0.00154     0.39242
      H   24    0.24452      0.00000     0.24165    0.01383     0.25548
 =======================================================================
   * Total *    0.00000     10.99661    31.83920    0.16419    43.00000

 Normal termination of Gaussian 16 at Tue Dec  8 19:45:06 2020.
