 Gaussian 16, Revision A.03,

 -----------------------------------------------------------
 # opt freq B3LYP/6-31G(d) empiricaldispersion=gd3bj scf=xqc
 -----------------------------------------------------------

 -------------------------------
 CID_115796188_JID_8690_neutraal
 -------------------------------
 Symbolic Z-matrix:
 Charge =  0 Multiplicity = 1

 SCF Done:  E(RB3LYP) =  -877.328111416     A.U. after   15 cycles
 SCF Done:  E(RB3LYP) =  -877.338388603     A.U. after   13 cycles
 SCF Done:  E(RB3LYP) =  -877.339893629     A.U. after   13 cycles
 SCF Done:  E(RB3LYP) =  -877.339181660     A.U. after   13 cycles
 SCF Done:  E(RB3LYP) =  -877.341580011     A.U. after   13 cycles
 SCF Done:  E(RB3LYP) =  -877.342374385     A.U. after   14 cycles
 SCF Done:  E(RB3LYP) =  -877.342736313     A.U. after   14 cycles
 SCF Done:  E(RB3LYP) =  -877.343104524     A.U. after   12 cycles
 SCF Done:  E(RB3LYP) =  -877.343279384     A.U. after   13 cycles
 SCF Done:  E(RB3LYP) =  -877.343362250     A.U. after   12 cycles
 SCF Done:  E(RB3LYP) =  -877.343541595     A.U. after   10 cycles
 SCF Done:  E(RB3LYP) =  -877.343542678     A.U. after    9 cycles
 SCF Done:  E(RB3LYP) =  -877.343542809     A.U. after    8 cycles
 SCF Done:  E(RB3LYP) =  -877.343542896     A.U. after    8 cycles
 SCF Done:  E(RB3LYP) =  -877.343542914     A.U. after    7 cycles
 Optimization completed.
    -- Stationary point found.
 Normal termination of Gaussian 16 at Fri Dec 11 21:36:55 2020.

 --------------------------------------------------------------------
 #N Geom=AllCheck Guess=TCheck SCRF=Check GenChk RB3LYP/6-31G(d) Freq
 --------------------------------------------------------------------

 Structure from the checkpoint file:  "JID_8690.chk"
 -------------------------------
 CID_115796188_JID_8690_neutraal
 -------------------------------
 Charge =  0 Multiplicity = 1

 SCF Done:  E(RB3LYP) =  -877.343542914     A.U. after    1 cycles

  Exact polarizability: 195.921  -8.792 171.497  -0.010   1.233  97.736
 Approx polarizability: 251.508 -19.440 295.873   2.170   9.169 146.242

                      1                      2                      3
                      A                      A                      A
 Frequencies --     19.6498                32.7873                48.1292
 Red. masses --      5.1180                 3.7586                 3.7791
 Frc consts  --      0.0012                 0.0024                 0.0052
 IR Inten    --      2.2432                 0.5319                 0.8413

                      4                      5                      6
                      A                      A                      A
 Frequencies --     71.2990               113.7194               122.8970
 Red. masses --      5.0346                 3.4200                 4.3454
 Frc consts  --      0.0151                 0.0261                 0.0387
 IR Inten    --      1.2117                 0.2889                 2.5272

                      7                      8                      9
                      A                      A                      A
 Frequencies --    137.9832               152.8775               168.2259
 Red. masses --      4.0432                 3.1988                 2.3688
 Frc consts  --      0.0454                 0.0440                 0.0395
 IR Inten    --      7.3438                 9.9245                 0.4403

                     10                     11                     12
                      A                      A                      A
 Frequencies --    168.8033               183.8020               204.0433
 Red. masses --      1.4215                 1.1475                 3.1596
 Frc consts  --      0.0239                 0.0228                 0.0775
 IR Inten    --      0.2044                 0.3768                 0.4364

                     13                     14                     15
                      A                      A                      A
 Frequencies --    229.6492               244.8819               260.4508
 Red. masses --      2.1913                 1.2847                 3.5286
 Frc consts  --      0.0681                 0.0454                 0.1410
 IR Inten    --      1.5653                 0.4184                 0.9821

                     16                     17                     18
                      A                      A                      A
 Frequencies --    298.3953               306.7391               340.3329
 Red. masses --      3.4461                 3.4247                 3.6785
 Frc consts  --      0.1808                 0.1899                 0.2510
 IR Inten    --      7.4427                 0.4125                 3.2763

                     19                     20                     21
                      A                      A                      A
 Frequencies --    348.2988               426.5525               461.6645
 Red. masses --      7.5558                 6.6123                 4.0469
 Frc consts  --      0.5400                 0.7088                 0.5082
 IR Inten    --      2.6997                 1.4631                 3.1268

                     22                     23                     24
                      A                      A                      A
 Frequencies --    478.9544               518.0048               518.2670
 Red. masses --      2.3340                 5.7930                 5.3101
 Frc consts  --      0.3155                 0.9158                 0.8404
 IR Inten    --      2.6579                16.3832                14.4870

                     25                     26                     27
                      A                      A                      A
 Frequencies --    581.9446               611.0047               625.5513
 Red. masses --      7.1238                 3.9890                 6.9751
 Frc consts  --      1.4214                 0.8774                 1.6082
 IR Inten    --     13.9162                14.0303                15.1581

                     28                     29                     30
                      A                      A                      A
 Frequencies --    695.7326               713.8958               727.5132
 Red. masses --      7.5735                 4.7954                 5.7599
 Frc consts  --      2.1599                 1.4399                 1.7962
 IR Inten    --      0.7202                10.4373                 2.8264

                     31                     32                     33
                      A                      A                      A
 Frequencies --    733.0785               763.7057               808.5585
 Red. masses --      6.2290                 5.0502                10.3022
 Frc consts  --      1.9723                 1.7355                 3.9683
 IR Inten    --      8.5945                12.8946                 6.7901

                     34                     35                     36
                      A                      A                      A
 Frequencies --    853.8073               885.1973               910.8298
 Red. masses --      2.8568                 1.4032                 2.3727
 Frc consts  --      1.2270                 0.6478                 1.1598
 IR Inten    --     11.2698                11.9842                33.4119

                     37                     38                     39
                      A                      A                      A
 Frequencies --    919.5766               938.5056              1000.9218
 Red. masses --      2.0792                 1.5369                 1.8407
 Frc consts  --      1.0359                 0.7976                 1.0865
 IR Inten    --     16.5102                16.5655                 3.6053

                     40                     41                     42
                      A                      A                      A
 Frequencies --   1006.5801              1028.7478              1045.3783
 Red. masses --      4.4756                 3.9330                 6.7306
 Frc consts  --      2.6718                 2.4524                 4.3336
 IR Inten    --      0.1699                25.3165                93.8068

                     43                     44                     45
                      A                      A                      A
 Frequencies --   1062.6255              1077.6337              1111.0413
 Red. masses --      4.1587                 3.5667                 2.5744
 Frc consts  --      2.7667                 2.4404                 1.8724
 IR Inten    --     60.7866                15.7123                41.5380

                     46                     47                     48
                      A                      A                      A
 Frequencies --   1136.9287              1151.7872              1169.0947
 Red. masses --      3.9852                 2.4453                 1.9519
 Frc consts  --      3.0350                 1.9113                 1.5719
 IR Inten    --     81.3077                32.4260                11.0380

                     49                     50                     51
                      A                      A                      A
 Frequencies --   1181.8128              1184.1539              1209.6761
 Red. masses --      1.2660                 1.2654                 1.3885
 Frc consts  --      1.0418                 1.0454                 1.1971
 IR Inten    --      0.3481                 0.6940                 6.7252

                     52                     53                     54
                      A                      A                      A
 Frequencies --   1226.1297              1237.6400              1249.5925
 Red. masses --      1.7329                 1.5098                 2.7385
 Frc consts  --      1.5349                 1.3626                 2.5194
 IR Inten    --     23.9881                 5.5065               236.3036

                     55                     56                     57
                      A                      A                      A
 Frequencies --   1262.2745              1281.2400              1298.8253
 Red. masses --      1.3102                 2.2842                 1.5068
 Frc consts  --      1.2300                 2.2093                 1.4976
 IR Inten    --     27.9079               108.3762                25.4352

                     58                     59                     60
                      A                      A                      A
 Frequencies --   1337.0896              1343.8904              1357.6190
 Red. masses --      1.6198                 2.2699                 1.2666
 Frc consts  --      1.7062                 2.4153                 1.3754
 IR Inten    --      7.0949                25.8232                 5.7565

                     61                     62                     63
                      A                      A                      A
 Frequencies --   1379.0959              1388.3155              1409.4506
 Red. masses --      1.2567                 4.2158                 1.3556
 Frc consts  --      1.4082                 4.7874                 1.5866
 IR Inten    --      5.6248               346.8823                27.6049

                     64                     65                     66
                      A                      A                      A
 Frequencies --   1415.9396              1418.9823              1440.6093
 Red. masses --      1.3509                 2.8137                 1.4409
 Frc consts  --      1.5957                 3.3380                 1.7619
 IR Inten    --      6.5541               282.3361                18.5775

                     67                     68                     69
                      A                      A                      A
 Frequencies --   1470.5294              1510.6190              1510.7341
 Red. masses --      1.6751                 1.0595                 1.4963
 Frc consts  --      2.1343                 1.4244                 2.0120
 IR Inten    --     18.4788                 1.9991                37.4429

                     70                     71                     72
                      A                      A                      A
 Frequencies --   1512.8906              1513.9160              1516.3891
 Red. masses --      1.0847                 1.0494                 1.0610
 Frc consts  --      1.4628                 1.4171                 1.4374
 IR Inten    --      0.9792                12.8817                 1.8138

                     73                     74                     75
                      A                      A                      A
 Frequencies --   1521.2933              1523.2688              1530.4531
 Red. masses --      1.1252                 1.1153                 1.0515
 Frc consts  --      1.5343                 1.5247                 1.4511
 IR Inten    --      6.4173                25.8076                 1.4708

                     76                     77                     78
                      A                      A                      A
 Frequencies --   1540.4293              1542.5347              1595.4803
 Red. masses --      1.7880                 1.2357                 6.9706
 Frc consts  --      2.4997                 1.7324                10.4545
 IR Inten    --     51.0897                 1.7946               227.0062

                     79                     80                     81
                      A                      A                      A
 Frequencies --   1612.9095              1770.7115              2950.0054
 Red. masses --      7.8096                11.6648                 1.0830
 Frc consts  --     11.9701                21.5487                 5.5530
 IR Inten    --    310.3037               203.3267                82.4280

                     82                     83                     84
                      A                      A                      A
 Frequencies --   3006.1737              3056.1175              3068.3475
 Red. masses --      1.0734                 1.0348                 1.0304
 Frc consts  --      5.7156                 5.6946                 5.7158
 IR Inten    --     93.9465                18.9734                18.9178

                     85                     86                     87
                      A                      A                      A
 Frequencies --   3070.1930              3088.8885              3098.6255
 Red. masses --      1.0302                 1.0635                 1.0825
 Frc consts  --      5.7216                 5.9784                 6.1240
 IR Inten    --     65.3839                24.3913                11.2597

                     88                     89                     90
                      A                      A                      A
 Frequencies --   3124.3870              3127.5234              3132.8666
 Red. masses --      1.0928                 1.1024                 1.1035
 Frc consts  --      6.2854                 6.3533                 6.3815
 IR Inten    --     39.2637                18.3284                23.6704

                     91                     92                     93
                      A                      A                      A
 Frequencies --   3139.7276              3141.9999              3143.3627
 Red. masses --      1.1072                 1.1074                 1.1042
 Frc consts  --      6.4307                 6.4410                 6.4280
 IR Inten    --     19.1569                28.2725                44.0880

                     94                     95                     96
                      A                      A                      A
 Frequencies --   3182.1244              3183.5847              3212.3569
 Red. masses --      1.1061                 1.1057                 1.0923
 Frc consts  --      6.5993                 6.6028                 6.6409
 IR Inten    --     28.2592                11.2877                 8.6282

 - Thermochemistry -
 -------------------
 Temperature   298.150 Kelvin.  Pressure   1.00000 Atm.
 Atom     1 has atomic number  6 and mass  12.00000

 Molecular mass:   252.11101 amu.
 Principal axes and moments of inertia in atomic units:
                           1         2         3
     Eigenvalues --  2670.222276678.127898704.07986
           X            0.99992   0.01135  -0.00538
           Y           -0.01141   0.99988  -0.01022
           Z            0.00526   0.01028   0.99993
 This molecule is an asymmetric top.
 Rotational symmetry number  1.
 Warning -- assumption of classical behavior for rotation
           may cause significant error
 Rotational temperatures (Kelvin)      0.03244     0.01297     0.00995
 Rotational constants (GHZ):           0.67588     0.27025     0.20734
 Zero-point vibrational energy     732334.9 (Joules/Mol)
                                  175.03223 (Kcal/Mol)
 Warning -- explicit consideration of  26 degrees of freedom as
           vibrations may cause significant error
 Vibrational temperatures:     28.27    47.17    69.25   102.58   163.62
          (Kelvin)            176.82   198.53   219.96   242.04   242.87
                              264.45   293.57   330.41   352.33   374.73
                              429.32   441.33   489.66   501.12   613.71
                              664.23   689.11   745.29   745.67   837.29
                              879.10   900.03  1001.00  1027.14  1046.73
                             1054.74  1098.80  1163.34  1228.44  1273.60
                             1310.48  1323.07  1350.30  1440.10  1448.24
                             1480.14  1504.07  1528.88  1550.47  1598.54
                             1635.79  1657.16  1682.07  1700.37  1703.73
                             1740.45  1764.13  1780.69  1797.88  1816.13
                             1843.42  1868.72  1923.77  1933.56  1953.31
                             1984.21  1997.48  2027.88  2037.22  2041.60
                             2072.72  2115.76  2173.44  2173.61  2176.71
                             2178.19  2181.75  2188.80  2191.64  2201.98
                             2216.33  2219.36  2295.54  2320.62  2547.66
                             4244.40  4325.21  4397.07  4414.67  4417.32
                             4444.22  4458.23  4495.30  4499.81  4507.50
                             4517.37  4520.64  4522.60  4578.37  4580.47
                             4621.87

 Zero-point correction=                           0.278932 (Hartree/Particle)
 Thermal correction to Energy=                    0.296353
 Thermal correction to Enthalpy=                  0.297297
 Thermal correction to Gibbs Free Energy=         0.232092
 Sum of electronic and zero-point Energies=           -877.064611
 Sum of electronic and thermal Energies=              -877.047190
 Sum of electronic and thermal Enthalpies=            -877.046246
 Sum of electronic and thermal Free Energies=         -877.111451

                     E (Thermal)             CV                S
                      KCal/Mol        Cal/Mol-Kelvin    Cal/Mol-Kelvin
 Total                  185.964             63.971            137.235
 Electronic               0.000              0.000              0.000
 Translational            0.889              2.981             42.474
 Rotational               0.889              2.981             33.406
 Vibrational            184.187             58.010             61.355
 Vibration     1          0.593              1.986              6.669
 Vibration     2          0.594              1.983              5.653
 Vibration     3          0.595              1.978              4.893
 Vibration     4          0.598              1.968              4.117
 Vibration     5          0.607              1.938              3.204
 Vibration     6          0.610              1.930              3.054
 Vibration     7          0.614              1.915              2.832
 Vibration     8          0.619              1.899              2.636
 Vibration     9          0.625              1.882              2.455
 Vibration    10          0.625              1.881              2.449
 Vibration    11          0.631              1.862              2.289
 Vibration    12          0.640              1.834              2.096
 Vibration    13          0.652              1.796              1.882
 Vibration    14          0.660              1.771              1.767
 Vibration    15          0.669              1.745              1.659
 Vibration    16          0.691              1.677              1.426
 Vibration    17          0.697              1.661              1.380
 Vibration    18          0.720              1.595              1.211
 Vibration    19          0.726              1.579              1.174
 Vibration    20          0.788              1.412              0.870
 Vibration    21          0.819              1.335              0.761
 Vibration    22          0.835              1.297              0.713
 Vibration    23          0.873              1.210              0.615
 Vibration    24          0.873              1.210              0.614
 Vibration    25          0.939              1.070              0.482
 Vibration    26          0.970              1.009              0.431

 Optimization completed.
    -- Stationary point found.
 Normal termination of Gaussian 16 at Fri Dec 11 21:50:39 2020.

 ----------------------------------------------------------------------
 # B3LYP/6-311++G(d,p) empiricaldispersion=gd3bj scf=xqc pop=npa geom=c
 heck
 ----------------------------------------------------------------------

 ---------------------------------------
 CID_115796188_JID_8690_Energie_neutraal
 ---------------------------------------
 Structure from the checkpoint file:  "JID_8690.chk"
 Charge =  0 Multiplicity = 1

 SCF Done:  E(RB3LYP) =  -877.586840635     A.U. after   16 cycles
 Normal termination of Gaussian 16 at Fri Dec 11 21:57:15 2020.

 ----------------------------------------------------------------------
 # B3LYP/6-311++G(d,p) empiricaldispersion=gd3bj scf=xqc pop=npa geom=c
 heck
 ----------------------------------------------------------------------

 -------------------------------------
 CID_115796188_JID_8690_Energie_kation
 -------------------------------------
 Structure from the checkpoint file:  "JID_8690.chk"
 Charge =  1 Multiplicity = 2

 SCF Done:  E(UB3LYP) =  -877.284989878     A.U. after   33 cycles
 SCF Done:  E(UB3LYP) =  -877.284989879     a.u. after    1 cycles
 Normal termination of Gaussian 16 at Fri Dec 11 22:17:28 2020.
 Gaussian 16:  ES64L-G16RevA.03 25-Dec-2016

 ----------------------------------------------------------------------
 # B3LYP/6-311++G(d,p) empiricaldispersion=gd3bj scf=xqc pop=npa geom=c
 heck
 ----------------------------------------------------------------------

 ------------------------------------
 CID_115796188_JID_8690_Energie_anion
 ------------------------------------
 Structure from the checkpoint file:  "JID_8690.chk"
 Charge = -1 Multiplicity = 2

                         Standard orientation:
 ---------------------------------------------------------------------
 Center     Atomic      Atomic             Coordinates (Angstroms)
 Number     Number       Type             X           Y           Z
 ---------------------------------------------------------------------
      1          6           0       -4.033885   -1.932456    0.979085
      2          6           0       -3.806395   -0.594996    0.298694
      3          6           0       -2.803538    0.332676    1.001892
      4          6           0       -2.270214    1.209258   -0.158066
      5          6           0       -2.639146    0.379332   -1.427237
      6          8           0       -3.236876   -0.829092   -0.986484
      7          6           0       -0.807016    1.627870   -0.031398
      8          8           0       -0.520091    2.810733    0.075001
      9          6           0        0.247334    0.569356   -0.042642
     10          7           0       -0.155679   -0.706875   -0.166418
     11          6           0        0.729780   -1.686114   -0.189619
     12          6           0        2.103146   -1.391174   -0.081673
     13          7           0        2.545314   -0.146065    0.043091
     14          6           0        1.639711    0.837964    0.063461
     15          8           0        2.071213    2.093017    0.185791
     16          6           0        3.484831    2.301020    0.284380
     17          8           0        2.969125   -2.413622   -0.107025
     18          6           0        4.361855   -2.094839    0.003564
     19          1           0       -4.711258   -2.556654    0.387875
     20          1           0       -4.472799   -1.789940    1.972722
     21          1           0       -3.080265   -2.460090    1.085883
     22          1           0       -4.769791   -0.065079    0.182488
     23          1           0       -3.266537    0.932711    1.790742
     24          1           0       -2.002609   -0.265425    1.441412
     25          1           0       -2.809464    2.159638   -0.178255
     26          1           0       -1.775505    0.118697   -2.042792
     27          1           0       -3.346849    0.954565   -2.043504
     28          1           0        0.381371   -2.708949   -0.293476
     29          1           0        3.997358    1.930103   -0.607777
     30          1           0        3.602205    3.381055    0.372716
     31          1           0        3.893465    1.796481    1.164540
     32          1           0        4.678831   -1.450520   -0.821327
     33          1           0        4.569741   -1.588093    0.950193
     34          1           0        4.878940   -3.053578   -0.039069
 ---------------------------------------------------------------------

 SCF Done:  E(UB3LYP) =  -877.600592463     A.U. after   25 cycles

 The electronic state is 2-A.
 Alpha  occ. eigenvalues --  -19.02470 -19.02360 -18.99442 -18.91378 -14.15919
 Alpha  occ. eigenvalues --  -14.13311 -10.12386 -10.11148 -10.10557 -10.10321
 Alpha  occ. eigenvalues --  -10.09904 -10.08202 -10.06527 -10.05544 -10.04187
 Alpha  occ. eigenvalues --  -10.03926 -10.03616 -10.03217  -0.95489  -0.94794
 Alpha  occ. eigenvalues --   -0.91542  -0.85720  -0.81037  -0.74404  -0.66408
 Alpha  occ. eigenvalues --   -0.64698  -0.63692  -0.60914  -0.56834  -0.55716
 Alpha  occ. eigenvalues --   -0.50538  -0.48769  -0.47947  -0.45900  -0.41541
 Alpha  occ. eigenvalues --   -0.41078  -0.40015  -0.37570  -0.35970  -0.35895
 Alpha  occ. eigenvalues --   -0.35549  -0.34835  -0.33373  -0.32322  -0.31296
 Alpha  occ. eigenvalues --   -0.30287  -0.29949  -0.28867  -0.28091  -0.27102
 Alpha  occ. eigenvalues --   -0.26105  -0.25509  -0.24379  -0.23991  -0.22879
 Alpha  occ. eigenvalues --   -0.21738  -0.21499  -0.21379  -0.20411  -0.19320
 Alpha  occ. eigenvalues --   -0.18271  -0.15738  -0.15481  -0.13299  -0.10401
 Alpha  occ. eigenvalues --   -0.08134  -0.06979   0.04753
 Alpha virt. eigenvalues --    0.07518   0.08001   0.09019   0.09673   0.10541
 Alpha virt. eigenvalues --    0.11075   0.11347   0.11530   0.12119   0.12360
 Alpha virt. eigenvalues --    0.12953   0.13378   0.13774   0.14033   0.14084

  Beta  occ. eigenvalues --  -19.02486 -19.02226 -18.99438 -18.90837 -14.15767
  Beta  occ. eigenvalues --  -14.12621 -10.12418 -10.11154 -10.10556 -10.10318
  Beta  occ. eigenvalues --  -10.09507 -10.08186 -10.06308 -10.05543 -10.04307
  Beta  occ. eigenvalues --  -10.03909 -10.03637 -10.03101  -0.95397  -0.94571
  Beta  occ. eigenvalues --   -0.91531  -0.84784  -0.80488  -0.73571  -0.66373
  Beta  occ. eigenvalues --   -0.64553  -0.63496  -0.60813  -0.56614  -0.55681
  Beta  occ. eigenvalues --   -0.50079  -0.48358  -0.47793  -0.45872  -0.41392
  Beta  occ. eigenvalues --   -0.40827  -0.39757  -0.37525  -0.35731  -0.35625
  Beta  occ. eigenvalues --   -0.35503  -0.34717  -0.33305  -0.32230  -0.31198
  Beta  occ. eigenvalues --   -0.30186  -0.29734  -0.28446  -0.27667  -0.26870
  Beta  occ. eigenvalues --   -0.26015  -0.25189  -0.23933  -0.23520  -0.22498
  Beta  occ. eigenvalues --   -0.21491  -0.21321  -0.21146  -0.19560  -0.18633
  Beta  occ. eigenvalues --   -0.16768  -0.15418  -0.14096  -0.13197  -0.09737
  Beta  occ. eigenvalues --   -0.06837  -0.06455
  Beta virt. eigenvalues --    0.07501   0.07983   0.09002   0.09649   0.10523
  Beta virt. eigenvalues --    0.11051   0.11340   0.11516   0.12052   0.12300
  Beta virt. eigenvalues --    0.12939   0.12955   0.13430   0.13764   0.14023

 Mulliken charges and spin densities:
               1          2
     1  C   -0.645282  -0.000609
     2  C    0.052895  -0.005345
     3  C   -0.406271   0.026962
     4  C    0.698954  -0.007194
     5  C   -0.530540   0.020026
     6  O   -0.059762   0.000328
     7  C   -0.496269   0.099648
     8  O   -0.393551   0.186999
     9  C   -0.402050   0.136098
    10  N   -0.010756   0.323117
    11  C   -0.035522  -0.082178
    12  C   -0.081982   0.262543
    13  N   -0.239202   0.055225
    14  C    0.130968  -0.043568
    15  O   -0.098268  -0.000546
    16  C   -0.314016   0.001019
    17  O   -0.168005   0.019491
    18  C   -0.296019  -0.006610
    19  H    0.129437   0.002803
    20  H    0.112193   0.002174
    21  H    0.163095  -0.000898
    22  H    0.099881   0.001057
    23  H    0.128365   0.000876
    24  H    0.141557  -0.006492
    25  H    0.223810  -0.001815
    26  H    0.179090  -0.000702
    27  H    0.095146   0.003579
    28  H    0.158509   0.002655
    29  H    0.153954  -0.000176
    30  H    0.136365  -0.000066
    31  H    0.153346   0.000043
    32  H    0.147961   0.006284
    33  H    0.147995   0.005659
    34  H    0.123975  -0.000388
 Sum of Mulliken charges =  -1.00000   1.00000

 Dipole moment (field-independent basis, Debye):
    X=              1.5112    Y=             -2.0961    Z=              1.0651  Tot=              2.7950
 Quadrupole moment (field-independent basis, Debye-Ang):
   XX=           -123.0485   YY=           -139.4662   ZZ=           -113.0947
   XY=              2.3861   XZ=             -3.2707   YZ=             -2.9679

 Summary of Natural Population Analysis:

                                       Natural Population
                Natural  -----------------------------------------------
    Atom  No    Charge         Core      Valence    Rydberg      Total
 -----------------------------------------------------------------------
      C    1   -0.28963      0.99964     2.28501    0.00498     3.28963
      C    2    0.06837      0.99959     1.92037    0.01167     2.93163
      C    3   -0.19220      0.99960     2.18611    0.00648     3.19220
      C    4   -0.15592      0.99958     2.14623    0.01011     3.15592
      C    5   -0.00033      0.99959     1.99022    0.01053     3.00033
      O    6   -0.30504      0.99988     3.29370    0.01146     4.30504
      C    7    0.28842      0.99961     1.69042    0.02155     2.71158
      O    8   -0.24486      0.99988     3.23810    0.00688     4.24486
      C    9    0.01287      0.99948     1.97206    0.01559     2.98713
      N   10   -0.12025      0.99969     2.60578    0.01478     3.62025
      C   11   -0.05566      0.99958     2.04335    0.01274     3.05566
      C   12    0.31853      0.99950     1.66769    0.01429     2.68147
      N   13   -0.29012      0.99962     2.78063    0.00987     3.79012
      C   14    0.27244      0.99947     1.71160    0.01649     2.72756
      O   15   -0.25813      0.99984     3.24905    0.00924     4.25813
      C   16   -0.10313      0.99960     2.09528    0.00825     3.10313
      O   17   -0.26600      0.99985     3.25684    0.00931     4.26600
      C   18   -0.10282      0.99961     2.09485    0.00836     3.10282
      H   19    0.09638      0.00000     0.40264    0.00098     0.40362
      H   20    0.09339      0.00000     0.40584    0.00077     0.40661
      H   21    0.10553      0.00000     0.39338    0.00109     0.39447
      H   22    0.06502      0.00000     0.43294    0.00203     0.43498
      H   23    0.09364      0.00000     0.40536    0.00101     0.40636
      H   24    0.11126      0.00000     0.38756    0.00118     0.38874
      H   25    0.09914      0.00000     0.39821    0.00265     0.40086
      H   26    0.09807      0.00000     0.40085    0.00108     0.40193
      H   27    0.06827      0.00000     0.43026    0.00147     0.43173
      H   28    0.08512      0.00000     0.41353    0.00135     0.41488
      H   29    0.08528      0.00000     0.41349    0.00123     0.41472
      H   30    0.08452      0.00000     0.41466    0.00082     0.41548
      H   31    0.08519      0.00000     0.41358    0.00123     0.41481
      H   32    0.08574      0.00000     0.41298    0.00127     0.41426
      H   33    0.08565      0.00000     0.41307    0.00127     0.41435
      H   34    0.08126      0.00000     0.41793    0.00081     0.41874
 =======================================================================
   * Total *    0.00000     17.99361    48.78357    0.22282    67.00000

 Normal termination of Gaussian 16 at Fri Dec 11 22:32:04 2020.
