 Gaussian 16, Revision A.03,

 -----------------------------------------------------------
 # opt freq B3LYP/6-31G(d) empiricaldispersion=gd3bj scf=xqc
 -----------------------------------------------------------

 -----------------------------
 CID_83905095_JID_563_neutraal
 -----------------------------
 Symbolic Z-matrix:
 Charge =  0 Multiplicity = 1

 SCF Done:  E(RB3LYP) =  -764.424218293     A.U. after   14 cycles
 SCF Done:  E(RB3LYP) =  -764.426749678     A.U. after   12 cycles
 SCF Done:  E(RB3LYP) =  -764.427084655     A.U. after   11 cycles
 SCF Done:  E(RB3LYP) =  -764.427125080     A.U. after   11 cycles
 SCF Done:  E(RB3LYP) =  -764.427179657     A.U. after   10 cycles
 SCF Done:  E(RB3LYP) =  -764.427185512     A.U. after    9 cycles
 SCF Done:  E(RB3LYP) =  -764.427186797     A.U. after    8 cycles
 SCF Done:  E(RB3LYP) =  -764.427187027     A.U. after    7 cycles
 Optimization completed.
    -- Stationary point found.
 Normal termination of Gaussian 16 at Tue Dec  8 12:17:59 2020.

 --------------------------------------------------------------------
 #N Geom=AllCheck Guess=TCheck SCRF=Check GenChk RB3LYP/6-31G(d) Freq
 --------------------------------------------------------------------

 Structure from the checkpoint file:  "JID_563.chk"
 -----------------------------
 CID_83905095_JID_563_neutraal
 -----------------------------
 Charge =  0 Multiplicity = 1

 SCF Done:  E(RB3LYP) =  -764.427187027     A.U. after    1 cycles

  Exact polarizability: 131.651  -4.843 101.674  -4.775  -5.699  68.871
 Approx polarizability: 189.563 -11.445 163.782 -10.805 -14.502 108.284

                      1                      2                      3
                      A                      A                      A
 Frequencies --     88.0779               107.4422               135.2467
 Red. masses --      3.0473                 4.5088                 1.8614
 Frc consts  --      0.0139                 0.0307                 0.0201
 IR Inten    --      1.3797                 0.3265                 0.8979

                      4                      5                      6
                      A                      A                      A
 Frequencies --    228.8897               237.1289               299.9023
 Red. masses --      1.4174                 2.0004                 3.0404
 Frc consts  --      0.0438                 0.0663                 0.1611
 IR Inten    --      0.6547                 1.8645                 2.0878

                      7                      8                      9
                      A                      A                      A
 Frequencies --    326.0804               391.5795               432.2669
 Red. masses --      4.0429                 3.6577                 3.4993
 Frc consts  --      0.2533                 0.3304                 0.3852
 IR Inten    --      2.4442                 0.1449                 2.3493

                     10                     11                     12
                      A                      A                      A
 Frequencies --    468.8740               537.4406               648.0874
 Red. masses --      3.5209                 5.1202                 2.4294
 Frc consts  --      0.4561                 0.8714                 0.6012
 IR Inten    --      0.0649                 9.4251                 8.3282

                     13                     14                     15
                      A                      A                      A
 Frequencies --    689.9013               705.2073               734.7001
 Red. masses --      2.3745                 1.7363                 4.0282
 Frc consts  --      0.6659                 0.5088                 1.2811
 IR Inten    --      4.0847                 1.2321                 6.8214

                     16                     17                     18
                      A                      A                      A
 Frequencies --    791.6928               798.3751               801.3230
 Red. masses --      1.3145                 1.5366                 1.9220
 Frc consts  --      0.4854                 0.5771                 0.7271
 IR Inten    --     90.8709                22.7980                19.9238

                     19                     20                     21
                      A                      A                      A
 Frequencies --    831.9279               837.2149               869.1088
 Red. masses --      4.7378                 4.6405                 4.3454
 Frc consts  --      1.9319                 1.9164                 1.9339
 IR Inten    --      9.2115                11.4538                 4.4715

                     22                     23                     24
                      A                      A                      A
 Frequencies --    918.9470               961.7923              1017.9964
 Red. masses --      1.9431                 2.0960                 1.8719
 Frc consts  --      0.9668                 1.1424                 1.1429
 IR Inten    --      2.4678                 4.4680                 3.1760

                     25                     26                     27
                      A                      A                      A
 Frequencies --   1059.9823              1093.1468              1137.7493
 Red. masses --      2.1155                 3.5963                 2.3579
 Frc consts  --      1.4004                 2.5320                 1.7983
 IR Inten    --      3.2439                 4.9819                16.8361

                     28                     29                     30
                      A                      A                      A
 Frequencies --   1152.5277              1166.7241              1191.4691
 Red. masses --      1.3279                 1.2555                 1.4315
 Frc consts  --      1.0393                 1.0070                 1.1973
 IR Inten    --     17.0675                 2.1956                 0.1237

                     31                     32                     33
                      A                      A                      A
 Frequencies --   1197.8778              1208.6793              1248.4396
 Red. masses --      1.4054                 1.5124                 1.4818
 Frc consts  --      1.1881                 1.3018                 1.3607
 IR Inten    --     14.8776                 4.5076                 4.7802

                     34                     35                     36
                      A                      A                      A
 Frequencies --   1307.0680              1323.9203              1358.9293
 Red. masses --      1.4878                 1.5314                 1.4892
 Frc consts  --      1.4976                 1.5815                 1.6203
 IR Inten    --      0.8105                 3.2773                 0.7485

                     37                     38                     39
                      A                      A                      A
 Frequencies --   1377.0999              1422.9567              1481.0084
 Red. masses --      1.2884                 3.5049                 1.1905
 Frc consts  --      1.4396                 4.1813                 1.5386
 IR Inten    --     43.3606                 8.9545                 0.3721

                     40                     41                     42
                      A                      A                      A
 Frequencies --   1495.8663              1505.9534              1516.3850
 Red. masses --      1.2129                 1.0954                 1.1570
 Frc consts  --      1.5990                 1.4637                 1.5675
 IR Inten    --     12.6621                 3.6471                 2.1389

                     43                     44                     45
                      A                      A                      A
 Frequencies --   1520.4662              1543.5209              1546.2910
 Red. masses --      1.0727                 5.0410                 1.0503
 Frc consts  --      1.4611                 7.0760                 1.4795
 IR Inten    --     11.2400                19.2068                10.4547

                     46                     47                     48
                      A                      A                      A
 Frequencies --   1632.0734              2948.8041              2954.5441
 Red. masses --      8.9240                 1.0650                 1.0795
 Frc consts  --     14.0052                 5.4564                 5.5521
 IR Inten    --      2.7713                50.4815               126.1565

                     49                     50                     51
                      A                      A                      A
 Frequencies --   3059.5647              3065.7766              3080.9979
 Red. masses --      1.0633                 1.0655                 1.0719
 Frc consts  --      5.8645                 5.9003                 5.9948
 IR Inten    --     25.1880                32.2993                34.8287

                     52                     53                     54
                      A                      A                      A
 Frequencies --   3105.1991              3121.9630              3126.0041
 Red. masses --      1.0989                 1.1026                 1.1023
 Frc consts  --      6.2428                 6.3316                 6.3463
 IR Inten    --     28.0347                60.0016                18.7902

                     55                     56                     57
                      A                      A                      A
 Frequencies --   3262.1746              3265.7948              3506.1658
 Red. masses --      1.0938                 1.0948                 1.0747
 Frc consts  --      6.8580                 6.8795                 7.7839
 IR Inten    --      0.5616                 0.5493                 0.1852

 - Thermochemistry -
 -------------------
 Temperature   298.150 Kelvin.  Pressure   1.00000 Atm.
 Atom     1 has atomic number  6 and mass  12.00000

 Molecular mass:   153.06122 amu.
 Principal axes and moments of inertia in atomic units:
                           1         2         3
     Eigenvalues --   753.580722323.046522837.17666
           X            0.99979   0.02021  -0.00165
           Y           -0.02022   0.99978  -0.00469
           Z            0.00156   0.00473   0.99999
 This molecule is an asymmetric top.
 Rotational symmetry number  1.
 Warning -- assumption of classical behavior for rotation
           may cause significant error
 Rotational temperatures (Kelvin)      0.11494     0.03728     0.03053
 Rotational constants (GHZ):           2.39489     0.77689     0.63610
 Zero-point vibrational energy     465612.5 (Joules/Mol)
                                  111.28405 (Kcal/Mol)
 Warning -- explicit consideration of  11 degrees of freedom as
           vibrations may cause significant error
 Vibrational temperatures:    126.72   154.59   194.59   329.32   341.18
          (Kelvin)            431.49   469.16   563.40   621.94   674.61
                              773.26   932.45   992.61  1014.64  1057.07
                             1139.07  1148.68  1152.93  1196.96  1204.57
                             1250.45  1322.16  1383.80  1464.67  1525.08
                             1572.79  1636.97  1658.23  1678.66  1714.26
                             1723.48  1739.02  1796.23  1880.58  1904.83
                             1955.20  1981.34  2047.32  2130.84  2152.22
                             2166.73  2181.74  2187.61  2220.78  2224.77
                             2348.19  4242.67  4250.93  4402.03  4410.97
                             4432.87  4467.69  4491.81  4497.62  4693.54
                             4698.75  5044.59

 Zero-point correction=                           0.177342 (Hartree/Particle)
 Thermal correction to Energy=                    0.186482
 Thermal correction to Enthalpy=                  0.187426
 Thermal correction to Gibbs Free Energy=         0.142859
 Sum of electronic and zero-point Energies=           -764.249845
 Sum of electronic and thermal Energies=              -764.240705
 Sum of electronic and thermal Enthalpies=            -764.239761
 Sum of electronic and thermal Free Energies=         -764.284328

                     E (Thermal)             CV                S
                      KCal/Mol        Cal/Mol-Kelvin    Cal/Mol-Kelvin
 Total                  117.019             35.621             93.800
 Electronic               0.000              0.000              0.000
 Translational            0.889              2.981             40.987
 Rotational               0.889              2.981             29.986
 Vibrational            115.242             29.659             22.827
 Vibration     1          0.601              1.958              3.702
 Vibration     2          0.606              1.943              3.315
 Vibration     3          0.613              1.918              2.870
 Vibration     4          0.652              1.797              1.888
 Vibration     5          0.656              1.784              1.824
 Vibration     6          0.692              1.674              1.417
 Vibration     7          0.710              1.623              1.279
 Vibration     8          0.759              1.488              0.994
 Vibration     9          0.793              1.400              0.851
 Vibration    10          0.826              1.319              0.741
 Vibration    11          0.892              1.167              0.571

 Optimization completed.
    -- Stationary point found.
 Normal termination of Gaussian 16 at Tue Dec  8 12:23:22 2020.

 ----------------------------------------------------------------------
 # B3LYP/6-311++G(d,p) empiricaldispersion=gd3bj scf=xqc pop=npa geom=c
 heck
 ----------------------------------------------------------------------

 -------------------------------------
 CID_83905095_JID_563_Energie_neutraal
 -------------------------------------
 Structure from the checkpoint file:  "JID_563.chk"
 Charge =  0 Multiplicity = 1

 SCF Done:  E(RB3LYP) =  -764.554028636     A.U. after   15 cycles
 Normal termination of Gaussian 16 at Tue Dec  8 12:26:02 2020.

 ----------------------------------------------------------------------
 # B3LYP/6-311++G(d,p) empiricaldispersion=gd3bj scf=xqc pop=npa geom=c
 heck
 ----------------------------------------------------------------------

 -----------------------------------
 CID_83905095_JID_563_Energie_kation
 -----------------------------------
 Structure from the checkpoint file:  "JID_563.chk"
 Charge =  1 Multiplicity = 2

 SCF Done:  E(UB3LYP) =  -764.255078962     A.U. after   29 cycles
 Normal termination of Gaussian 16 at Tue Dec  8 12:40:12 2020.
 Gaussian 16:  ES64L-G16RevA.03 25-Dec-2016

 ----------------------------------------------------------------------
 # B3LYP/6-311++G(d,p) empiricaldispersion=gd3bj scf=xqc pop=npa geom=c
 heck
 ----------------------------------------------------------------------

 ----------------------------------
 CID_83905095_JID_563_Energie_anion
 ----------------------------------
 Structure from the checkpoint file:  "JID_563.chk"
 Charge = -1 Multiplicity = 2

                         Standard orientation:
 ---------------------------------------------------------------------
 Center     Atomic      Atomic             Coordinates (Angstroms)
 Number     Number       Type             X           Y           Z
 ---------------------------------------------------------------------
      1          6           0       -3.413326   -0.966283   -0.358843
      2          7           0       -1.998221   -0.726394   -0.611561
      3          6           0       -1.276306   -0.204228    0.558487
      4          6           0       -1.460870    1.336649    0.669112
      5          6           0       -0.369734    1.957932   -0.245599
      6          6           0        0.733767    0.932328   -0.162160
      7          6           0        2.071522    0.885441   -0.417712
      8         16           0        2.715021   -0.701762   -0.067212
      9          6           0        1.150300   -1.292878    0.430496
     10          6           0        0.211752   -0.309855    0.322803
     11          1           0       -3.925793   -0.014815   -0.179502
     12          1           0       -3.611661   -1.618158    0.513147
     13          1           0       -3.868217   -1.423023   -1.243478
     14          1           0       -1.552821   -1.592425   -0.905487
     15          1           0       -1.593147   -0.708582    1.489163
     16          1           0       -2.472123    1.652069    0.397416
     17          1           0       -1.281604    1.638645    1.707702
     18          1           0       -0.738217    2.036782   -1.275512
     19          1           0       -0.069106    2.959405    0.078162
     20          1           0        2.732101    1.661083   -0.780983
     21          1           0        1.045173   -2.312662    0.776188
 ---------------------------------------------------------------------

 SCF Done:  E(UB3LYP) =  -764.535499508     A.U. after   33 cycles
 SCF Done:  E(UB3LYP) =  -764.535499509     a.u. after    1 cycles

 The electronic state is 2-A.
 Alpha  occ. eigenvalues --  -88.77525 -14.19066 -10.09971 -10.09685 -10.09580
 Alpha  occ. eigenvalues --  -10.07666 -10.07519 -10.07309 -10.07289 -10.06506
 Alpha  occ. eigenvalues --   -7.86105  -5.82404  -5.82027  -5.81707  -0.80946
 Alpha  occ. eigenvalues --   -0.77662  -0.70468  -0.63881  -0.60567  -0.58030
 Alpha  occ. eigenvalues --   -0.54201  -0.48323  -0.46475  -0.42519  -0.40308
 Alpha  occ. eigenvalues --   -0.38555  -0.34914  -0.32574  -0.31543  -0.30487
 Alpha  occ. eigenvalues --   -0.29624  -0.27672  -0.26992  -0.26740  -0.25445
 Alpha  occ. eigenvalues --   -0.24661  -0.23648  -0.21913  -0.14423  -0.13703
 Alpha  occ. eigenvalues --   -0.12272   0.04880
 Alpha virt. eigenvalues --    0.06579   0.07342   0.07595   0.08492   0.09270
 Alpha virt. eigenvalues --    0.10060   0.10580   0.10923   0.11690   0.12111
 Alpha virt. eigenvalues --    0.12439   0.13425   0.14010   0.14557   0.14845

  Beta  occ. eigenvalues --  -88.77522 -14.19043 -10.09957 -10.09662 -10.09570
  Beta  occ. eigenvalues --  -10.07664 -10.07472 -10.07308 -10.07273 -10.06488
  Beta  occ. eigenvalues --   -7.86103  -5.82403  -5.82019  -5.81705  -0.80919
  Beta  occ. eigenvalues --   -0.77640  -0.70441  -0.63856  -0.60539  -0.57974
  Beta  occ. eigenvalues --   -0.54116  -0.48277  -0.46420  -0.42482  -0.40258
  Beta  occ. eigenvalues --   -0.38506  -0.34850  -0.32533  -0.31504  -0.30453
  Beta  occ. eigenvalues --   -0.29582  -0.27653  -0.26959  -0.26695  -0.25409
  Beta  occ. eigenvalues --   -0.24624  -0.23614  -0.21882  -0.14413  -0.13684
  Beta  occ. eigenvalues --   -0.12215
  Beta virt. eigenvalues --    0.07179   0.07467   0.07768   0.08553   0.09141
  Beta virt. eigenvalues --    0.09771   0.10538   0.11090   0.11223   0.12069
  Beta virt. eigenvalues --    0.12467   0.12871   0.13750   0.14145   0.14836

 Mulliken charges and spin densities:
               1          2
     1  C    1.670937  -1.965029
     2  N   -0.268717   0.182646
     3  C    1.699818  -2.192173
     4  C   -0.136698  -0.386121
     5  C    2.131435  -2.999295
     6  C   -1.377931   0.819057
     7  C   -1.312318   2.142820
     8  S    0.756640  -1.323676
     9  C   -0.090647   0.978085
    10  C   -0.610577   0.334658
    11  H   -0.429320   0.548487
    12  H   -0.575784   0.709422
    13  H   -0.377120   0.509117
    14  H    0.119559   0.112594
    15  H   -0.207391   0.388711
    16  H    0.137618  -0.017821
    17  H   -0.184515   0.325118
    18  H    0.127128   0.030218
    19  H   -0.174959   0.333275
    20  H   -0.569518   0.843614
    21  H   -1.327641   1.626292
 Sum of Mulliken charges =  -1.00000   1.00000

 Dipole moment (field-independent basis, Debye):
    X=              4.7787    Y=              3.0771    Z=             -1.2729  Tot=              5.8245
 Quadrupole moment (field-independent basis, Debye-Ang):
   XX=           -129.1487   YY=           -117.6429   ZZ=            -99.5122
   XY=            -10.6722   XZ=              0.2864   YZ=              4.4288

 Summary of Natural Population Analysis:

                                       Natural Population
                Natural  -----------------------------------------------
    Atom  No    Charge         Core      Valence    Rydberg      Total
 -----------------------------------------------------------------------
      C    1   -0.17876      0.99966     2.17031    0.00878     3.17876
      N    2   -0.33801      0.99973     2.82609    0.01219     3.83801
      C    3   -0.01482      0.99955     2.00127    0.01400     3.01482
      C    4   -0.18327      0.99963     2.17509    0.00854     3.18327
      C    5   -0.19689      0.99960     2.18928    0.00801     3.19689
      C    6   -0.03392      0.99945     2.02195    0.01253     3.03392
      C    7   -0.18975      0.99944     2.18035    0.00996     3.18975
      S    8    0.18829      4.99949     2.79113    0.02110     7.81171
      C    9   -0.18161      0.99944     2.16989    0.01228     3.18161
      C   10   -0.04103      0.99944     2.02858    0.01301     3.04103
      H   11    0.08969      0.00000     0.40860    0.00171     0.41031
      H   12    0.08206      0.00000     0.41497    0.00297     0.41794
      H   13    0.09605      0.00000     0.40269    0.00126     0.40395
      H   14    0.17585      0.00000     0.32064    0.00351     0.32415
      H   15    0.09062      0.00000     0.40651    0.00287     0.40938
      H   16    0.10221      0.00000     0.39674    0.00105     0.39779
      H   17    0.09684      0.00000     0.40168    0.00148     0.40316
      H   18    0.10720      0.00000     0.39124    0.00156     0.39280
      H   19    0.10413      0.00000     0.39459    0.00128     0.39587
      H   20    0.10969      0.00000     0.38903    0.00128     0.39031
      H   21    0.11544      0.00000     0.38185    0.00271     0.38456
 =======================================================================
   * Total *   -0.00000     13.99544    26.86250    0.14207    41.00000

 Normal termination of Gaussian 16 at Tue Dec  8 12:50:06 2020.
