 Gaussian 16, Revision A.03,

 -----------------------------------------------------------
 # opt freq B3LYP/6-31G(d) empiricaldispersion=gd3bj scf=xqc
 -----------------------------------------------------------

 ------------------------------
 CID_79914692_JID_5824_neutraal
 ------------------------------
 Symbolic Z-matrix:
 Charge =  0 Multiplicity = 1

 SCF Done:  E(RB3LYP) =  -999.355586718     A.U. after   13 cycles
 SCF Done:  E(RB3LYP) =  -999.359485945     A.U. after   11 cycles
 SCF Done:  E(RB3LYP) =  -999.359408777     A.U. after   11 cycles
 SCF Done:  E(RB3LYP) =  -999.360351528     A.U. after   10 cycles
 SCF Done:  E(RB3LYP) =  -999.360714876     A.U. after   10 cycles
 SCF Done:  E(RB3LYP) =  -999.360940391     A.U. after   11 cycles
 SCF Done:  E(RB3LYP) =  -999.361148417     A.U. after   10 cycles
 SCF Done:  E(RB3LYP) =  -999.361138919     A.U. after   10 cycles
 SCF Done:  E(RB3LYP) =  -999.361191741     A.U. after   10 cycles
 SCF Done:  E(RB3LYP) =  -999.361245103     A.U. after    9 cycles
 SCF Done:  E(RB3LYP) =  -999.365257567     A.U. after   10 cycles
 SCF Done:  E(RB3LYP) =  -999.365340392     A.U. after   10 cycles
 SCF Done:  E(RB3LYP) =  -999.365460300     A.U. after    9 cycles
 SCF Done:  E(RB3LYP) =  -999.365464765     A.U. after    8 cycles
 SCF Done:  E(RB3LYP) =  -999.365465418     A.U. after    7 cycles
 SCF Done:  E(RB3LYP) =  -999.365465490     A.U. after    6 cycles
 Optimization completed.
    -- Stationary point found.
 Normal termination of Gaussian 16 at Thu Dec 10 17:12:03 2020.

 --------------------------------------------------------------------
 #N Geom=AllCheck Guess=TCheck SCRF=Check GenChk RB3LYP/6-31G(d) Freq
 --------------------------------------------------------------------

 Structure from the checkpoint file:  "JID_5824.chk"
 ------------------------------
 CID_79914692_JID_5824_neutraal
 ------------------------------
 Charge =  0 Multiplicity = 1

 SCF Done:  E(RB3LYP) =  -999.365465490     A.U. after    1 cycles

  Exact polarizability: 174.116   2.092 136.600  -4.568   2.538 129.324
 Approx polarizability: 213.742   1.371 208.370  -6.266   3.155 202.119

                      1                      2                      3
                      A                      A                      A
 Frequencies --     61.9905                72.8813                79.6446
 Red. masses --      3.4761                 4.5242                 2.6494
 Frc consts  --      0.0079                 0.0142                 0.0099
 IR Inten    --      0.2008                 0.4692                 0.1497

                      4                      5                      6
                      A                      A                      A
 Frequencies --     99.5002               120.1191               172.9495
 Red. masses --      2.9254                 3.1835                 3.3895
 Frc consts  --      0.0171                 0.0271                 0.0597
 IR Inten    --      0.1554                 0.9720                 0.1408

                      7                      8                      9
                      A                      A                      A
 Frequencies --    202.9795               222.9728               236.7496
 Red. masses --      1.9833                 1.6516                 3.0250
 Frc consts  --      0.0481                 0.0484                 0.0999
 IR Inten    --      0.8627                 1.1332                 0.9836

                     10                     11                     12
                      A                      A                      A
 Frequencies --    245.6167               276.2137               291.1784
 Red. masses --      2.4994                 2.6702                 1.7483
 Frc consts  --      0.0888                 0.1200                 0.0873
 IR Inten    --      3.1494                 0.2721                13.9255

                     13                     14                     15
                      A                      A                      A
 Frequencies --    296.2004               336.2829               347.4764
 Red. masses --      1.5496                 2.1775                 2.0978
 Frc consts  --      0.0801                 0.1451                 0.1492
 IR Inten    --     25.1419                 0.4973                 3.8545

                     16                     17                     18
                      A                      A                      A
 Frequencies --    390.2013               415.6494               422.1714
 Red. masses --      2.4145                 2.2982                 2.7000
 Frc consts  --      0.2166                 0.2339                 0.2835
 IR Inten    --      1.3864                 0.0686                 0.5736

                     19                     20                     21
                      A                      A                      A
 Frequencies --    440.7354               473.1888               488.6019
 Red. masses --      2.2809                 2.9479                 2.4411
 Frc consts  --      0.2610                 0.3889                 0.3434
 IR Inten    --      4.9867                11.3107                 1.4619

                     22                     23                     24
                      A                      A                      A
 Frequencies --    508.8209               538.4297               576.7934
 Red. masses --      3.0311                 2.8076                 2.6283
 Frc consts  --      0.4624                 0.4796                 0.5152
 IR Inten    --      1.0696                 3.0676                 1.6075

                     25                     26                     27
                      A                      A                      A
 Frequencies --    656.5130               677.0059               694.6224
 Red. masses --      4.3775                 2.7468                 3.7853
 Frc consts  --      1.1116                 0.7417                 1.0761
 IR Inten    --      2.8196                 3.7279                 1.0088

                     28                     29                     30
                      A                      A                      A
 Frequencies --    719.0737               788.6332               796.3003
 Red. masses --      2.9357                 1.3446                 1.6194
 Frc consts  --      0.8944                 0.4927                 0.6050
 IR Inten    --      0.7084                 3.0936                 0.1939

                     31                     32                     33
                      A                      A                      A
 Frequencies --    837.1721               843.8196               870.7581
 Red. masses --      2.2648                 1.8695                 2.1745
 Frc consts  --      0.9352                 0.7843                 0.9714
 IR Inten    --     26.2952                76.3471                35.0303

                     34                     35                     36
                      A                      A                      A
 Frequencies --    899.5234               903.6206               919.1647
 Red. masses --      1.9112                 2.3305                 2.1371
 Frc consts  --      0.9111                 1.1212                 1.0638
 IR Inten    --      4.1479                18.6456                16.4582

                     37                     38                     39
                      A                      A                      A
 Frequencies --    955.5120               967.8726               981.8294
 Red. masses --      1.5807                 2.1646                 2.3230
 Frc consts  --      0.8503                 1.1947                 1.3194
 IR Inten    --      3.6928                57.4432                16.8487

                     40                     41                     42
                      A                      A                      A
 Frequencies --   1006.6351              1016.0590              1025.3134
 Red. masses --      1.9848                 1.9910                 1.8705
 Frc consts  --      1.1850                 1.2111                 1.1585
 IR Inten    --     21.9530                 0.9613                 0.2361

                     43                     44                     45
                      A                      A                      A
 Frequencies --   1043.5707              1058.9123              1064.0607
 Red. masses --      2.5914                 1.4714                 1.3824
 Frc consts  --      1.6627                 0.9721                 0.9222
 IR Inten    --      1.0973                 1.0063                 3.7392

                     46                     47                     48
                      A                      A                      A
 Frequencies --   1090.8754              1102.7429              1121.4826
 Red. masses --      2.3557                 2.0959                 2.4920
 Frc consts  --      1.6516                 1.5016                 1.8466
 IR Inten    --     12.8476                61.8962                32.2499

                     49                     50                     51
                      A                      A                      A
 Frequencies --   1124.4685              1135.0432              1158.2731
 Red. masses --      2.1980                 1.9467                 1.7937
 Frc consts  --      1.6375                 1.4777                 1.4178
 IR Inten    --     32.8993                 2.0759                 7.8742

                     52                     53                     54
                      A                      A                      A
 Frequencies --   1172.6135              1185.9239              1217.6138
 Red. masses --      1.7106                 1.5883                 1.3368
 Frc consts  --      1.3858                 1.3161                 1.1677
 IR Inten    --      1.7651                12.8806                 4.8041

                     55                     56                     57
                      A                      A                      A
 Frequencies --   1234.7748              1257.8147              1265.3049
 Red. masses --      1.4086                 1.4855                 1.3898
 Frc consts  --      1.2654                 1.3847                 1.3110
 IR Inten    --      5.4440                 8.7745                 6.1851

                     58                     59                     60
                      A                      A                      A
 Frequencies --   1284.2077              1290.2531              1303.3600
 Red. masses --      1.4169                 1.4177                 1.3325
 Frc consts  --      1.3768                 1.3905                 1.3337
 IR Inten    --      6.7374                23.0764                15.3633

                     61                     62                     63
                      A                      A                      A
 Frequencies --   1330.6377              1335.3539              1347.3148
 Red. masses --      1.2629                 1.2618                 1.2446
 Frc consts  --      1.3175                 1.3257                 1.3311
 IR Inten    --     12.9325                15.6930                 3.3886

                     64                     65                     66
                      A                      A                      A
 Frequencies --   1358.1474              1370.8580              1380.9239
 Red. masses --      1.3378                 1.2823                 1.4902
 Frc consts  --      1.4539                 1.4198                 1.6743
 IR Inten    --      0.3232                 2.9629                 1.6116

                     67                     68                     69
                      A                      A                      A
 Frequencies --   1384.2780              1395.0152              1403.9775
 Red. masses --      1.4099                 1.3782                 1.5050
 Frc consts  --      1.5918                 1.5802                 1.7479
 IR Inten    --      3.5136                 0.0590                 1.3973

                     70                     71                     72
                      A                      A                      A
 Frequencies --   1414.5052              1423.9146              1427.3091
 Red. masses --      1.5683                 1.3963                 1.2759
 Frc consts  --      1.8487                 1.6680                 1.5314
 IR Inten    --      0.3808                 4.0065                 5.9811

                     73                     74                     75
                      A                      A                      A
 Frequencies --   1435.2108              1438.2605              1488.0640
 Red. masses --      1.3075                 1.3126                 1.0815
 Frc consts  --      1.5868                 1.5998                 1.4110
 IR Inten    --      1.7150                 8.2548                 0.4475

                     76                     77                     78
                      A                      A                      A
 Frequencies --   1493.8974              1501.6419              1503.2793
 Red. masses --      1.0939                 1.0867                 1.0917
 Frc consts  --      1.4384                 1.4438                 1.4536
 IR Inten    --      2.8417                10.7918                 3.2764

                     79                     80                     81
                      A                      A                      A
 Frequencies --   1512.7048              1514.8395              1520.3104
 Red. masses --      1.0935                 1.0801                 1.0775
 Frc consts  --      1.4743                 1.4604                 1.4674
 IR Inten    --      4.3053                 3.7477                 4.8687

                     82                     83                     84
                      A                      A                      A
 Frequencies --   1525.0131              1542.5393              1542.8881
 Red. masses --      1.0493                 1.0862                 1.0599
 Frc consts  --      1.4379                 1.5228                 1.4865
 IR Inten    --      6.1860                 1.5855                 5.7025

                     85                     86                     87
                      A                      A                      A
 Frequencies --   1693.4658              3000.8818              3010.1758
 Red. masses --      1.0921                 1.0820                 1.0717
 Frc consts  --      1.8453                 5.7411                 5.7213
 IR Inten    --     14.8256                20.9441                26.9140

                     88                     89                     90
                      A                      A                      A
 Frequencies --   3019.7605              3042.5858              3045.3211
 Red. masses --      1.0694                 1.0624                 1.0628
 Frc consts  --      5.7456                 5.7948                 5.8073
 IR Inten    --     12.3855                 5.2311                37.6851

                     91                     92                     93
                      A                      A                      A
 Frequencies --   3048.4167              3048.8943              3054.0853
 Red. masses --      1.0562                 1.0618                 1.0643
 Frc consts  --      5.7828                 5.8156                 5.8488
 IR Inten    --      2.7488                58.7768                82.0888

                     94                     95                     96
                      A                      A                      A
 Frequencies --   3058.7639              3077.0016              3077.6397
 Red. masses --      1.0653                 1.0601                 1.0933
 Frc consts  --      5.8725                 5.9137                 6.1011
 IR Inten    --     18.9776                 8.6205                22.8201

                     97                     98                     99
                      A                      A                      A
 Frequencies --   3082.2360              3086.7733              3096.1628
 Red. masses --      1.0695                 1.0916                 1.0974
 Frc consts  --      5.9862                 6.1278                 6.1981
 IR Inten    --     17.4840                 7.8502                36.9689

                    100                    101                    102
                      A                      A                      A
 Frequencies --   3097.1706              3103.1435              3106.8917
 Red. masses --      1.0982                 1.0942                 1.0990
 Frc consts  --      6.2065                 6.2077                 6.2502
 IR Inten    --     43.7422                62.6815                50.1230

                    103                    104                    105
                      A                      A                      A
 Frequencies --   3108.0966              3129.5025              3135.7134
 Red. masses --      1.0989                 1.1074                 1.1075
 Frc consts  --      6.2544                 6.3901                 6.4160
 IR Inten    --     31.9585                14.3879                11.1987

                    106                    107                    108
                      A                      A                      A
 Frequencies --   3145.2381              3463.5339              3566.6598
 Red. masses --      1.1002                 1.0517                 1.0893
 Frc consts  --      6.4126                 7.4335                 8.1647
 IR Inten    --     21.6222                 1.0782                 0.2639

 - Thermochemistry -
 -------------------
 Temperature   298.150 Kelvin.  Pressure   1.00000 Atm.
 Atom     1 has atomic number  6 and mass  12.00000

 Molecular mass:   229.15004 amu.
 Principal axes and moments of inertia in atomic units:
                           1         2         3
     Eigenvalues --  1688.592876186.412906681.63502
           X            0.99989  -0.01301  -0.00730
           Y            0.01314   0.99974   0.01882
           Z            0.00705  -0.01892   0.99980
 This molecule is an asymmetric top.
 Rotational symmetry number  1.
 Warning -- assumption of classical behavior for rotation
           may cause significant error
 Rotational temperatures (Kelvin)      0.05129     0.01400     0.01296
 Rotational constants (GHZ):           1.06878     0.29173     0.27010
 Zero-point vibrational energy     908426.6 (Joules/Mol)
                                  217.11917 (Kcal/Mol)
 Warning -- explicit consideration of  24 degrees of freedom as
           vibrations may cause significant error
 Vibrational temperatures:     89.19   104.86   114.59   143.16   172.82
          (Kelvin)            248.84   292.04   320.81   340.63   353.39
                              397.41   418.94   426.17   483.84   499.94
                              561.41   598.03   607.41   634.12   680.81
                              702.99   732.08   774.68   829.88   944.58
                              974.06   999.41  1034.59  1134.67  1145.70
                             1204.50  1214.07  1252.83  1294.21  1300.11
                             1322.47  1374.77  1392.55  1412.63  1448.32
                             1461.88  1475.20  1501.47  1523.54  1530.95
                             1569.53  1586.60  1613.56  1617.86  1633.07
                             1666.50  1687.13  1706.28  1751.87  1776.57
                             1809.71  1820.49  1847.69  1856.39  1875.24
                             1914.49  1921.28  1938.49  1954.07  1972.36
                             1986.84  1991.67  2007.12  2020.01  2035.16
                             2048.70  2053.58  2064.95  2069.34  2140.99
                             2149.39  2160.53  2162.88  2176.44  2179.52
                             2187.39  2194.15  2219.37  2219.87  2436.52
                             4317.60  4330.97  4344.76  4377.60  4381.54
                             4385.99  4386.68  4394.15  4400.88  4427.12
                             4428.04  4434.65  4441.18  4454.69  4456.14
                             4464.73  4470.12  4471.86  4502.66  4511.59
                             4525.30  4983.25  5131.63

 Zero-point correction=                           0.346001 (Hartree/Particle)
 Thermal correction to Energy=                    0.361339
 Thermal correction to Enthalpy=                  0.362283
 Thermal correction to Gibbs Free Energy=         0.304391
 Sum of electronic and zero-point Energies=           -999.019464
 Sum of electronic and thermal Energies=              -999.004127
 Sum of electronic and thermal Enthalpies=            -999.003182
 Sum of electronic and thermal Free Energies=         -999.061074

                     E (Thermal)             CV                S
                      KCal/Mol        Cal/Mol-Kelvin    Cal/Mol-Kelvin
 Total                  226.744             61.576            121.844
 Electronic               0.000              0.000              0.000
 Translational            0.889              2.981             42.190
 Rotational               0.889              2.981             32.612
 Vibrational            224.966             55.614             47.042
 Vibration     1          0.597              1.972              4.393
 Vibration     2          0.599              1.967              4.074
 Vibration     3          0.600              1.963              3.900
 Vibration     4          0.604              1.949              3.464
 Vibration     5          0.609              1.932              3.098
 Vibration     6          0.626              1.876              2.403
 Vibration     7          0.639              1.836              2.106
 Vibration     8          0.649              1.806              1.935
 Vibration     9          0.656              1.784              1.827
 Vibration    10          0.660              1.770              1.762
 Vibration    11          0.678              1.717              1.557
 Vibration    12          0.687              1.690              1.467
 Vibration    13          0.690              1.681              1.438
 Vibration    14          0.717              1.603              1.230
 Vibration    15          0.725              1.580              1.178
 Vibration    16          0.758              1.491              0.999
 Vibration    17          0.779              1.436              0.907
 Vibration    18          0.785              1.422              0.885
 Vibration    19          0.801              1.381              0.824
 Vibration    20          0.830              1.310              0.729
 Vibration    21          0.844              1.275              0.687
 Vibration    22          0.864              1.230              0.636
 Vibration    23          0.893              1.165              0.569
 Vibration    24          0.933              1.081              0.491

 Optimization completed.
    -- Stationary point found.
 Normal termination of Gaussian 16 at Thu Dec 10 17:29:23 2020.

 ----------------------------------------------------------------------
 # B3LYP/6-311++G(d,p) empiricaldispersion=gd3bj scf=xqc pop=npa geom=c
 heck
 ----------------------------------------------------------------------

 --------------------------------------
 CID_79914692_JID_5824_Energie_neutraal
 --------------------------------------
 Structure from the checkpoint file:  "JID_5824.chk"
 Charge =  0 Multiplicity = 1

 SCF Done:  E(RB3LYP) =  -999.564178593     A.U. after   14 cycles
 Normal termination of Gaussian 16 at Thu Dec 10 17:38:08 2020.

 ----------------------------------------------------------------------
 # B3LYP/6-311++G(d,p) empiricaldispersion=gd3bj scf=xqc pop=npa geom=c
 heck
 ----------------------------------------------------------------------

 ------------------------------------
 CID_79914692_JID_5824_Energie_kation
 ------------------------------------
 Structure from the checkpoint file:  "JID_5824.chk"
 Charge =  1 Multiplicity = 2

 SCF Done:  E(UB3LYP) =  -999.273959080     A.U. after   24 cycles
 Normal termination of Gaussian 16 at Thu Dec 10 17:58:56 2020.
 Gaussian 16:  ES64L-G16RevA.03 25-Dec-2016

 ----------------------------------------------------------------------
 # B3LYP/6-311++G(d,p) empiricaldispersion=gd3bj scf=xqc pop=npa geom=c
 heck
 ----------------------------------------------------------------------

 -----------------------------------
 CID_79914692_JID_5824_Energie_anion
 -----------------------------------
 Structure from the checkpoint file:  "JID_5824.chk"
 Charge = -1 Multiplicity = 2

                         Standard orientation:
 ---------------------------------------------------------------------
 Center     Atomic      Atomic             Coordinates (Angstroms)
 Number     Number       Type             X           Y           Z
 ---------------------------------------------------------------------
      1          6           0       -4.675902    1.221696    0.729337
      2          6           0       -3.927497    0.091384    0.022396
      3          6           0       -2.431200    0.388170   -0.182459
      4          6           0       -1.677821   -0.902220   -0.628638
      5          6           0       -1.470575   -1.896630    0.531510
      6          6           0       -0.295081   -1.487567    1.414678
      7          8           0        0.913505   -1.389623    0.671039
      8          6           0        0.894932   -0.436804   -0.407885
      9          6           0       -0.315363   -0.698518   -1.328267
     10          6           0        0.913232    1.006529    0.145291
     11          6           0        2.083465    1.282965    1.088666
     12         16           0        3.707961    1.125021    0.257498
     13          6           0        3.465949   -0.579101   -0.373511
     14          6           0        2.185880   -0.727017   -1.194330
     15          7           0       -2.324448    1.535396   -1.092151
     16          1           0       -4.296170    1.363056    1.749028
     17          1           0       -5.747647    1.005029    0.800115
     18          1           0       -4.541697    2.162160    0.188615
     19          1           0       -4.047031   -0.841751    0.585369
     20          1           0       -4.374826   -0.091936   -0.966253
     21          1           0       -2.028000    0.725579    0.780984
     22          1           0       -2.330493   -1.380864   -1.374223
     23          1           0       -2.373065   -1.988625    1.146497
     24          1           0       -1.257884   -2.891834    0.121650
     25          1           0       -0.508984   -0.542579    1.936910
     26          1           0       -0.101858   -2.244349    2.180806
     27          1           0       -0.099708   -1.621529   -1.880837
     28          1           0       -0.379634    0.098725   -2.077201
     29          1           0        0.958415    1.702294   -0.701438
     30          1           0       -0.016484    1.215734    0.683937
     31          1           0        2.050385    0.598844    1.942028
     32          1           0        2.036677    2.306896    1.470304
     33          1           0        3.454032   -1.275400    0.469284
     34          1           0        4.343462   -0.800374   -0.987994
     35          1           0        2.125274   -1.759278   -1.561656
     36          1           0        2.224160   -0.063632   -2.066418
     37          1           0       -1.363909    1.863992   -1.147915
     38          1           0       -2.589403    1.251401   -2.035536
 ---------------------------------------------------------------------

 SCF Done:  E(UB3LYP) =  -999.551232638     A.U. after   32 cycles

 The electronic state is 2-A.
 Alpha  occ. eigenvalues --  -88.74335 -19.02562 -14.19024 -10.13543 -10.11754
 Alpha  occ. eigenvalues --  -10.10564 -10.10371 -10.09756 -10.08046 -10.07730
 Alpha  occ. eigenvalues --  -10.07412 -10.06694 -10.06654 -10.06352 -10.05544
 Alpha  occ. eigenvalues --   -7.82972  -5.79346  -5.79021  -5.78342  -0.94103
 Alpha  occ. eigenvalues --   -0.79156  -0.74529  -0.70285  -0.68122  -0.66902
 Alpha  occ. eigenvalues --   -0.66231  -0.60529  -0.57677  -0.54154  -0.53247
 Alpha  occ. eigenvalues --   -0.51926  -0.48899  -0.46738  -0.43836  -0.40805
 Alpha  occ. eigenvalues --   -0.39435  -0.38050  -0.37050  -0.36622  -0.35149
 Alpha  occ. eigenvalues --   -0.34861  -0.34329  -0.33351  -0.32368  -0.31290
 Alpha  occ. eigenvalues --   -0.30742  -0.29900  -0.29295  -0.28207  -0.27915
 Alpha  occ. eigenvalues --   -0.26691  -0.26013  -0.25809  -0.24425  -0.23863
 Alpha  occ. eigenvalues --   -0.23614  -0.22778  -0.21586  -0.21024  -0.19653
 Alpha  occ. eigenvalues --   -0.16216  -0.14162  -0.13147   0.04339
 Alpha virt. eigenvalues --    0.06531   0.06864   0.06982   0.07725   0.08734
 Alpha virt. eigenvalues --    0.09043   0.09193   0.09738   0.10114   0.10729
 Alpha virt. eigenvalues --    0.11076   0.11521   0.12249   0.12485   0.12668

  Beta  occ. eigenvalues --  -88.74333 -19.02554 -14.18991 -10.13545 -10.11738
  Beta  occ. eigenvalues --  -10.10554 -10.10365 -10.09747 -10.08028 -10.07715
  Beta  occ. eigenvalues --  -10.07403 -10.06673 -10.06628 -10.06330 -10.05527
  Beta  occ. eigenvalues --   -7.82969  -5.79345  -5.79019  -5.78338  -0.94088
  Beta  occ. eigenvalues --   -0.79108  -0.74512  -0.70238  -0.68100  -0.66877
  Beta  occ. eigenvalues --   -0.66191  -0.60490  -0.57635  -0.54112  -0.53202
  Beta  occ. eigenvalues --   -0.51896  -0.48833  -0.46701  -0.43791  -0.40756
  Beta  occ. eigenvalues --   -0.39391  -0.38023  -0.37019  -0.36581  -0.35111
  Beta  occ. eigenvalues --   -0.34833  -0.34301  -0.33326  -0.32346  -0.31259
  Beta  occ. eigenvalues --   -0.30718  -0.29866  -0.29263  -0.28173  -0.27875
  Beta  occ. eigenvalues --   -0.26660  -0.25978  -0.25765  -0.24396  -0.23833
  Beta  occ. eigenvalues --   -0.23587  -0.22737  -0.21555  -0.21006  -0.19630
  Beta  occ. eigenvalues --   -0.16191  -0.14129  -0.13130
  Beta virt. eigenvalues --    0.06452   0.07079   0.07382   0.07650   0.08073
  Beta virt. eigenvalues --    0.09143   0.09451   0.09614   0.10142   0.10366
  Beta virt. eigenvalues --    0.10892   0.11320   0.11865   0.12378   0.12797

 Mulliken charges and spin densities:
               1          2
     1  C    0.334723  -0.997374
     2  C   -0.316628  -0.052937
     3  C    1.889532  -2.403863
     4  C   -2.077215   3.082734
     5  C    0.980472  -1.575304
     6  C   -0.407271   0.227880
     7  O   -0.023197   0.045629
     8  C   -0.760660   0.624950
     9  C    0.490285  -1.253646
    10  C   -0.133726  -0.112961
    11  C   -0.163621  -0.460740
    12  S   -0.016514  -0.030142
    13  C   -0.220011  -0.293110
    14  C    0.971032  -1.130227
    15  N   -0.219157   0.001780
    16  H   -0.212550   0.328784
    17  H   -0.111280   0.246903
    18  H    0.158622   0.021817
    19  H   -0.044003   0.160436
    20  H   -0.177278   0.312037
    21  H    0.571959  -0.481589
    22  H   -0.482700   0.721630
    23  H   -0.313738   0.456047
    24  H   -0.029155   0.199154
    25  H    0.035047   0.088706
    26  H   -0.320393   0.514510
    27  H   -0.335402   0.503438
    28  H   -0.268345   0.473046
    29  H   -0.033362   0.171177
    30  H   -0.121274   0.282191
    31  H    0.119963   0.090566
    32  H    0.021297   0.197749
    33  H    0.187081   0.024394
    34  H    0.090744   0.135229
    35  H    0.016086   0.151838
    36  H   -0.053145   0.196792
    37  H   -0.012248   0.263294
    38  H   -0.013968   0.269182
 Sum of Mulliken charges =  -1.00000   1.00000

 Dipole moment (field-independent basis, Debye):
    X=              4.5185    Y=              1.0511    Z=              2.0103  Tot=              5.0560
 Quadrupole moment (field-independent basis, Debye-Ang):
   XX=           -179.5774   YY=           -148.4609   ZZ=           -145.6341
   XY=             -3.5208   XZ=             -1.7204   YZ=              2.7415

 Summary of Natural Population Analysis:

                                       Natural Population
                Natural  -----------------------------------------------
    Atom  No    Charge         Core      Valence    Rydberg      Total
 -----------------------------------------------------------------------
      C    1   -0.28391      0.99966     2.27997    0.00427     3.28391
      C    2   -0.18801      0.99961     2.17983    0.00857     3.18801
      C    3   -0.01367      0.99957     2.00123    0.01287     3.01367
      C    4   -0.11559      0.99956     2.10249    0.01353     3.11559
      C    5   -0.20235      0.99960     2.19355    0.00920     3.20235
      C    6   -0.00833      0.99956     1.99605    0.01272     3.00833
      O    7   -0.31759      0.99987     3.30772    0.01000     4.31759
      C    8    0.14442      0.99949     1.83727    0.01883     2.85558
      C    9   -0.20353      0.99956     2.19072    0.01325     3.20353
      C   10   -0.21630      0.99955     2.20575    0.01100     3.21630
      C   11   -0.24638      0.99959     2.23766    0.00913     3.24638
      S   12    0.07745      4.99964     2.90522    0.01769     7.92255
      C   13   -0.24599      0.99958     2.23752    0.00888     3.24599
      C   14   -0.20151      0.99956     2.18935    0.01260     3.20151
      N   15   -0.42338      0.99977     2.91345    0.01016     3.92338
      H   16    0.09319      0.00000     0.40572    0.00108     0.40681
      H   17    0.09502      0.00000     0.40413    0.00085     0.40498
      H   18    0.10542      0.00000     0.39324    0.00134     0.39458
      H   19    0.09736      0.00000     0.40113    0.00151     0.40264
      H   20    0.09364      0.00000     0.40491    0.00145     0.40636
      H   21    0.08492      0.00000     0.41226    0.00282     0.41508
      H   22    0.10199      0.00000     0.39548    0.00253     0.39801
      H   23    0.10348      0.00000     0.39492    0.00160     0.39652
      H   24    0.10134      0.00000     0.39728    0.00137     0.39866
      H   25    0.07518      0.00000     0.42323    0.00159     0.42482
      H   26    0.09258      0.00000     0.40626    0.00117     0.40742
      H   27    0.10527      0.00000     0.39302    0.00171     0.39473
      H   28    0.10617      0.00000     0.39169    0.00214     0.39383
      H   29    0.10490      0.00000     0.39307    0.00203     0.39510
      H   30    0.10394      0.00000     0.39413    0.00193     0.39606
      H   31    0.10372      0.00000     0.39450    0.00178     0.39628
      H   32    0.10602      0.00000     0.39300    0.00098     0.39398
      H   33    0.10618      0.00000     0.39218    0.00164     0.39382
      H   34    0.10464      0.00000     0.39443    0.00092     0.39536
      H   35    0.10612      0.00000     0.39242    0.00146     0.39388
      H   36    0.10329      0.00000     0.39513    0.00158     0.39671
      H   37    0.17635      0.00000     0.32150    0.00215     0.32365
      H   38    0.17393      0.00000     0.32381    0.00227     0.32607
 =======================================================================
   * Total *    0.00000     18.99417    43.79523    0.21060    63.00000

 Normal termination of Gaussian 16 at Thu Dec 10 18:24:52 2020.
