 Gaussian 16, Revision A.03,

 -----------------------------------------------------------
 # opt freq B3LYP/6-31G(d) empiricaldispersion=gd3bj scf=xqc
 -----------------------------------------------------------

 ------------------------------
 CID_70421784_JID_6676_neutraal
 ------------------------------
 Symbolic Z-matrix:
 Charge =  0 Multiplicity = 1

 SCF Done:  E(RB3LYP) =  -741.705355167     A.U. after   14 cycles
 SCF Done:  E(RB3LYP) =  -741.710282177     A.U. after   12 cycles
 SCF Done:  E(RB3LYP) =  -741.711475109     A.U. after   11 cycles
 SCF Done:  E(RB3LYP) =  -741.712899313     A.U. after   12 cycles
 SCF Done:  E(RB3LYP) =  -741.713700213     A.U. after   11 cycles
 SCF Done:  E(RB3LYP) =  -741.714695459     A.U. after   11 cycles
 SCF Done:  E(RB3LYP) =  -741.715041678     A.U. after   11 cycles
 SCF Done:  E(RB3LYP) =  -741.715363492     A.U. after   11 cycles
 SCF Done:  E(RB3LYP) =  -741.715639705     A.U. after   11 cycles
 SCF Done:  E(RB3LYP) =  -741.715965006     A.U. after   11 cycles
 SCF Done:  E(RB3LYP) =  -741.718980405     A.U. after    8 cycles
 SCF Done:  E(RB3LYP) =  -741.718980821     A.U. after    8 cycles
 SCF Done:  E(RB3LYP) =  -741.718981175     A.U. after    9 cycles
 SCF Done:  E(RB3LYP) =  -741.718981409     A.U. after    8 cycles
 SCF Done:  E(RB3LYP) =  -741.718981567     A.U. after    8 cycles
 Optimization completed.
    -- Stationary point found.
 Normal termination of Gaussian 16 at Fri Dec 11 00:23:18 2020.

 --------------------------------------------------------------------
 #N Geom=AllCheck Guess=TCheck SCRF=Check GenChk RB3LYP/6-31G(d) Freq
 --------------------------------------------------------------------

 Structure from the checkpoint file:  "JID_6676.chk"
 ------------------------------
 CID_70421784_JID_6676_neutraal
 ------------------------------
 Charge =  0 Multiplicity = 1

 SCF Done:  E(RB3LYP) =  -741.718981567     A.U. after    1 cycles

  Exact polarizability: 243.747   2.985 139.633   0.099   7.601  69.313
 Approx polarizability: 330.912   3.880 239.481   2.569  22.698 106.414

                      1                      2                      3
                      A                      A                      A
 Frequencies --     22.6157                54.6283                85.2742
 Red. masses --      4.6603                 3.7172                 3.6318
 Frc consts  --      0.0014                 0.0065                 0.0156
 IR Inten    --      4.1200                 0.3449                 3.3491

                      4                      5                      6
                      A                      A                      A
 Frequencies --     94.3541               110.2374               129.8903
 Red. masses --      2.4625                 3.4164                 2.5957
 Frc consts  --      0.0129                 0.0245                 0.0258
 IR Inten    --      3.2305                 2.6541                 6.7646

                      7                      8                      9
                      A                      A                      A
 Frequencies --    142.7191               161.5200               164.3640
 Red. masses --      1.1815                 1.3417                 1.2088
 Frc consts  --      0.0142                 0.0206                 0.0192
 IR Inten    --     37.0252                 3.5350                 0.2965

                     10                     11                     12
                      A                      A                      A
 Frequencies --    197.6274               234.9540               281.1875
 Red. masses --      2.4399                 4.1690                 5.1182
 Frc consts  --      0.0561                 0.1356                 0.2384
 IR Inten    --      8.2681                 1.9875                 5.9538

                     13                     14                     15
                      A                      A                      A
 Frequencies --    284.4651               306.1412               340.8682
 Red. masses --      7.0788                 5.3716                 4.8409
 Frc consts  --      0.3375                 0.2966                 0.3314
 IR Inten    --      1.5133                 3.0083                 5.6865

                     16                     17                     18
                      A                      A                      A
 Frequencies --    371.6069               426.7251               430.6698
 Red. masses --      4.8505                 4.0642                 4.8192
 Frc consts  --      0.3946                 0.4360                 0.5266
 IR Inten    --      2.1112                10.5336                 1.5906

                     19                     20                     21
                      A                      A                      A
 Frequencies --    496.6505               499.7794               536.9926
 Red. masses --      1.4651                 3.9101                 2.8008
 Frc consts  --      0.2129                 0.5754                 0.4759
 IR Inten    --     70.4809                 1.8008                17.2587

                     22                     23                     24
                      A                      A                      A
 Frequencies --    598.6201               635.1408               649.9756
 Red. masses --      5.2468                 3.9668                 4.1518
 Frc consts  --      1.1078                 0.9428                 1.0334
 IR Inten    --      6.8893                21.8732                 5.9287

                     25                     26                     27
                      A                      A                      A
 Frequencies --    657.0267               715.3526               736.1061
 Red. masses --      5.6290                 6.1179                 5.2475
 Frc consts  --      1.4317                 1.8446                 1.6753
 IR Inten    --     31.5807                 6.9747                 3.2985

                     28                     29                     30
                      A                      A                      A
 Frequencies --    752.0675               769.3461               805.0518
 Red. masses --      4.0637                 4.2989                 1.2637
 Frc consts  --      1.3542                 1.4992                 0.4825
 IR Inten    --      0.1441                22.3278                29.7354

                     31                     32                     33
                      A                      A                      A
 Frequencies --    829.1371               864.0747               867.6541
 Red. masses --      1.4011                 1.5469                 1.7266
 Frc consts  --      0.5675                 0.6805                 0.7658
 IR Inten    --    189.7410                13.6995                 9.8833

                     34                     35                     36
                      A                      A                      A
 Frequencies --    884.2750               973.2456               987.5010
 Red. masses --      4.5571                 1.2915                 5.0078
 Frc consts  --      2.0995                 0.7208                 2.8772
 IR Inten    --     21.1620                 0.5049                23.1903

                     37                     38                     39
                      A                      A                      A
 Frequencies --   1044.9231              1054.2553              1058.7547
 Red. masses --      7.5765                 4.5949                 3.3671
 Frc consts  --      4.8740                 3.0090                 2.2238
 IR Inten    --     87.1967                65.2032                39.7597

                     40                     41                     42
                      A                      A                      A
 Frequencies --   1096.0237              1141.3366              1162.7538
 Red. masses --      2.5837                 1.6735                 1.4291
 Frc consts  --      1.8286                 1.2844                 1.1384
 IR Inten    --      6.6088                33.7359                19.8729

                     43                     44                     45
                      A                      A                      A
 Frequencies --   1188.0772              1188.8801              1200.7819
 Red. masses --      1.2505                 1.2545                 1.7202
 Frc consts  --      1.0400                 1.0447                 1.4614
 IR Inten    --      1.7566                15.1463                21.7528

                     46                     47                     48
                      A                      A                      A
 Frequencies --   1207.6473              1219.5516              1241.5884
 Red. masses --      1.8390                 1.3944                 1.8430
 Frc consts  --      1.5802                 1.2219                 1.6739
 IR Inten    --      7.5554                 6.8753                31.8132

                     49                     50                     51
                      A                      A                      A
 Frequencies --   1273.0848              1290.7384              1302.1354
 Red. masses --      1.9436                 1.5195                 3.0503
 Frc consts  --      1.8560                 1.4915                 3.0472
 IR Inten    --     77.4787                 2.5641               122.7338

                     52                     53                     54
                      A                      A                      A
 Frequencies --   1327.7400              1342.8455              1422.1294
 Red. masses --      3.2771                 9.5059                 4.1955
 Frc consts  --      3.4038                10.0994                 4.9993
 IR Inten    --     17.5178                85.4859                 5.6419

                     55                     56                     57
                      A                      A                      A
 Frequencies --   1447.0860              1466.1543              1484.8520
 Red. masses --      4.4724                 2.8354                 1.2488
 Frc consts  --      5.5179                 3.5911                 1.6223
 IR Inten    --      1.1417                45.2650                24.6476

                     58                     59                     60
                      A                      A                      A
 Frequencies --   1503.2007              1514.4986              1514.7754
 Red. masses --      1.3542                 1.0580                 1.0942
 Frc consts  --      1.8029                 1.4298                 1.4793
 IR Inten    --      0.7303                 6.4632                13.5156

                     61                     62                     63
                      A                      A                      A
 Frequencies --   1533.1450              1541.0590              1546.8740
 Red. masses --      3.2507                 1.0613                 1.0540
 Frc consts  --      4.5019                 1.4850                 1.4860
 IR Inten    --     76.0360                 4.3409                14.8356

                     64                     65                     66
                      A                      A                      A
 Frequencies --   1570.4978              1621.9117              1637.6712
 Red. masses --      4.2534                 6.4647                 4.0039
 Frc consts  --      6.1810                10.0197                 6.3269
 IR Inten    --    199.2358                32.0890                74.5235

                     67                     68                     69
                      A                      A                      A
 Frequencies --   1671.3431              1692.0058              3039.9568
 Red. masses --      5.4988                 1.2175                 1.0361
 Frc consts  --      9.0501                 2.0536                 5.6414
 IR Inten    --     10.5371                57.5402                93.7216

                     70                     71                     72
                      A                      A                      A
 Frequencies --   3041.1142              3115.4771              3117.3500
 Red. masses --      1.0358                 1.1004                 1.0991
 Frc consts  --      5.6439                 6.2928                 6.2928
 IR Inten    --     45.8126                20.5716                36.4316

                     73                     74                     75
                      A                      A                      A
 Frequencies --   3155.9016              3156.7536              3195.9897
 Red. masses --      1.1054                 1.1059                 1.0896
 Frc consts  --      6.4866                 6.4932                 6.5574
 IR Inten    --     31.8850                25.3696                12.9656

                     76                     77                     78
                      A                      A                      A
 Frequencies --   3208.6622              3234.7935              3254.2785
 Red. masses --      1.0896                 1.0930                 1.0966
 Frc consts  --      6.6094                 6.7388                 6.8424
 IR Inten    --      7.7886                 1.4230                21.6616

                     79                     80                     81
                      A                      A                      A
 Frequencies --   3472.7890              3587.0887              3656.7759
 Red. masses --      1.0549                 1.0878                 1.0799
 Frc consts  --      7.4958                 8.2464                 8.5079
 IR Inten    --      2.0266                17.6205                31.9251

 - Thermochemistry -
 -------------------
 Temperature   298.150 Kelvin.  Pressure   1.00000 Atm.
 Atom     1 has atomic number  6 and mass  12.00000

 Molecular mass:   219.10078 amu.
 Principal axes and moments of inertia in atomic units:
                           1         2         3
     Eigenvalues --  1346.159087207.397648256.37585
           X            1.00000   0.00005  -0.00055
           Y           -0.00005   0.99990  -0.01422
           Z            0.00055   0.01422   0.99990
 This molecule is an asymmetric top.
 Rotational symmetry number  1.
 Warning -- assumption of classical behavior for rotation
           may cause significant error
 Rotational temperatures (Kelvin)      0.06434     0.01202     0.01049
 Rotational constants (GHZ):           1.34066     0.25040     0.21859
 Zero-point vibrational energy     615138.3 (Joules/Mol)
                                  147.02159 (Kcal/Mol)
 Warning -- explicit consideration of  22 degrees of freedom as
           vibrations may cause significant error
 Vibrational temperatures:     32.54    78.60   122.69   135.75   158.61
          (Kelvin)            186.88   205.34   232.39   236.48   284.34
                              338.05   404.57   409.28   440.47   490.43
                              534.66   613.96   619.64   714.57   719.07
                              772.61   861.28   913.83   935.17   945.31
                             1029.23  1059.09  1082.06  1106.92  1158.29
                             1192.94  1243.21  1248.36  1272.27  1400.28
                             1420.79  1503.41  1516.84  1523.31  1576.93
                             1642.13  1672.94  1709.38  1710.53  1727.66
                             1737.54  1754.66  1786.37  1831.69  1857.08
                             1873.48  1910.32  1932.06  2046.13  2082.03
                             2109.47  2136.37  2162.77  2179.03  2179.42
                             2205.85  2217.24  2225.61  2259.60  2333.57
                             2356.24  2404.69  2434.42  4373.82  4375.48
                             4482.48  4485.17  4540.64  4541.86  4598.32
                             4616.55  4654.15  4682.18  4996.57  5161.02
                             5261.28

 Zero-point correction=                           0.234294 (Hartree/Particle)
 Thermal correction to Energy=                    0.249673
 Thermal correction to Enthalpy=                  0.250618
 Thermal correction to Gibbs Free Energy=         0.190707
 Sum of electronic and zero-point Energies=           -741.484688
 Sum of electronic and thermal Energies=              -741.469308
 Sum of electronic and thermal Enthalpies=            -741.468364
 Sum of electronic and thermal Free Energies=         -741.528274

                     E (Thermal)             CV                S
                      KCal/Mol        Cal/Mol-Kelvin    Cal/Mol-Kelvin
 Total                  156.672             56.851            126.091
 Electronic               0.000              0.000              0.000
 Translational            0.889              2.981             42.056
 Rotational               0.889              2.981             32.749
 Vibrational            154.895             50.890             51.287
 Vibration     1          0.593              1.985              6.390
 Vibration     2          0.596              1.976              4.642
 Vibration     3          0.601              1.959              3.766
 Vibration     4          0.603              1.953              3.568
 Vibration     5          0.606              1.941              3.265
 Vibration     6          0.612              1.923              2.948
 Vibration     7          0.616              1.910              2.767
 Vibration     8          0.622              1.890              2.532
 Vibration     9          0.623              1.886              2.499
 Vibration    10          0.637              1.843              2.155
 Vibration    11          0.655              1.787              1.841
 Vibration    12          0.681              1.708              1.526
 Vibration    13          0.683              1.702              1.507
 Vibration    14          0.697              1.662              1.383
 Vibration    15          0.720              1.594              1.208
 Vibration    16          0.743              1.530              1.073
 Vibration    17          0.788              1.412              0.869
 Vibration    18          0.792              1.403              0.856
 Vibration    19          0.852              1.257              0.667
 Vibration    20          0.855              1.251              0.659
 Vibration    21          0.892              1.168              0.572
 Vibration    22          0.957              1.035              0.452

                           ! Non-Optimized Parameters !
 Normal termination of Gaussian 16 at Fri Dec 11 00:31:15 2020.

 ----------------------------------------------------------------------
 # B3LYP/6-311++G(d,p) empiricaldispersion=gd3bj scf=xqc pop=npa geom=c
 heck
 ----------------------------------------------------------------------

 --------------------------------------
 CID_70421784_JID_6676_Energie_neutraal
 --------------------------------------
 Structure from the checkpoint file:  "JID_6676.chk"
 Charge =  0 Multiplicity = 1

 SCF Done:  E(RB3LYP) =  -741.930239679     A.U. after   15 cycles
 Normal termination of Gaussian 16 at Fri Dec 11 00:34:22 2020.

 ----------------------------------------------------------------------
 # B3LYP/6-311++G(d,p) empiricaldispersion=gd3bj scf=xqc pop=npa geom=c
 heck
 ----------------------------------------------------------------------

 ------------------------------------
 CID_70421784_JID_6676_Energie_kation
 ------------------------------------
 Structure from the checkpoint file:  "JID_6676.chk"
 Charge =  1 Multiplicity = 2

 SCF Done:  E(UB3LYP) =  -741.668548479     A.U. after   20 cycles
 Normal termination of Gaussian 16 at Fri Dec 11 00:39:59 2020.
 Gaussian 16:  ES64L-G16RevA.03 25-Dec-2016

 ----------------------------------------------------------------------
 # B3LYP/6-311++G(d,p) empiricaldispersion=gd3bj scf=xqc pop=npa geom=c
 heck
 ----------------------------------------------------------------------

 -----------------------------------
 CID_70421784_JID_6676_Energie_anion
 -----------------------------------
 Structure from the checkpoint file:  "JID_6676.chk"
 Charge = -1 Multiplicity = 2

                         Standard orientation:
 ---------------------------------------------------------------------
 Center     Atomic      Atomic             Coordinates (Angstroms)
 Number     Number       Type             X           Y           Z
 ---------------------------------------------------------------------
      1          6           0       -4.337435   -0.567826    1.060021
      2          8           0       -3.679369   -0.799610   -0.190179
      3          6           0       -2.309199   -0.672152   -0.142434
      4          6           0       -1.690145    0.572527    0.066540
      5          6           0       -0.301306    0.658167    0.102036
      6          6           0        0.499738   -0.478568   -0.083240
      7          6           0       -0.127759   -1.712532   -0.319270
      8          6           0       -1.514262   -1.802313   -0.342410
      9          6           0        1.958167   -0.417171   -0.051228
     10          7           0        2.775477   -1.452366   -0.173438
     11          6           0        4.050714   -0.953037   -0.062436
     12          6           0        4.021292    0.412855    0.120458
     13          7           0        2.681036    0.742153    0.126731
     14          7           0        4.997407    1.420167    0.229182
     15          8           0       -2.423701    1.719879    0.277736
     16          6           0       -3.178033    2.154227   -0.859150
     17          1           0       -5.403778   -0.711957    0.873242
     18          1           0       -4.155489    0.448745    1.422327
     19          1           0       -3.996565   -1.290338    1.812411
     20          1           0        0.124428    1.640824    0.282423
     21          1           0        0.492687   -2.588450   -0.469926
     22          1           0       -2.011508   -2.752396   -0.511534
     23          1           0        4.919785   -1.594997   -0.118719
     24          1           0        2.331363    1.688428    0.147032
     25          1           0        5.133863    1.728151    1.190989
     26          1           0        5.891356    1.093113   -0.123381
     27          1           0       -2.509391    2.377719   -1.700337
     28          1           0       -3.907032    1.397773   -1.164793
     29          1           0       -3.693225    3.066506   -0.550834
 ---------------------------------------------------------------------

 SCF Done:  E(UB3LYP) =  -741.923574492     A.U. after   33 cycles
 SCF Done:  E(UB3LYP) =  -741.923574492     a.u. after    1 cycles

 The electronic state is 2-A.
 Alpha  occ. eigenvalues --  -19.04878 -19.04449 -14.24919 -14.21050 -14.17568
 Alpha  occ. eigenvalues --  -10.12758 -10.12530 -10.12281 -10.11950 -10.11463
 Alpha  occ. eigenvalues --  -10.11246 -10.07328 -10.06955 -10.06848 -10.06778
 Alpha  occ. eigenvalues --  -10.06234  -0.97064  -0.94952  -0.90670  -0.79936
 Alpha  occ. eigenvalues --   -0.75238  -0.75091  -0.66861  -0.65423  -0.61673
 Alpha  occ. eigenvalues --   -0.59988  -0.57630  -0.52048  -0.50936  -0.49429
 Alpha  occ. eigenvalues --   -0.47508  -0.44609  -0.42056  -0.40295  -0.39924
 Alpha  occ. eigenvalues --   -0.38584  -0.37652  -0.36462  -0.35815  -0.34399
 Alpha  occ. eigenvalues --   -0.34209  -0.33436  -0.32954  -0.32280  -0.30821
 Alpha  occ. eigenvalues --   -0.28673  -0.27465  -0.26602  -0.25380  -0.24456
 Alpha  occ. eigenvalues --   -0.21307  -0.20163  -0.17703  -0.17307  -0.16020
 Alpha  occ. eigenvalues --   -0.15157  -0.14131  -0.08821   0.04130
 Alpha virt. eigenvalues --    0.05465   0.06662   0.07244   0.08515   0.08781
 Alpha virt. eigenvalues --    0.08940   0.09262   0.10002   0.10264   0.10668
 Alpha virt. eigenvalues --    0.11946   0.12059   0.12284   0.13316   0.14174

  Beta  occ. eigenvalues --  -19.04882 -19.04452 -14.24866 -14.20971 -14.17472
  Beta  occ. eigenvalues --  -10.12741 -10.12556 -10.12234 -10.11891 -10.11295
  Beta  occ. eigenvalues --  -10.11222 -10.07202 -10.06904 -10.06848 -10.06797
  Beta  occ. eigenvalues --  -10.06204  -0.97035  -0.94918  -0.90569  -0.79793
  Beta  occ. eigenvalues --   -0.75092  -0.74939  -0.66642  -0.65338  -0.61553
  Beta  occ. eigenvalues --   -0.59920  -0.57530  -0.51892  -0.50840  -0.49356
  Beta  occ. eigenvalues --   -0.47415  -0.44530  -0.41974  -0.40188  -0.39854
  Beta  occ. eigenvalues --   -0.38487  -0.37564  -0.36387  -0.35728  -0.34359
  Beta  occ. eigenvalues --   -0.34145  -0.33379  -0.32884  -0.32010  -0.30777
  Beta  occ. eigenvalues --   -0.28553  -0.27411  -0.26415  -0.25321  -0.24261
  Beta  occ. eigenvalues --   -0.21168  -0.20006  -0.17626  -0.16966  -0.15805
  Beta  occ. eigenvalues --   -0.14788  -0.13801  -0.08419
  Beta virt. eigenvalues --    0.06084   0.07098   0.07454   0.07800   0.08715
  Beta virt. eigenvalues --    0.08885   0.09163   0.09586   0.10248   0.10427
  Beta virt. eigenvalues --    0.11133   0.11911   0.12118   0.12292   0.13267

 Mulliken charges and spin densities:
               1          2
     1  C    0.173128  -0.422214
     2  O   -0.197527   0.025820
     3  C   -0.271124   0.016761
     4  C   -0.547571   0.121021
     5  C   -0.506592   0.000508
     6  C    0.974703   0.074791
     7  C   -0.473613   0.088030
     8  C   -0.195503  -0.016957
     9  C    0.219144  -0.361169
    10  N   -0.138932   0.072088
    11  C    0.444824  -0.373809
    12  C    0.483133  -0.502368
    13  N   -0.157318  -0.005297
    14  N   -0.501283   0.126916
    15  O   -0.169883   0.012435
    16  C    0.011291  -0.271085
    17  H   -0.180433   0.326073
    18  H    0.112848   0.058700
    19  H    0.034163   0.080833
    20  H    0.085905   0.021542
    21  H    0.179973  -0.003565
    22  H    0.146555   0.016433
    23  H   -0.056597   0.203945
    24  H    0.212407   0.065292
    25  H   -0.505601   0.777245
    26  H   -0.295732   0.550838
    27  H    0.034328   0.084919
    28  H    0.039780   0.138746
    29  H    0.045528   0.093529
 Sum of Mulliken charges =  -1.00000   1.00000

 Dipole moment (field-independent basis, Debye):
    X=             -7.3644    Y=             -0.5166    Z=             -1.3504  Tot=              7.5050
 Quadrupole moment (field-independent basis, Debye-Ang):
   XX=           -211.0397   YY=           -120.7444   ZZ=           -114.8618
   XY=            -14.1173   XZ=             -8.1469   YZ=             -5.5878

 Summary of Natural Population Analysis:

                                       Natural Population
                Natural  -----------------------------------------------
    Atom  No    Charge         Core      Valence    Rydberg      Total
 -----------------------------------------------------------------------
      C    1   -0.09808      0.99959     2.08931    0.00918     3.09808
      O    2   -0.29475      0.99987     3.28417    0.01071     4.29475
      C    3    0.14892      0.99931     1.83798    0.01378     2.85108
      C    4    0.12551      0.99932     1.86194    0.01323     2.87449
      C    5   -0.10280      0.99950     2.09458    0.00872     3.10280
      C    6   -0.02611      0.99949     2.01774    0.00888     3.02611
      C    7   -0.08167      0.99955     2.07473    0.00738     3.08167
      C    8   -0.11616      0.99953     2.10793    0.00869     3.11616
      C    9    0.17874      0.99959     1.80502    0.01665     2.82126
      N   10   -0.24131      0.99970     2.73287    0.00874     3.74131
      C   11   -0.06395      0.99952     2.04887    0.01556     3.06395
      C   12    0.15506      0.99952     1.83069    0.01473     2.84494
      N   13   -0.27121      0.99963     2.76324    0.00834     3.77121
      N   14   -0.41738      0.99973     2.90687    0.01078     3.91738
      O   15   -0.29377      0.99987     3.28409    0.00981     4.29377
      C   16   -0.10122      0.99959     2.09238    0.00924     3.10122
      H   17    0.08776      0.00000     0.41073    0.00151     0.41224
      H   18    0.08833      0.00000     0.41022    0.00145     0.41167
      H   19    0.08115      0.00000     0.41778    0.00106     0.41885
      H   20    0.09741      0.00000     0.40120    0.00138     0.40259
      H   21    0.11090      0.00000     0.38824    0.00087     0.38910
      H   22    0.10180      0.00000     0.39715    0.00105     0.39820
      H   23    0.09391      0.00000     0.40488    0.00121     0.40609
      H   24    0.20221      0.00000     0.29592    0.00187     0.29779
      H   25    0.18926      0.00000     0.29744    0.01330     0.31074
      H   26    0.18786      0.00000     0.30876    0.00338     0.31214
      H   27    0.08197      0.00000     0.41702    0.00101     0.41803
      H   28    0.09101      0.00000     0.40742    0.00157     0.40899
      H   29    0.08657      0.00000     0.41249    0.00094     0.41343
 =======================================================================
   * Total *   -0.00000     15.99331    41.80167    0.20501    58.00000

 Normal termination of Gaussian 16 at Fri Dec 11 00:49:17 2020.
