 Gaussian 16, Revision A.03,

 -----------------------------------------------------------
 # opt freq B3LYP/6-31G(d) empiricaldispersion=gd3bj scf=xqc
 -----------------------------------------------------------

 ------------------------------
 CID_59940046_JID_6249_neutraal
 ------------------------------
 Symbolic Z-matrix:
 Charge =  0 Multiplicity = 1

 SCF Done:  E(RB3LYP) =  -657.676443734     A.U. after   14 cycles
 SCF Done:  E(RB3LYP) =  -657.679779635     A.U. after   12 cycles
 SCF Done:  E(RB3LYP) =  -657.681408369     A.U. after   13 cycles
 SCF Done:  E(RB3LYP) =  -657.682009772     A.U. after   12 cycles
 SCF Done:  E(RB3LYP) =  -657.682107181     A.U. after   11 cycles
 SCF Done:  E(RB3LYP) =  -657.682120257     A.U. after    9 cycles
 SCF Done:  E(RB3LYP) =  -657.682123472     A.U. after    9 cycles
 SCF Done:  E(RB3LYP) =  -657.682127605     A.U. after    9 cycles
 SCF Done:  E(RB3LYP) =  -657.682129239     A.U. after    8 cycles
 SCF Done:  E(RB3LYP) =  -657.682129549     A.U. after    7 cycles
 SCF Done:  E(RB3LYP) =  -657.682129661     A.U. after    7 cycles
 SCF Done:  E(RB3LYP) =  -657.682129695     A.U. after    7 cycles
 Optimization completed.
    -- Stationary point found.
 Normal termination of Gaussian 16 at Thu Dec 10 21:45:55 2020.

 --------------------------------------------------------------------
 #N Geom=AllCheck Guess=TCheck SCRF=Check GenChk RB3LYP/6-31G(d) Freq
 --------------------------------------------------------------------

 Structure from the checkpoint file:  "JID_6249.chk"
 ------------------------------
 CID_59940046_JID_6249_neutraal
 ------------------------------
 Charge =  0 Multiplicity = 1

 SCF Done:  E(RB3LYP) =  -657.682129695     A.U. after    1 cycles

  Exact polarizability: 342.181  13.794 162.700  13.266   0.528  90.838
 Approx polarizability: 461.177  34.182 273.720  23.027   4.535 140.476

                      1                      2                      3
                      A                      A                      A
 Frequencies --     28.5835                38.0974                50.2034
 Red. masses --      3.3092                 3.9973                 4.1336
 Frc consts  --      0.0016                 0.0034                 0.0061
 IR Inten    --      0.0454                 0.0820                 0.1662

                      4                      5                      6
                      A                      A                      A
 Frequencies --     69.7352               110.0016               112.4138
 Red. masses --      3.0657                 1.5519                 1.7155
 Frc consts  --      0.0088                 0.0111                 0.0128
 IR Inten    --      0.5707                 0.7645                 0.0861

                      7                      8                      9
                      A                      A                      A
 Frequencies --    128.1889               136.1773               159.4598
 Red. masses --      1.4282                 1.6757                 1.1642
 Frc consts  --      0.0138                 0.0183                 0.0174
 IR Inten    --      0.3043                 0.5867                 0.8116

                     10                     11                     12
                      A                      A                      A
 Frequencies --    185.5211               232.6956               236.7867
 Red. masses --      2.6674                 4.2689                 3.7413
 Frc consts  --      0.0541                 0.1362                 0.1236
 IR Inten    --      0.1875                 1.4523                 0.9838

                     13                     14                     15
                      A                      A                      A
 Frequencies --    244.9441               270.4733               327.4094
 Red. masses --      2.8221                 3.0627                 2.9188
 Frc consts  --      0.0998                 0.1320                 0.1844
 IR Inten    --      0.4928                 2.6385                 0.9897

                     16                     17                     18
                      A                      A                      A
 Frequencies --    338.7012               356.0431               364.6651
 Red. masses --      3.0616                 3.7245                 1.1107
 Frc consts  --      0.2069                 0.2782                 0.0870
 IR Inten    --      0.2615                 2.0768               115.0234

                     19                     20                     21
                      A                      A                      A
 Frequencies --    414.6410               436.5073               474.0586
 Red. masses --      3.7739                 3.4412                 3.3765
 Frc consts  --      0.3823                 0.3863                 0.4471
 IR Inten    --      4.2497                10.6397                 0.9203

                     22                     23                     24
                      A                      A                      A
 Frequencies --    487.4152               509.7958               529.8775
 Red. masses --      3.2041                 3.4509                 2.8547
 Frc consts  --      0.4485                 0.5284                 0.4722
 IR Inten    --      6.4983                 2.1511                 4.0698

                     25                     26                     27
                      A                      A                      A
 Frequencies --    546.5458               617.2966               636.8738
 Red. masses --      5.5547                 3.3652                 4.0197
 Frc consts  --      0.9776                 0.7555                 0.9606
 IR Inten    --      0.6440                 0.8121                 2.3932

                     28                     29                     30
                      A                      A                      A
 Frequencies --    641.0942               705.3817               748.0384
 Red. masses --      3.9027                 2.2041                 4.5290
 Frc consts  --      0.9450                 0.6462                 1.4931
 IR Inten    --      2.2305                 7.1874                10.2273

                     31                     32                     33
                      A                      A                      A
 Frequencies --    794.3497               819.4535               839.8725
 Red. masses --      1.4152                 2.4926                 1.4629
 Frc consts  --      0.5261                 0.9862                 0.6080
 IR Inten    --     30.4345                 1.6138                12.4336

                     34                     35                     36
                      A                      A                      A
 Frequencies --    853.9977               884.6345               893.1252
 Red. masses --      1.6040                 1.3906                 1.6199
 Frc consts  --      0.6892                 0.6412                 0.7613
 IR Inten    --     17.5007                 0.9010                 7.8634

                     37                     38                     39
                      A                      A                      A
 Frequencies --    909.0211               934.9992               967.8459
 Red. masses --      3.5276                 1.6286                 1.2581
 Frc consts  --      1.7174                 0.8388                 0.6943
 IR Inten    --     12.7517                 0.4531                 0.4139

                     40                     41                     42
                      A                      A                      A
 Frequencies --    994.0610              1012.1800              1014.7742
 Red. masses --      1.4199                 1.2905                 2.3345
 Frc consts  --      0.8267                 0.7790                 1.4164
 IR Inten    --     16.5200                13.1671                12.9149

                     43                     44                     45
                      A                      A                      A
 Frequencies --   1018.8445              1030.7323              1070.4354
 Red. masses --      3.4495                 1.6505                 1.4952
 Frc consts  --      2.1097                 1.0331                 1.0094
 IR Inten    --      4.1816                26.6265                 6.5095

                     46                     47                     48
                      A                      A                      A
 Frequencies --   1070.6283              1078.6198              1095.6964
 Red. masses --      1.4804                 1.4735                 1.7290
 Frc consts  --      0.9998                 1.0100                 1.2230
 IR Inten    --      5.0779                 1.0001                 5.1511

                     49                     50                     51
                      A                      A                      A
 Frequencies --   1123.1338              1138.7833              1200.6807
 Red. masses --      1.5449                 2.6193                 1.3564
 Frc consts  --      1.1482                 2.0013                 1.1521
 IR Inten    --      7.2886                 1.0777                44.8007

                     52                     53                     54
                      A                      A                      A
 Frequencies --   1203.6103              1220.6390              1247.5207
 Red. masses --      1.9518                 1.4060                 1.6898
 Frc consts  --      1.6659                 1.2343                 1.5494
 IR Inten    --     12.8010               150.0487                 3.5901

                     55                     56                     57
                      A                      A                      A
 Frequencies --   1256.1825              1305.1855              1343.1939
 Red. masses --      2.4548                 1.7607                 2.2502
 Frc consts  --      2.2823                 1.7672                 2.3919
 IR Inten    --     11.3298                33.4526                39.0516

                     58                     59                     60
                      A                      A                      A
 Frequencies --   1348.1670              1362.7367              1369.6471
 Red. masses --      1.5684                 1.8187                 2.1544
 Frc consts  --      1.6796                 1.9899                 2.3812
 IR Inten    --      0.2622                 1.0564                 3.6734

                     61                     62                     63
                      A                      A                      A
 Frequencies --   1389.6929              1412.1912              1440.3965
 Red. masses --      1.5929                 1.5169                 1.3844
 Frc consts  --      1.8125                 1.7824                 1.6923
 IR Inten    --      1.0460                 3.1012                11.9940

                     64                     65                     66
                      A                      A                      A
 Frequencies --   1444.1692              1449.5457              1498.8890
 Red. masses --      1.3063                 1.2216                 2.8722
 Frc consts  --      1.6052                 1.5123                 3.8019
 IR Inten    --      2.0775                 1.0106                95.8823

                     67                     68                     69
                      A                      A                      A
 Frequencies --   1510.4370              1512.7166              1516.0788
 Red. masses --      1.0464                 1.0483                 1.0678
 Frc consts  --      1.4066                 1.4134                 1.4461
 IR Inten    --      1.4982                 6.8746                 4.7360

                     70                     71                     72
                      A                      A                      A
 Frequencies --   1519.4401              1524.4123              1528.0848
 Red. masses --      1.0469                 1.0915                 1.0855
 Frc consts  --      1.4241                 1.4945                 1.4934
 IR Inten    --      8.0507                12.0596                 2.7674

                     73                     74                     75
                      A                      A                      A
 Frequencies --   1554.3102              1648.5618              1659.5881
 Red. masses --      2.3755                 5.2836                 5.5899
 Frc consts  --      3.3812                 8.4604                 9.0710
 IR Inten    --     14.4858                52.4380                93.8706

                     76                     77                     78
                      A                      A                      A
 Frequencies --   1666.2993              1684.9801              1728.6509
 Red. masses --      6.0590                 5.1305                 5.4927
 Frc consts  --      9.9119                 8.5822                 9.6706
 IR Inten    --      7.5856                 7.5527                14.8368

                     79                     80                     81
                      A                      A                      A
 Frequencies --   3029.1211              3040.3630              3042.0060
 Red. masses --      1.0414                 1.0415                 1.0462
 Frc consts  --      5.6302                 5.6725                 5.7042
 IR Inten    --     59.0381                32.5190                23.4841

                     82                     83                     84
                      A                      A                      A
 Frequencies --   3067.9363              3084.5360              3097.4578
 Red. masses --      1.0994                 1.1001                 1.0937
 Frc consts  --      6.0969                 6.1670                 6.1823
 IR Inten    --     24.7733                22.9983                19.6221

                     85                     86                     87
                      A                      A                      A
 Frequencies --   3129.9879              3134.8737              3152.2564
 Red. masses --      1.0876                 1.0948                 1.0932
 Frc consts  --      6.2780                 6.3391                 6.4003
 IR Inten    --     15.0980                14.6109                28.9921

                     88                     89                     90
                      A                      A                      A
 Frequencies --   3153.3247              3159.4675              3160.3713
 Red. masses --      1.0962                 1.0901                 1.0877
 Frc consts  --      6.4220                 6.4113                 6.4006
 IR Inten    --      1.8488                46.2161                16.3659

                     91                     92                     93
                      A                      A                      A
 Frequencies --   3179.5923              3190.8440              3190.9642
 Red. masses --      1.0885                 1.0874                 1.0867
 Frc consts  --      6.4838                 6.5233                 6.5193
 IR Inten    --     13.2946                23.0656                25.3042

                     94                     95                     96
                      A                      A                      A
 Frequencies --   3219.1719              3224.2595              3750.0731
 Red. masses --      1.0906                 1.0946                 1.0658
 Frc consts  --      6.6588                 6.7045                 8.8310
 IR Inten    --     11.2776                14.1430                28.4484

 - Thermochemistry -
 -------------------
 Temperature   298.150 Kelvin.  Pressure   1.00000 Atm.
 Atom     1 has atomic number  6 and mass  12.00000

 Molecular mass:   214.13577 amu.
 Principal axes and moments of inertia in atomic units:
                           1         2         3
     Eigenvalues --  1452.98625********************
           X            0.99998   0.00566   0.00102
           Y           -0.00564   0.99982  -0.01820
           Z           -0.00113   0.01820   0.99983
 This molecule is an asymmetric top.
 Rotational symmetry number  1.
 Warning -- assumption of classical behavior for rotation
           may cause significant error
 Rotational temperatures (Kelvin)      0.05961     0.00826     0.00753
 Rotational constants (GHZ):           1.24209     0.17219     0.15691
 Zero-point vibrational energy     761036.9 (Joules/Mol)
                                  181.89218 (Kcal/Mol)
 Warning -- explicit consideration of  26 degrees of freedom as
           vibrations may cause significant error
 Vibrational temperatures:     41.13    54.81    72.23   100.33   158.27
          (Kelvin)            161.74   184.44   195.93   229.43   266.92
                              334.80   340.68   352.42   389.15   471.07
                              487.32   512.27   524.67   596.58   628.04
                              682.06   701.28   733.48   762.38   786.36
                              888.15   916.32   922.39  1014.89  1076.26
                             1142.89  1179.01  1208.39  1228.71  1272.79
                             1285.01  1307.88  1345.26  1392.51  1430.23
                             1456.30  1460.03  1465.89  1482.99  1540.12
                             1540.40  1551.89  1576.46  1615.94  1638.46
                             1727.51  1731.73  1756.23  1794.90  1807.37
                             1877.87  1932.56  1939.71  1960.67  1970.62
                             1999.46  2031.83  2072.41  2077.84  2085.57
                             2156.57  2173.18  2176.46  2181.30  2186.14
                             2193.29  2198.57  2236.31  2371.91  2387.78
                             2397.43  2424.31  2487.14  4358.23  4374.40
                             4376.77  4414.08  4437.96  4456.55  4503.35
                             4510.38  4535.39  4536.93  4545.77  4547.07
                             4574.72  4590.91  4591.09  4631.67  4638.99
                             5395.52

 Zero-point correction=                           0.289864 (Hartree/Particle)
 Thermal correction to Energy=                    0.306848
 Thermal correction to Enthalpy=                  0.307792
 Thermal correction to Gibbs Free Energy=         0.244074
 Sum of electronic and zero-point Energies=           -657.392266
 Sum of electronic and thermal Energies=              -657.375282
 Sum of electronic and thermal Enthalpies=            -657.374338
 Sum of electronic and thermal Free Energies=         -657.438056

                     E (Thermal)             CV                S
                      KCal/Mol        Cal/Mol-Kelvin    Cal/Mol-Kelvin
 Total                  192.550             63.338            134.106
 Electronic               0.000              0.000              0.000
 Translational            0.889              2.981             41.988
 Rotational               0.889              2.981             33.526
 Vibrational            190.772             57.376             58.592
 Vibration     1          0.593              1.984              5.925
 Vibration     2          0.594              1.982              5.356
 Vibration     3          0.595              1.978              4.809
 Vibration     4          0.598              1.969              4.161
 Vibration     5          0.606              1.941              3.269
 Vibration     6          0.607              1.939              3.227
 Vibration     7          0.611              1.925              2.973
 Vibration     8          0.614              1.917              2.857
 Vibration     9          0.621              1.892              2.556
 Vibration    10          0.632              1.860              2.272
 Vibration    11          0.653              1.791              1.858
 Vibration    12          0.656              1.784              1.827
 Vibration    13          0.660              1.771              1.767
 Vibration    14          0.674              1.728              1.593
 Vibration    15          0.711              1.621              1.273
 Vibration    16          0.719              1.598              1.218
 Vibration    17          0.732              1.563              1.139
 Vibration    18          0.738              1.545              1.102
 Vibration    19          0.778              1.438              0.910
 Vibration    20          0.797              1.391              0.838
 Vibration    21          0.831              1.308              0.726
 Vibration    22          0.843              1.278              0.690
 Vibration    23          0.865              1.228              0.634
 Vibration    24          0.885              1.184              0.587
 Vibration    25          0.902              1.147              0.551
 Vibration    26          0.977              0.995              0.421

                           ! Non-Optimized Parameters !
 Normal termination of Gaussian 16 at Thu Dec 10 21:54:30 2020.

 ----------------------------------------------------------------------
 # B3LYP/6-311++G(d,p) empiricaldispersion=gd3bj scf=xqc pop=npa geom=c
 heck
 ----------------------------------------------------------------------

 --------------------------------------
 CID_59940046_JID_6249_Energie_neutraal
 --------------------------------------
 Structure from the checkpoint file:  "JID_6249.chk"
 Charge =  0 Multiplicity = 1

 SCF Done:  E(RB3LYP) =  -657.865696200     A.U. after   15 cycles
 Normal termination of Gaussian 16 at Thu Dec 10 21:59:13 2020.

 ----------------------------------------------------------------------
 # B3LYP/6-311++G(d,p) empiricaldispersion=gd3bj scf=xqc pop=npa geom=c
 heck
 ----------------------------------------------------------------------

 ------------------------------------
 CID_59940046_JID_6249_Energie_kation
 ------------------------------------
 Structure from the checkpoint file:  "JID_6249.chk"
 Charge =  1 Multiplicity = 2

 SCF Done:  E(UB3LYP) =  -657.610845254     A.U. after   22 cycles
 Normal termination of Gaussian 16 at Thu Dec 10 22:13:16 2020.
 Gaussian 16:  ES64L-G16RevA.03 25-Dec-2016

 ----------------------------------------------------------------------
 # B3LYP/6-311++G(d,p) empiricaldispersion=gd3bj scf=xqc pop=npa geom=c
 heck
 ----------------------------------------------------------------------

 -----------------------------------
 CID_59940046_JID_6249_Energie_anion
 -----------------------------------
 Structure from the checkpoint file:  "JID_6249.chk"
 Charge = -1 Multiplicity = 2

                         Standard orientation:
 ---------------------------------------------------------------------
 Center     Atomic      Atomic             Coordinates (Angstroms)
 Number     Number       Type             X           Y           Z
 ---------------------------------------------------------------------
      1          6           0       -6.107882    0.606822   -0.746461
      2          6           0       -4.647621    0.301529   -0.600742
      3          6           0       -4.061141   -0.610603    0.201579
      4          6           0       -4.817428   -1.578073    1.083645
      5          6           0       -2.600236   -0.744349    0.261650
      6          6           0       -1.694093    0.242645    0.073357
      7          6           0       -0.268585    0.023459    0.119771
      8          6           0        0.717053    0.948099   -0.015703
      9          6           0        0.436768    2.421228   -0.195304
     10          6           0        2.139570    0.543093    0.042978
     11          6           0        2.547519   -0.741884   -0.359073
     12          6           0        3.884788   -1.127035   -0.287088
     13          6           0        4.855684   -0.234362    0.179282
     14          6           0        4.462320    1.043554    0.562691
     15          6           0        3.126266    1.437793    0.492088
     16          8           0        4.310141   -2.367554   -0.678706
     17          1           0       -6.743580   -0.003732   -0.100813
     18          1           0       -6.438763    0.458985   -1.783717
     19          1           0       -6.307286    1.660589   -0.506101
     20          1           0       -3.992891    0.897013   -1.236199
     21          1           0       -4.494506   -2.608015    0.882807
     22          1           0       -4.610074   -1.385209    2.144158
     23          1           0       -5.898481   -1.535205    0.938677
     24          1           0       -2.225261   -1.737583    0.516168
     25          1           0       -2.059263    1.250334   -0.106559
     26          1           0        0.027347   -1.006676    0.310943
     27          1           0        0.625541    2.978227    0.732184
     28          1           0        1.087503    2.851399   -0.964480
     29          1           0       -0.598422    2.613817   -0.481579
     30          1           0        1.816247   -1.435490   -0.766941
     31          1           0        5.892000   -0.552279    0.220301
     32          1           0        5.209199    1.745152    0.923906
     33          1           0        2.849071    2.436880    0.808508
     34          1           0        3.542594   -2.879267   -0.977630
 ---------------------------------------------------------------------

 SCF Done:  E(UB3LYP) =  -657.877239080     A.U. after   26 cycles

 The electronic state is 2-A.
 Alpha  occ. eigenvalues --  -19.04407 -10.10923 -10.05612 -10.05180 -10.05002
 Alpha  occ. eigenvalues --  -10.04383 -10.04221 -10.03627 -10.03621 -10.03586
 Alpha  occ. eigenvalues --  -10.03387 -10.02534 -10.02092 -10.01525 -10.01348
 Alpha  occ. eigenvalues --  -10.00864  -0.95254  -0.72743  -0.69142  -0.67121
 Alpha  occ. eigenvalues --   -0.63018  -0.61529  -0.61089  -0.59391  -0.55467
 Alpha  occ. eigenvalues --   -0.52486  -0.50466  -0.48432  -0.45009  -0.41732
 Alpha  occ. eigenvalues --   -0.39104  -0.38425  -0.37638  -0.35485  -0.33722
 Alpha  occ. eigenvalues --   -0.31789  -0.31034  -0.30808  -0.30291  -0.29600
 Alpha  occ. eigenvalues --   -0.29398  -0.28881  -0.28474  -0.27472  -0.26715
 Alpha  occ. eigenvalues --   -0.25525  -0.25347  -0.24284  -0.22295  -0.21925
 Alpha  occ. eigenvalues --   -0.21547  -0.20574  -0.19274  -0.18143  -0.14772
 Alpha  occ. eigenvalues --   -0.12019  -0.10750  -0.06281   0.03913
 Alpha virt. eigenvalues --    0.07388   0.07973   0.08593   0.09041   0.09594
 Alpha virt. eigenvalues --    0.10658   0.10846   0.10983   0.11346   0.12051
 Alpha virt. eigenvalues --    0.12219   0.12559   0.12666   0.13287   0.14171

  Beta  occ. eigenvalues --  -19.04415 -10.10970 -10.05632 -10.05166 -10.05020
  Beta  occ. eigenvalues --  -10.04297 -10.04278 -10.03636 -10.03504 -10.03412
  Beta  occ. eigenvalues --  -10.03327 -10.02254 -10.01836 -10.01472 -10.01225
  Beta  occ. eigenvalues --  -10.00515  -0.95268  -0.72513  -0.68799  -0.66738
  Beta  occ. eigenvalues --   -0.62630  -0.61351  -0.60909  -0.59203  -0.55248
  Beta  occ. eigenvalues --   -0.52266  -0.50332  -0.48007  -0.44656  -0.41618
  Beta  occ. eigenvalues --   -0.38857  -0.38224  -0.37485  -0.35329  -0.33594
  Beta  occ. eigenvalues --   -0.31607  -0.30931  -0.30612  -0.30142  -0.29453
  Beta  occ. eigenvalues --   -0.29280  -0.28671  -0.28340  -0.27428  -0.26624
  Beta  occ. eigenvalues --   -0.25371  -0.25268  -0.24172  -0.22084  -0.21732
  Beta  occ. eigenvalues --   -0.21252  -0.20444  -0.19057  -0.16962  -0.13693
  Beta  occ. eigenvalues --   -0.11136  -0.10115  -0.04635
  Beta virt. eigenvalues --    0.07319   0.07927   0.08512   0.08880   0.09017
  Beta virt. eigenvalues --    0.09551   0.10655   0.10796   0.11242   0.11609
  Beta virt. eigenvalues --    0.12066   0.12224   0.12517   0.13184   0.13320

 Mulliken charges and spin densities:
               1          2
     1  C   -0.716378  -0.045269
     2  C   -0.855995   0.226560
     3  C    1.061774  -0.030628
     4  C   -0.693949   0.004161
     5  C   -0.076668   0.246222
     6  C   -0.039946   0.053745
     7  C   -0.704704   0.081943
     8  C    0.507464   0.080018
     9  C   -0.811905   0.005326
    10  C    1.847360   0.074592
    11  C   -0.970341   0.131062
    12  C   -0.674781  -0.040535
    13  C   -0.059577   0.133227
    14  C   -0.301454  -0.014433
    15  C   -0.179736   0.064243
    16  O   -0.260546  -0.000334
    17  H    0.100936   0.001745
    18  H    0.118393   0.004395
    19  H    0.114732   0.019192
    20  H    0.108830  -0.007308
    21  H    0.123938   0.003185
    22  H    0.140832  -0.004649
    23  H    0.066354   0.023118
    24  H    0.089186  -0.020439
    25  H   -0.037546  -0.004654
    26  H    0.030372  -0.005874
    27  H    0.107123   0.033193
    28  H    0.114408   0.003200
    29  H    0.139096   0.000196
    30  H    0.090248  -0.008332
    31  H    0.136576  -0.010465
    32  H    0.126577   0.000729
    33  H    0.104553   0.001754
    34  H    0.254774   0.001111
 Sum of Mulliken charges =  -1.00000   1.00000

 Dipole moment (field-independent basis, Debye):
    X=             -0.4961    Y=             -0.5849    Z=             -0.3519  Tot=              0.8438
 Quadrupole moment (field-independent basis, Debye-Ang):
   XX=           -175.2654   YY=           -106.2956   ZZ=           -110.1307
   XY=              1.9550   XZ=             -0.8125   YZ=              1.4596

 Summary of Natural Population Analysis:

                                       Natural Population
                Natural  -----------------------------------------------
    Atom  No    Charge         Core      Valence    Rydberg      Total
 -----------------------------------------------------------------------
      C    1   -0.29966      0.99966     2.29567    0.00432     3.29966
      C    2   -0.04498      0.99949     2.03708    0.00841     3.04498
      C    3   -0.04477      0.99949     2.03629    0.00899     3.04477
      C    4   -0.28952      0.99964     2.28544    0.00444     3.28952
      C    5   -0.03274      0.99952     2.02353    0.00969     3.03274
      C    6   -0.09960      0.99952     2.09213    0.00794     3.09960
      C    7   -0.07646      0.99949     2.06902    0.00795     3.07646
      C    8    0.01702      0.99949     1.97328    0.01022     2.98298
      C    9   -0.29601      0.99965     2.29146    0.00490     3.29601
      C   10    0.00313      0.99951     1.98845    0.00891     2.99687
      C   11   -0.11536      0.99949     2.10779    0.00809     3.11536
      C   12    0.14515      0.99939     1.84331    0.01215     2.85485
      C   13   -0.11347      0.99953     2.10373    0.01022     3.11347
      C   14   -0.10329      0.99958     2.09441    0.00929     3.10329
      C   15   -0.10779      0.99953     2.09965    0.00861     3.10779
      O   16   -0.34965      0.99988     3.34358    0.00620     4.34965
      H   17    0.09268      0.00000     0.40629    0.00103     0.40732
      H   18    0.09492      0.00000     0.40388    0.00120     0.40508
      H   19    0.09712      0.00000     0.40171    0.00117     0.40288
      H   20    0.08709      0.00000     0.41133    0.00158     0.41291
      H   21    0.09600      0.00000     0.40282    0.00117     0.40400
      H   22    0.09716      0.00000     0.40154    0.00129     0.40284
      H   23    0.09224      0.00000     0.40678    0.00098     0.40776
      H   24    0.07827      0.00000     0.41999    0.00174     0.42173
      H   25    0.08705      0.00000     0.41128    0.00168     0.41295
      H   26    0.08689      0.00000     0.41158    0.00153     0.41311
      H   27    0.09697      0.00000     0.40162    0.00141     0.40303
      H   28    0.09688      0.00000     0.40186    0.00126     0.40312
      H   29    0.09950      0.00000     0.39961    0.00089     0.40050
      H   30    0.09453      0.00000     0.40413    0.00134     0.40547
      H   31    0.09507      0.00000     0.40346    0.00147     0.40493
      H   32    0.09080      0.00000     0.40812    0.00109     0.40920
      H   33    0.09550      0.00000     0.40345    0.00105     0.40450
      H   34    0.22930      0.00000     0.26826    0.00244     0.27070
 =======================================================================
   * Total *   -0.00000     15.99283    41.85255    0.15462    58.00000

 Normal termination of Gaussian 16 at Thu Dec 10 22:28:06 2020.
