 Gaussian 16, Revision A.03,

 -----------------------------------------------------------
 # opt freq B3LYP/6-31G(d) empiricaldispersion=gd3bj scf=xqc
 -----------------------------------------------------------

 ------------------------------
 CID_81205094_JID_5740_neutraal
 ------------------------------
 Symbolic Z-matrix:
 Charge =  0 Multiplicity = 1

 SCF Done:  E(RB3LYP) =  -712.254801363     A.U. after   14 cycles
 SCF Done:  E(RB3LYP) =  -712.260332000     A.U. after   13 cycles
 SCF Done:  E(RB3LYP) =  -712.260062401     A.U. after   12 cycles
 SCF Done:  E(RB3LYP) =  -712.261514268     A.U. after   12 cycles
 SCF Done:  E(RB3LYP) =  -712.262352906     A.U. after   13 cycles
 SCF Done:  E(RB3LYP) =  -712.262065724     A.U. after   15 cycles
 SCF Done:  E(RB3LYP) =  -712.263681348     A.U. after   13 cycles
 SCF Done:  E(RB3LYP) =  -712.264338798     A.U. after   12 cycles
 SCF Done:  E(RB3LYP) =  -712.264654617     A.U. after   13 cycles
 SCF Done:  E(RB3LYP) =  -712.265476226     A.U. after   12 cycles
 SCF Done:  E(RB3LYP) =  -712.270971101     A.U. after   10 cycles
 SCF Done:  E(RB3LYP) =  -712.270973798     A.U. after    9 cycles
 SCF Done:  E(RB3LYP) =  -712.270973995     A.U. after    8 cycles
 SCF Done:  E(RB3LYP) =  -712.270974041     A.U. after    7 cycles
 SCF Done:  E(RB3LYP) =  -712.270974075     A.U. after    7 cycles
 Optimization completed.
    -- Stationary point found.
 Normal termination of Gaussian 16 at Thu Dec 10 17:05:27 2020.

 --------------------------------------------------------------------
 #N Geom=AllCheck Guess=TCheck SCRF=Check GenChk RB3LYP/6-31G(d) Freq
 --------------------------------------------------------------------

 Structure from the checkpoint file:  "JID_5740.chk"
 ------------------------------
 CID_81205094_JID_5740_neutraal
 ------------------------------
 Charge =  0 Multiplicity = 1

 SCF Done:  E(RB3LYP) =  -712.270974075     A.U. after    1 cycles

  Exact polarizability: 136.794  -5.514 135.562   0.615  -0.429 112.271
 Approx polarizability: 177.253  -2.104 177.467   5.065   1.154 179.414

                      1                      2                      3
                      A                      A                      A
 Frequencies --     27.1784                48.9539                72.1079
 Red. masses --      3.8900                 6.6724                 3.9432
 Frc consts  --      0.0017                 0.0094                 0.0121
 IR Inten    --      0.5420                 0.9787                 4.6329

                      4                      5                      6
                      A                      A                      A
 Frequencies --     80.5085                97.9351               107.7538
 Red. masses --      4.3251                 3.0946                 4.7613
 Frc consts  --      0.0165                 0.0175                 0.0326
 IR Inten    --      1.4920                 2.4350                 1.8846

                      7                      8                      9
                      A                      A                      A
 Frequencies --    131.9116               171.4448               190.6976
 Red. masses --      2.8295                 1.0959                 2.1781
 Frc consts  --      0.0290                 0.0190                 0.0467
 IR Inten    --      9.5201                 0.6099                 6.7870

                     10                     11                     12
                      A                      A                      A
 Frequencies --    206.3112               219.8787               224.2182
 Red. masses --      1.7115                 1.5589                 1.3741
 Frc consts  --      0.0429                 0.0444                 0.0407
 IR Inten    --     36.5494                17.4432                45.2671

                     13                     14                     15
                      A                      A                      A
 Frequencies --    250.0260               268.8145               272.6730
 Red. masses --      2.2968                 2.7680                 2.1373
 Frc consts  --      0.0846                 0.1178                 0.0936
 IR Inten    --      6.4717                 3.6225                12.1101

                     16                     17                     18
                      A                      A                      A
 Frequencies --    361.2977               363.6597               391.2761
 Red. masses --      2.6097                 2.0286                 3.0931
 Frc consts  --      0.2007                 0.1581                 0.2790
 IR Inten    --      0.6577                 2.7634                 0.6572

                     19                     20                     21
                      A                      A                      A
 Frequencies --    413.9577               437.3155               459.5932
 Red. masses --      3.4756                 2.7909                 3.1624
 Frc consts  --      0.3509                 0.3145                 0.3936
 IR Inten    --      1.7469                 1.2450                 5.9464

                     22                     23                     24
                      A                      A                      A
 Frequencies --    479.4503               497.7384               521.3734
 Red. masses --      2.1933                 2.1592                 2.7281
 Frc consts  --      0.2971                 0.3152                 0.4369
 IR Inten    --      2.3668                 1.7618                 5.7369

                     25                     26                     27
                      A                      A                      A
 Frequencies --    550.9440               608.0186               682.4178
 Red. masses --      3.2621                 3.4067                 2.7413
 Frc consts  --      0.5834                 0.7420                 0.7522
 IR Inten    --     14.4999                 5.5721                 6.8670

                     28                     29                     30
                      A                      A                      A
 Frequencies --    742.5991               795.1611               805.0559
 Red. masses --      1.8865                 2.5296                 2.1572
 Frc consts  --      0.6129                 0.9424                 0.8238
 IR Inten    --      7.9356                 4.9776                 1.0164

                     31                     32                     33
                      A                      A                      A
 Frequencies --    870.6070               877.8172               897.1750
 Red. masses --      2.6109                 2.4589                 2.3475
 Frc consts  --      1.1660                 1.1164                 1.1133
 IR Inten    --      5.9477                 7.9328                 3.3086

                     34                     35                     36
                      A                      A                      A
 Frequencies --    930.8983               947.0196               955.6349
 Red. masses --      1.7933                 1.6308                 1.6846
 Frc consts  --      0.9156                 0.8617                 0.9064
 IR Inten    --      2.9202                 4.4827                 4.2189

                     37                     38                     39
                      A                      A                      A
 Frequencies --    977.1453               992.6334              1029.4419
 Red. masses --      1.7797                 2.2630                 1.7737
 Frc consts  --      1.0012                 1.3138                 1.1075
 IR Inten    --      8.3018                23.5512                 6.3913

                     40                     41                     42
                      A                      A                      A
 Frequencies --   1057.7074              1075.9826              1085.9464
 Red. masses --      2.0305                 2.4827                 2.4654
 Frc consts  --      1.3384                 1.6935                 1.7130
 IR Inten    --     57.9733                59.8367                 6.3267

                     43                     44                     45
                      A                      A                      A
 Frequencies --   1089.7178              1109.3773              1115.5270
 Red. masses --      2.0768                 2.3423                 2.3369
 Frc consts  --      1.4530                 1.6985                 1.7134
 IR Inten    --      3.3283                26.3397                19.2282

                     46                     47                     48
                      A                      A                      A
 Frequencies --   1145.3132              1149.7387              1168.7182
 Red. masses --      1.9718                 2.1885                 3.1099
 Frc consts  --      1.5239                 1.7045                 2.5028
 IR Inten    --      0.8198                22.0799                92.3444

                     49                     50                     51
                      A                      A                      A
 Frequencies --   1182.2256              1192.9372              1212.2578
 Red. masses --      1.8065                 2.2536                 2.1447
 Frc consts  --      1.4876                 1.8895                 1.8570
 IR Inten    --     26.1266                13.6432                64.6491

                     52                     53                     54
                      A                      A                      A
 Frequencies --   1224.7822              1241.4041              1261.5354
 Red. masses --      1.3635                 1.2088                 1.1770
 Frc consts  --      1.2051                 1.0975                 1.1037
 IR Inten    --     21.4883                 8.0187                51.8957

                     55                     56                     57
                      A                      A                      A
 Frequencies --   1284.5307              1301.6365              1316.0048
 Red. masses --      1.5408                 1.2922                 1.1827
 Frc consts  --      1.4979                 1.2899                 1.2068
 IR Inten    --      1.0118                 0.5108                 0.0391

                     58                     59                     60
                      A                      A                      A
 Frequencies --   1333.8906              1361.8290              1375.1523
 Red. masses --      1.2945                 1.4489                 1.5175
 Frc consts  --      1.3570                 1.5832                 1.6907
 IR Inten    --      9.3397                 6.3005                18.0558

                     61                     62                     63
                      A                      A                      A
 Frequencies --   1386.4165              1392.1067              1399.6342
 Red. masses --      1.2759                 1.4942                 1.4050
 Frc consts  --      1.4449                 1.7061                 1.6216
 IR Inten    --     15.9760                13.2430                22.0929

                     64                     65                     66
                      A                      A                      A
 Frequencies --   1409.8141              1417.8327              1421.3213
 Red. masses --      1.3602                 1.2787                 1.3155
 Frc consts  --      1.5928                 1.5146                 1.5658
 IR Inten    --      3.7986                19.8976                21.1791

                     67                     68                     69
                      A                      A                      A
 Frequencies --   1424.4679              1438.8397              1444.4397
 Red. masses --      1.4839                 1.2777                 1.5569
 Frc consts  --      1.7740                 1.5585                 1.9139
 IR Inten    --     26.6482                24.5042                 1.6283

                     70                     71                     72
                      A                      A                      A
 Frequencies --   1478.8061              1480.8340              1500.7923
 Red. masses --      1.3531                 1.2536                 1.0559
 Frc consts  --      1.7434                 1.6197                 1.4012
 IR Inten    --      7.0227                10.7362                 8.0090

                     73                     74                     75
                      A                      A                      A
 Frequencies --   1504.3968              1508.9845              1513.2107
 Red. masses --      1.0839                 1.0638                 1.0879
 Frc consts  --      1.4453                 1.4272                 1.4677
 IR Inten    --      8.5859                 3.1764                 2.9645

                     76                     77                     78
                      A                      A                      A
 Frequencies --   1524.6219              1525.3787              1529.5493
 Red. masses --      1.0674                 1.0673                 1.0787
 Frc consts  --      1.4619                 1.4631                 1.4869
 IR Inten    --      2.1584                 0.7468                 8.1036

                     79                     80                     81
                      A                      A                      A
 Frequencies --   1545.3814              1554.0612              1807.2211
 Red. masses --      1.0802                 1.0843                 9.9104
 Frc consts  --      1.5199                 1.5428                19.0707
 IR Inten    --      0.6363                 5.4719               110.8822

                     82                     83                     84
                      A                      A                      A
 Frequencies --   2947.3245              2987.8236              3008.1280
 Red. masses --      1.0732                 1.0826                 1.0694
 Frc consts  --      5.4926                 5.6940                 5.7013
 IR Inten    --     45.4876                29.8400                44.5493

                     85                     86                     87
                      A                      A                      A
 Frequencies --   3013.2262              3026.9114              3036.3129
 Red. masses --      1.0559                 1.0668                 1.0679
 Frc consts  --      5.6485                 5.7589                 5.8008
 IR Inten    --     68.6812                17.5911                44.0810

                     88                     89                     90
                      A                      A                      A
 Frequencies --   3043.3984              3043.9312              3050.5082
 Red. masses --      1.0463                 1.0680                 1.0647
 Frc consts  --      5.7099                 5.8302                 5.8376
 IR Inten    --      5.5375                15.8618                38.7278

                     91                     92                     93
                      A                      A                      A
 Frequencies --   3053.2855              3056.6523              3077.3043
 Red. masses --      1.1086                 1.0396                 1.0924
 Frc consts  --      6.0891                 5.7229                 6.0951
 IR Inten    --     65.3203                29.1318                 1.7944

                     94                     95                     96
                      A                      A                      A
 Frequencies --   3084.9585              3100.9676              3107.0855
 Red. masses --      1.1008                 1.1024                 1.0974
 Frc consts  --      6.1725                 6.2458                 6.2422
 IR Inten    --     32.6913                36.5116                 9.8528

                     97                     98                     99
                      A                      A                      A
 Frequencies --   3111.4468              3118.9067              3139.7630
 Red. masses --      1.0968                 1.1005                 1.1011
 Frc consts  --      6.2559                 6.3073                 6.3956
 IR Inten    --     22.4112                55.1264                24.8806

                    100                    101                    102
                      A                      A                      A
 Frequencies --   3153.0095              3159.8225              3772.5596
 Red. masses --      1.0860                 1.1023                 1.0667
 Frc consts  --      6.3611                 6.4847                 8.9446
 IR Inten    --     16.9360                11.5089                24.3320

 - Thermochemistry -
 -------------------
 Temperature   298.150 Kelvin.  Pressure   1.00000 Atm.
 Atom     1 has atomic number  6 and mass  12.00000

 Molecular mass:   215.15214 amu.
 Principal axes and moments of inertia in atomic units:
                           1         2         3
     Eigenvalues --  2531.794243842.421705570.29233
           X            0.99916  -0.03683  -0.01797
           Y            0.03686   0.99932   0.00116
           Z            0.01791  -0.00183   0.99984
 This molecule is an asymmetric top.
 Rotational symmetry number  1.
 Warning -- assumption of classical behavior for rotation
           may cause significant error
 Rotational temperatures (Kelvin)      0.03421     0.02254     0.01555
 Rotational constants (GHZ):           0.71283     0.46969     0.32399
 Zero-point vibrational energy     840653.5 (Joules/Mol)
                                  200.92102 (Kcal/Mol)
 Warning -- explicit consideration of  26 degrees of freedom as
           vibrations may cause significant error
 Vibrational temperatures:     39.10    70.43   103.75   115.83   140.91
          (Kelvin)            155.03   189.79   246.67   274.37   296.84
                              316.36   322.60   359.73   386.76   392.32
                              519.83   523.23   562.96   595.59   629.20
                              661.25   689.82   716.13   750.14   792.69
                              874.80   981.85  1068.43  1144.06  1158.30
                             1252.61  1262.98  1290.83  1339.35  1362.55
                             1374.95  1405.89  1428.18  1481.14  1521.81
                             1548.10  1562.43  1567.86  1596.15  1604.99
                             1647.85  1654.22  1681.52  1700.96  1716.37
                             1744.17  1762.19  1786.10  1815.07  1848.15
                             1872.76  1893.44  1919.17  1959.37  1978.54
                             1994.74  2002.93  2013.76  2028.41  2039.94
                             2044.96  2049.49  2070.17  2078.23  2127.67
                             2130.59  2159.31  2164.49  2171.09  2177.17
                             2193.59  2194.68  2200.68  2223.46  2235.95
                             2600.19  4240.54  4298.81  4328.03  4335.36
                             4355.05  4368.58  4378.77  4379.54  4389.00
                             4393.00  4397.84  4427.55  4438.57  4461.60
                             4470.40  4476.68  4487.41  4517.42  4536.48
                             4546.28  5427.87

 Zero-point correction=                           0.320188 (Hartree/Particle)
 Thermal correction to Energy=                    0.336767
 Thermal correction to Enthalpy=                  0.337711
 Thermal correction to Gibbs Free Energy=         0.275738
 Sum of electronic and zero-point Energies=           -711.950786
 Sum of electronic and thermal Energies=              -711.934207
 Sum of electronic and thermal Enthalpies=            -711.933263
 Sum of electronic and thermal Free Energies=         -711.995236

                     E (Thermal)             CV                S
                      KCal/Mol        Cal/Mol-Kelvin    Cal/Mol-Kelvin
 Total                  211.324             61.814            130.433
 Electronic               0.000              0.000              0.000
 Translational            0.889              2.981             42.002
 Rotational               0.889              2.981             32.361
 Vibrational            209.547             55.853             56.071
 Vibration     1          0.593              1.984              6.025
 Vibration     2          0.595              1.978              4.859
 Vibration     3          0.598              1.967              4.095
 Vibration     4          0.600              1.962              3.878
 Vibration     5          0.603              1.951              3.495
 Vibration     6          0.606              1.943              3.309
 Vibration     7          0.612              1.921              2.918
 Vibration     8          0.626              1.878              2.420
 Vibration     9          0.634              1.853              2.221
 Vibration    10          0.641              1.831              2.076
 Vibration    11          0.647              1.811              1.960
 Vibration    12          0.649              1.804              1.925
 Vibration    13          0.663              1.763              1.730
 Vibration    14          0.673              1.731              1.604
 Vibration    15          0.676              1.724              1.579
 Vibration    16          0.735              1.552              1.117
 Vibration    17          0.737              1.547              1.106
 Vibration    18          0.759              1.489              0.995
 Vibration    19          0.778              1.440              0.913
 Vibration    20          0.798              1.389              0.835
 Vibration    21          0.818              1.340              0.767
 Vibration    22          0.836              1.296              0.712
 Vibration    23          0.853              1.255              0.664
 Vibration    24          0.876              1.203              0.607
 Vibration    25          0.906              1.138              0.542
 Vibration    26          0.967              1.015              0.436

                           ! Non-Optimized Parameters !
 Normal termination of Gaussian 16 at Thu Dec 10 17:18:52 2020.

 ----------------------------------------------------------------------
 # B3LYP/6-311++G(d,p) empiricaldispersion=gd3bj scf=xqc pop=npa geom=c
 heck
 ----------------------------------------------------------------------

 --------------------------------------
 CID_81205094_JID_5740_Energie_neutraal
 --------------------------------------
 Structure from the checkpoint file:  "JID_5740.chk"
 Charge =  0 Multiplicity = 1

 SCF Done:  E(RB3LYP) =  -712.486711327     A.U. after   14 cycles
 Normal termination of Gaussian 16 at Thu Dec 10 17:28:55 2020.

 ----------------------------------------------------------------------
 # B3LYP/6-311++G(d,p) empiricaldispersion=gd3bj scf=xqc pop=npa geom=c
 heck
 ----------------------------------------------------------------------

 ------------------------------------
 CID_81205094_JID_5740_Energie_kation
 ------------------------------------
 Structure from the checkpoint file:  "JID_5740.chk"
 Charge =  1 Multiplicity = 2

 SCF Done:  E(UB3LYP) =  -712.206469882     A.U. after   22 cycles
 Normal termination of Gaussian 16 at Thu Dec 10 17:46:47 2020.
 Gaussian 16:  ES64L-G16RevA.03 25-Dec-2016

 ----------------------------------------------------------------------
 # B3LYP/6-311++G(d,p) empiricaldispersion=gd3bj scf=xqc pop=npa geom=c
 heck
 ----------------------------------------------------------------------

 -----------------------------------
 CID_81205094_JID_5740_Energie_anion
 -----------------------------------
 Structure from the checkpoint file:  "JID_5740.chk"
 Charge = -1 Multiplicity = 2

                         Standard orientation:
 ---------------------------------------------------------------------
 Center     Atomic      Atomic             Coordinates (Angstroms)
 Number     Number       Type             X           Y           Z
 ---------------------------------------------------------------------
      1          6           0        2.619774   -1.864864   -1.065138
      2          6           0        1.846981   -1.535275    0.224571
      3          6           0        2.605665   -0.516904    1.086515
      4          8           0        2.618536    0.776324    0.488871
      5          6           0        1.293724    1.265855    0.302745
      6          6           0        0.504129    0.317640   -0.591465
      7          7           0        0.497180   -1.003870    0.017771
      8          6           0       -0.504639   -1.925086   -0.520318
      9          6           0       -1.662812   -2.153625    0.466958
     10          6           0       -2.249682   -0.855829    1.023678
     11          6           0       -2.929036    0.030621   -0.009691
     12          8           0       -3.223509   -0.377595   -1.119679
     13          6           0       -3.197512    1.464623    0.408506
     14          6           0        1.404082    2.668105   -0.270274
     15          8           0        0.079295    3.194273   -0.323515
     16          1           0        2.877729   -0.953373   -1.611531
     17          1           0        2.030830   -2.509409   -1.726092
     18          1           0        3.553617   -2.387993   -0.829028
     19          1           0        1.743244   -2.452427    0.819631
     20          1           0        2.131152   -0.460542    2.078463
     21          1           0        3.653883   -0.805897    1.206564
     22          1           0        0.784842    1.324310    1.279565
     23          1           0        0.944702    0.327491   -1.606343
     24          1           0       -0.519601    0.680067   -0.690950
     25          1           0       -0.906421   -1.540488   -1.465155
     26          1           0       -0.038787   -2.891687   -0.749662
     27          1           0       -2.446259   -2.733426   -0.034309
     28          1           0       -1.298120   -2.751824    1.311389
     29          1           0       -2.999851   -1.072908    1.799226
     30          1           0       -1.462744   -0.279199    1.525588
     31          1           0       -3.555339    1.521458    1.442881
     32          1           0       -2.259447    2.034719    0.356181
     33          1           0       -3.923307    1.920589   -0.268354
     34          1           0        2.057079    3.269531    0.378121
     35          1           0        1.862560    2.621785   -1.269301
     36          1           0        0.111361    4.050722   -0.773223
 ---------------------------------------------------------------------

 SCF Done:  E(UB3LYP) =  -712.475109162     A.U. after   33 cycles
 SCF Done:  E(UB3LYP) =  -712.475109162     a.u. after    1 cycles

 The electronic state is 2-A.
 Alpha  occ. eigenvalues --  -19.03292 -19.02677 -19.01489 -14.20529 -10.16295
 Alpha  occ. eigenvalues --  -10.12249 -10.12144 -10.11799 -10.10778 -10.09503
 Alpha  occ. eigenvalues --  -10.09274 -10.07674 -10.07151 -10.06998 -10.06633
 Alpha  occ. eigenvalues --   -0.95107  -0.94692  -0.92557  -0.82886  -0.70334
 Alpha  occ. eigenvalues --   -0.69577  -0.65847  -0.63613  -0.60570  -0.58119
 Alpha  occ. eigenvalues --   -0.56216  -0.52536  -0.49255  -0.45816  -0.42695
 Alpha  occ. eigenvalues --   -0.42619  -0.40653  -0.39313  -0.38077  -0.37497
 Alpha  occ. eigenvalues --   -0.36972  -0.36569  -0.35440  -0.34694  -0.33391
 Alpha  occ. eigenvalues --   -0.32282  -0.31622  -0.31415  -0.30539  -0.29462
 Alpha  occ. eigenvalues --   -0.29107  -0.28377  -0.26940  -0.25981  -0.25534
 Alpha  occ. eigenvalues --   -0.25457  -0.24922  -0.24495  -0.23618  -0.21385
 Alpha  occ. eigenvalues --   -0.18285  -0.16921  -0.15557  -0.11634   0.04091
 Alpha virt. eigenvalues --    0.05600   0.06084   0.07462   0.07913   0.08022
 Alpha virt. eigenvalues --    0.08846   0.09491   0.09873   0.10092   0.10580
 Alpha virt. eigenvalues --    0.11221   0.11782   0.12184   0.12601   0.12985

  Beta  occ. eigenvalues --  -19.03286 -19.02626 -19.01470 -14.20528 -10.16270
  Beta  occ. eigenvalues --  -10.12245 -10.12133 -10.11776 -10.10767 -10.09498
  Beta  occ. eigenvalues --  -10.09265 -10.07660 -10.07132 -10.06985 -10.06617
  Beta  occ. eigenvalues --   -0.95090  -0.94650  -0.92451  -0.82874  -0.70304
  Beta  occ. eigenvalues --   -0.69545  -0.65808  -0.63573  -0.60539  -0.58070
  Beta  occ. eigenvalues --   -0.56185  -0.52491  -0.49214  -0.45782  -0.42597
  Beta  occ. eigenvalues --   -0.42563  -0.40612  -0.39282  -0.38044  -0.37465
  Beta  occ. eigenvalues --   -0.36936  -0.36530  -0.35395  -0.34667  -0.33362
  Beta  occ. eigenvalues --   -0.32253  -0.31597  -0.31388  -0.30515  -0.29435
  Beta  occ. eigenvalues --   -0.29087  -0.28342  -0.26895  -0.25955  -0.25498
  Beta  occ. eigenvalues --   -0.25431  -0.24873  -0.24439  -0.23592  -0.21360
  Beta  occ. eigenvalues --   -0.18235  -0.16897  -0.15534  -0.11624
  Beta virt. eigenvalues --    0.06237   0.06766   0.07158   0.07740   0.08080
  Beta virt. eigenvalues --    0.08571   0.09321   0.09752   0.10034   0.10317
  Beta virt. eigenvalues --    0.11084   0.11440   0.12002   0.12364   0.12756

 Mulliken charges and spin densities:
               1          2
     1  C    0.372125  -0.962227
     2  C   -0.710229   0.711651
     3  C    0.327716  -0.597568
     4  O   -0.090710   0.019466
     5  C   -2.164800   1.681761
     6  C    0.472579  -0.969840
     7  N    0.325732   0.069147
     8  C   -0.483967   0.251018
     9  C    0.496439  -1.035809
    10  C    0.093215  -0.177544
    11  C   -0.812260   0.840937
    12  O   -0.221935  -0.002592
    13  C    0.355990  -0.906772
    14  C    1.934637  -2.228399
    15  O   -0.338921   0.074049
    16  H    0.109926   0.068268
    17  H    0.077397   0.053034
    18  H   -0.172287   0.309052
    19  H   -0.560443   0.766677
    20  H    0.094190   0.019732
    21  H   -0.145824   0.338070
    22  H    0.112370   0.107520
    23  H    0.212787  -0.078393
    24  H    0.401577  -0.234934
    25  H    0.092399   0.113364
    26  H    0.065550   0.054089
    27  H    0.113792   0.044260
    28  H   -0.175071   0.326285
    29  H   -0.369983   0.598737
    30  H    0.154625   0.041091
    31  H   -0.251491   0.397717
    32  H    0.433423  -0.213851
    33  H   -0.034684   0.190145
    34  H   -0.205716   0.367692
    35  H   -0.223012   0.394766
    36  H   -0.285140   0.569402
 Sum of Mulliken charges =  -1.00000   1.00000

 Dipole moment (field-independent basis, Debye):
    X=              0.7980    Y=             -2.8563    Z=             -0.5186  Tot=              3.0107
 Quadrupole moment (field-independent basis, Debye-Ang):
   XX=           -154.4694   YY=           -162.6211   ZZ=           -126.6200
   XY=              0.4963   XZ=              0.0589   YZ=              8.5733

 Summary of Natural Population Analysis:

                                       Natural Population
                Natural  -----------------------------------------------
    Atom  No    Charge         Core      Valence    Rydberg      Total
 -----------------------------------------------------------------------
      C    1   -0.30047      0.99964     2.29486    0.00598     3.30047
      C    2   -0.01553      0.99959     2.00269    0.01325     3.01553
      C    3   -0.00820      0.99954     1.99550    0.01315     3.00820
      O    4   -0.30287      0.99988     3.29435    0.00864     4.30287
      C    5    0.05454      0.99953     1.93119    0.01474     2.94546
      C    6   -0.09472      0.99957     2.08499    0.01016     3.09472
      N    7   -0.29490      0.99969     2.78165    0.01356     3.79490
      C    8   -0.08229      0.99961     2.07214    0.01054     3.08229
      C    9   -0.19183      0.99962     2.18218    0.01003     3.19183
      C   10   -0.24411      0.99957     2.23576    0.00878     3.24411
      C   11    0.29653      0.99968     1.68271    0.02109     2.70347
      O   12   -0.29258      0.99987     3.28660    0.00610     4.29258
      C   13   -0.33999      0.99961     2.33495    0.00542     3.33999
      C   14   -0.01085      0.99956     1.99765    0.01364     3.01085
      O   15   -0.37386      0.99989     3.36720    0.00676     4.37386
      H   16    0.10216      0.00000     0.39676    0.00108     0.39784
      H   17    0.09944      0.00000     0.39983    0.00073     0.40056
      H   18    0.10022      0.00000     0.39879    0.00098     0.39978
      H   19    0.09940      0.00000     0.39887    0.00173     0.40060
      H   20    0.08312      0.00000     0.41541    0.00147     0.41688
      H   21    0.09086      0.00000     0.40809    0.00104     0.40914
      H   22    0.08140      0.00000     0.41602    0.00258     0.41860
      H   23    0.08348      0.00000     0.41521    0.00131     0.41652
      H   24    0.10709      0.00000     0.39077    0.00215     0.39291
      H   25    0.09667      0.00000     0.40213    0.00120     0.40333
      H   26    0.09318      0.00000     0.40582    0.00100     0.40682
      H   27    0.10061      0.00000     0.39839    0.00101     0.39939
      H   28    0.09783      0.00000     0.40077    0.00140     0.40217
      H   29    0.11424      0.00000     0.38408    0.00168     0.38576
      H   30    0.11260      0.00000     0.38527    0.00213     0.38740
      H   31    0.10617      0.00000     0.39267    0.00116     0.39383
      H   32    0.12525      0.00000     0.37332    0.00143     0.37475
      H   33    0.10805      0.00000     0.39101    0.00095     0.39195
      H   34    0.08240      0.00000     0.41586    0.00174     0.41760
      H   35    0.07899      0.00000     0.41934    0.00167     0.42101
      H   36    0.23797      0.00000     0.24775    0.01427     0.26203
 =======================================================================
   * Total *   -0.00000     14.99487    43.80059    0.20454    59.00000

 Normal termination of Gaussian 16 at Thu Dec 10 18:06:26 2020.
