 Gaussian 16, Revision A.03,

 -----------------------------------------------------------
 # opt freq B3LYP/6-31G(d) empiricaldispersion=gd3bj scf=xqc
 -----------------------------------------------------------

 -------------------------------
 CID_127947064_JID_6218_neutraal
 -------------------------------
 Symbolic Z-matrix:
 Charge =  0 Multiplicity = 1

 SCF Done:  E(RB3LYP) =  -678.587542190     A.U. after   14 cycles
 SCF Done:  E(RB3LYP) =  -678.593067838     A.U. after   12 cycles
 SCF Done:  E(RB3LYP) =  -678.593919229     A.U. after   12 cycles
 SCF Done:  E(RB3LYP) =  -678.594766270     A.U. after   12 cycles
 SCF Done:  E(RB3LYP) =  -678.595059555     A.U. after   14 cycles
 SCF Done:  E(RB3LYP) =  -678.595814107     A.U. after   12 cycles
 SCF Done:  E(RB3LYP) =  -678.596153694     A.U. after   12 cycles
 SCF Done:  E(RB3LYP) =  -678.596381643     A.U. after   11 cycles
 SCF Done:  E(RB3LYP) =  -678.596446528     A.U. after    9 cycles
 SCF Done:  E(RB3LYP) =  -678.596456957     A.U. after    9 cycles
 SCF Done:  E(RB3LYP) =  -678.597585992     A.U. after    6 cycles
 SCF Done:  E(RB3LYP) =  -678.597586002     A.U. after    6 cycles
 SCF Done:  E(RB3LYP) =  -678.597586008     A.U. after    6 cycles
 SCF Done:  E(RB3LYP) =  -678.597586013     A.U. after    6 cycles
 SCF Done:  E(RB3LYP) =  -678.597586017     A.U. after    6 cycles
 Optimization completed.
    -- Stationary point found.
 Normal termination of Gaussian 16 at Thu Dec 10 22:20:44 2020.

 --------------------------------------------------------------------
 #N Geom=AllCheck Guess=TCheck SCRF=Check GenChk RB3LYP/6-31G(d) Freq
 --------------------------------------------------------------------

 Structure from the checkpoint file:  "JID_6218.chk"
 -------------------------------
 CID_127947064_JID_6218_neutraal
 -------------------------------
 Charge =  0 Multiplicity = 1

 SCF Done:  E(RB3LYP) =  -678.597586016     A.U. after    1 cycles

  Exact polarizability: 182.237   1.383 138.441  -1.085  -1.338 133.191
 Approx polarizability: 221.105   5.160 204.460  -5.644 -11.732 203.487

                      1                      2                      3
                      A                      A                      A
 Frequencies --     12.6899                23.4436                46.4305
 Red. masses --      2.2803                 2.4103                 2.7804
 Frc consts  --      0.0002                 0.0008                 0.0035
 IR Inten    --      0.0305                 0.0555                 0.2148

                      4                      5                      6
                      A                      A                      A
 Frequencies --     61.8426                73.8596                87.5581
 Red. masses --      5.0650                 2.7849                 3.1234
 Frc consts  --      0.0114                 0.0090                 0.0141
 IR Inten    --      1.1943                 0.1572                 1.9072

                      7                      8                      9
                      A                      A                      A
 Frequencies --     96.4706               164.3108               201.4102
 Red. masses --      3.1680                 2.7245                 4.1124
 Frc consts  --      0.0174                 0.0433                 0.0983
 IR Inten    --      0.8317                 0.4756                 5.2588

                     10                     11                     12
                      A                      A                      A
 Frequencies --    221.3551               236.6545               254.8778
 Red. masses --      1.0395                 1.2828                 2.7511
 Frc consts  --      0.0300                 0.0423                 0.1053
 IR Inten    --      0.1907                 1.5580                 2.8740

                     13                     14                     15
                      A                      A                      A
 Frequencies --    271.2112               277.7136               286.6974
 Red. masses --      1.4984                 1.4434                 2.0395
 Frc consts  --      0.0649                 0.0656                 0.0988
 IR Inten    --      0.1343                 2.0928                 1.0235

                     16                     17                     18
                      A                      A                      A
 Frequencies --    299.0075               307.2038               326.1269
 Red. masses --      2.0244                 1.9950                 1.7392
 Frc consts  --      0.1066                 0.1109                 0.1090
 IR Inten    --      1.9588                 5.1765                 1.7936

                     19                     20                     21
                      A                      A                      A
 Frequencies --    364.6220               388.5789               398.7658
 Red. masses --      2.2906                 2.3807                 1.9590
 Frc consts  --      0.1794                 0.2118                 0.1835
 IR Inten    --      0.1811                 0.4320                 0.3561

                     22                     23                     24
                      A                      A                      A
 Frequencies --    404.4812               435.0467               477.6697
 Red. masses --      2.3643                 2.5590                 2.9808
 Frc consts  --      0.2279                 0.2854                 0.4007
 IR Inten    --      0.4727                 0.7633                 1.1697

                     25                     26                     27
                      A                      A                      A
 Frequencies --    543.0821               571.7457               634.3291
 Red. masses --      2.8695                 4.1620                 2.6010
 Frc consts  --      0.4986                 0.8016                 0.6166
 IR Inten    --      0.4009                 9.2310                 0.4717

                     28                     29                     30
                      A                      A                      A
 Frequencies --    701.1058               706.3086               765.4545
 Red. masses --      1.9215                 3.9669                 2.5977
 Frc consts  --      0.5565                 1.1660                 0.8968
 IR Inten    --      3.7156                 3.4791                 0.2516

                     31                     32                     33
                      A                      A                      A
 Frequencies --    786.1933               811.8974               825.2192
 Red. masses --      4.4667                 1.6518                 1.6537
 Frc consts  --      1.6267                 0.6415                 0.6635
 IR Inten    --      7.8044                 0.9623                 0.1602

                     34                     35                     36
                      A                      A                      A
 Frequencies --    871.6435               891.4824               909.1896
 Red. masses --      2.5153                 2.8492                 2.6747
 Frc consts  --      1.1259                 1.3341                 1.3027
 IR Inten    --      5.0777                 0.1836                 3.3593

                     37                     38                     39
                      A                      A                      A
 Frequencies --    911.8967               937.6581               948.2211
 Red. masses --      2.0098                 2.3343                 1.7697
 Frc consts  --      0.9847                 1.2092                 0.9375
 IR Inten    --      1.3890                 1.1256                 0.5389

                     40                     41                     42
                      A                      A                      A
 Frequencies --    950.5098               964.7784               978.0611
 Red. masses --      1.7181                 1.3447                 1.2050
 Frc consts  --      0.9146                 0.7374                 0.6792
 IR Inten    --      0.7383                 0.0783                 0.1862

                     43                     44                     45
                      A                      A                      A
 Frequencies --    989.8163              1003.3813              1016.4441
 Red. masses --      1.7914                 2.3802                 1.6455
 Frc consts  --      1.0341                 1.4119                 1.0016
 IR Inten    --      0.6290                11.3986                 1.3996

                     46                     47                     48
                      A                      A                      A
 Frequencies --   1021.4151              1044.9774              1051.1871
 Red. masses --      1.5464                 1.8016                 2.2565
 Frc consts  --      0.9506                 1.1591                 1.4691
 IR Inten    --      7.4978                 3.9457                 5.9135

                     49                     50                     51
                      A                      A                      A
 Frequencies --   1073.9281              1074.3704              1119.2221
 Red. masses --      1.5537                 1.5752                 1.8360
 Frc consts  --      1.0558                 1.0712                 1.3550
 IR Inten    --      2.9249                 0.9915                 7.0204

                     52                     53                     54
                      A                      A                      A
 Frequencies --   1127.1020              1144.0393              1148.2601
 Red. masses --      1.7285                 1.9115                 1.0673
 Frc consts  --      1.2937                 1.4740                 0.8291
 IR Inten    --      2.8023                 3.9082                 1.0092

                     55                     56                     57
                      A                      A                      A
 Frequencies --   1167.3341              1210.1722              1215.6384
 Red. masses --      1.3888                 1.5579                 3.9563
 Frc consts  --      1.1151                 1.3443                 3.4447
 IR Inten    --      1.3190                 1.4581                25.1812

                     58                     59                     60
                      A                      A                      A
 Frequencies --   1237.0858              1242.0214              1263.6006
 Red. masses --      1.7365                 1.9657                 2.2477
 Frc consts  --      1.5657                 1.7866                 2.1145
 IR Inten    --      2.9307                11.5802                 5.3113

                     61                     62                     63
                      A                      A                      A
 Frequencies --   1264.6743              1278.4215              1278.9812
 Red. masses --      1.4041                 2.0391                 2.0521
 Frc consts  --      1.3231                 1.9635                 1.9778
 IR Inten    --      0.4511                 6.6769                11.8793

                     64                     65                     66
                      A                      A                      A
 Frequencies --   1288.3986              1304.9604              1330.3555
 Red. masses --      1.5029                 1.5491                 1.4230
 Frc consts  --      1.4699                 1.5543                 1.4839
 IR Inten    --      0.4889                 1.9438                 0.3024

                     67                     68                     69
                      A                      A                      A
 Frequencies --   1339.1271              1356.2636              1360.8626
 Red. masses --      1.3363                 1.4432                 1.4082
 Frc consts  --      1.4119                 1.5641                 1.5365
 IR Inten    --      0.8996                 0.1827                 7.4205

                     70                     71                     72
                      A                      A                      A
 Frequencies --   1362.2110              1366.1292              1386.1149
 Red. masses --      1.8302                 1.4433                 1.9256
 Frc consts  --      2.0010                 1.5871                 2.1798
 IR Inten    --     67.3115                 3.3907                 1.4874

                     73                     74                     75
                      A                      A                      A
 Frequencies --   1425.1335              1428.2665              1433.6457
 Red. masses --      1.2421                 1.2394                 1.2282
 Frc consts  --      1.4863                 1.4897                 1.4873
 IR Inten    --      3.4301                19.4188                 6.5504

                     76                     77                     78
                      A                      A                      A
 Frequencies --   1458.9172              1485.3084              1510.6302
 Red. masses --      1.2239                 4.8748                 1.0495
 Frc consts  --      1.5348                 6.3364                 1.4110
 IR Inten    --     17.0074               299.0226                 0.1906

                     79                     80                     81
                      A                      A                      A
 Frequencies --   1513.9092              1517.8572              1521.4865
 Red. masses --      1.0789                 1.0567                 1.0697
 Frc consts  --      1.4569                 1.4343                 1.4589
 IR Inten    --      0.7645                 5.0017                 0.7911

                     82                     83                     84
                      A                      A                      A
 Frequencies --   1523.9935              1524.0566              1524.6833
 Red. masses --      1.0547                 1.0618                 1.0802
 Frc consts  --      1.4432                 1.4531                 1.4795
 IR Inten    --      1.1635                 2.4496                 3.4298

                     85                     86                     87
                      A                      A                      A
 Frequencies --   1533.2003              1536.2564              1538.4800
 Red. masses --      1.0807                 1.0574                 1.0600
 Frc consts  --      1.4968                 1.4704                 1.4783
 IR Inten    --      3.9446                 6.7696                12.0488

                     88                     89                     90
                      A                      A                      A
 Frequencies --   1547.2189              1548.0584              1552.4603
 Red. masses --      1.0942                 1.0734                 1.0925
 Frc consts  --      1.5433                 1.5156                 1.5513
 IR Inten    --     17.3880                 8.5311                 2.5553

                     91                     92                     93
                      A                      A                      A
 Frequencies --   1556.2454              1744.4171              3033.4043
 Red. masses --      1.0691                 9.6260                 1.0608
 Frc consts  --      1.5255                17.2583                 5.7508
 IR Inten    --     10.8876               289.7484                30.0606

                     94                     95                     96
                      A                      A                      A
 Frequencies --   3038.9248              3039.4021              3041.3159
 Red. masses --      1.0367                 1.0648                 1.0656
 Frc consts  --      5.6411                 5.7956                 5.8073
 IR Inten    --     16.9256                16.7379                18.3533

                     97                     98                     99
                      A                      A                      A
 Frequencies --   3044.4893              3046.7895              3052.3682
 Red. masses --      1.0457                 1.0620                 1.0559
 Frc consts  --      5.7104                 5.8086                 5.7964
 IR Inten    --     73.9368                 5.2143                61.1596

                    100                    101                    102
                      A                      A                      A
 Frequencies --   3053.0336              3058.4965              3063.0229
 Red. masses --      1.0442                 1.0658                 1.0393
 Frc consts  --      5.7343                 5.8739                 5.7450
 IR Inten    --     12.7546                14.6698                21.7434

                    103                    104                    105
                      A                      A                      A
 Frequencies --   3071.8385              3078.8875              3090.9903
 Red. masses --      1.0662                 1.1091                 1.1038
 Frc consts  --      5.9279                 6.1946                 6.2136
 IR Inten    --     46.1562                17.9808                 2.3770

                    106                    107                    108
                      A                      A                      A
 Frequencies --   3092.6303              3097.3229              3100.5094
 Red. masses --      1.1034                 1.0971                 1.1014
 Frc consts  --      6.2178                 6.2009                 6.2385
 IR Inten    --     77.8774                12.7364                 0.3760

                    109                    110                    111
                      A                      A                      A
 Frequencies --   3103.1618              3105.9318              3110.5093
 Red. masses --      1.1040                 1.1006                 1.1001
 Frc consts  --      6.2635                 6.2558                 6.2709
 IR Inten    --     12.0650                47.4644                37.7287

                    112                    113                    114
                      A                      A                      A
 Frequencies --   3116.8889              3120.5509              3122.3664
 Red. masses --      1.1015                 1.1047                 1.1015
 Frc consts  --      6.3046                 6.3382                 6.3270
 IR Inten    --     46.2789                80.1441                36.1896

                    115                    116                    117
                      A                      A                      A
 Frequencies --   3126.3234              3154.1261              3156.4632
 Red. masses --      1.0982                 1.1001                 1.1015
 Frc consts  --      6.3241                 6.4484                 6.4659
 IR Inten    --     34.8379                12.4014                10.6549

 - Thermochemistry -
 -------------------
 Temperature   298.150 Kelvin.  Pressure   1.00000 Atm.
 Atom     1 has atomic number  6 and mass  12.00000

 Molecular mass:   223.19361 amu.
 Principal axes and moments of inertia in atomic units:
                           1         2         3
     Eigenvalues --  1691.842626710.062577131.90809
           X            0.99998  -0.00542   0.00248
           Y            0.00530   0.99892   0.04620
           Z           -0.00273  -0.04619   0.99893
 This molecule is an asymmetric top.
 Rotational symmetry number  1.
 Warning -- assumption of classical behavior for rotation
           may cause significant error
 Rotational temperatures (Kelvin)      0.05120     0.01291     0.01214
 Rotational constants (GHZ):           1.06673     0.26896     0.25305
 Zero-point vibrational energy     981160.8 (Joules/Mol)
                                  234.50305 (Kcal/Mol)
 Warning -- explicit consideration of  26 degrees of freedom as
           vibrations may cause significant error
 Vibrational temperatures:     18.26    33.73    66.80    88.98   106.27
          (Kelvin)            125.98   138.80   236.41   289.78   318.48
                              340.49   366.71   390.21   399.57   412.49
                              430.21   442.00   469.22   524.61   559.08
                              573.73   581.96   625.94   687.26   781.37
                              822.61   912.66  1008.73  1016.22  1101.32
                             1131.16  1168.14  1187.31  1254.10  1282.64
                             1308.12  1312.02  1349.08  1364.28  1367.57
                             1388.10  1407.21  1424.12  1443.64  1462.44
                             1469.59  1503.49  1512.42  1545.14  1545.78
                             1610.31  1621.65  1646.02  1652.09  1679.53
                             1741.17  1749.03  1779.89  1786.99  1818.04
                             1819.58  1839.36  1840.17  1853.72  1877.55
                             1914.08  1926.71  1951.36  1957.98  1959.92
                             1965.56  1994.31  2050.45  2054.96  2062.70
                             2099.06  2137.03  2173.46  2178.18  2183.86
                             2189.08  2192.69  2192.78  2193.68  2205.93
                             2210.33  2213.53  2226.10  2227.31  2233.64
                             2239.09  2509.83  4364.39  4372.34  4373.02
                             4375.78  4380.34  4383.65  4391.68  4392.63
                             4400.49  4407.01  4419.69  4429.83  4447.25
                             4449.61  4456.36  4460.94  4464.76  4468.74
                             4475.33  4484.51  4489.78  4492.39  4498.08
                             4538.08  4541.45

 Zero-point correction=                           0.373704 (Hartree/Particle)
 Thermal correction to Energy=                    0.391482
 Thermal correction to Enthalpy=                  0.392427
 Thermal correction to Gibbs Free Energy=         0.326192
 Sum of electronic and zero-point Energies=           -678.223882
 Sum of electronic and thermal Energies=              -678.206104
 Sum of electronic and thermal Enthalpies=            -678.205159
 Sum of electronic and thermal Free Energies=         -678.271394

                     E (Thermal)             CV                S
                      KCal/Mol        Cal/Mol-Kelvin    Cal/Mol-Kelvin
 Total                  245.659             67.196            139.403
 Electronic               0.000              0.000              0.000
 Translational            0.889              2.981             42.111
 Rotational               0.889              2.981             32.759
 Vibrational            243.882             61.235             64.532
 Vibration     1          0.593              1.987              7.538
 Vibration     2          0.593              1.985              6.319
 Vibration     3          0.595              1.979              4.964
 Vibration     4          0.597              1.973              4.398
 Vibration     5          0.599              1.966              4.048
 Vibration     6          0.601              1.958              3.714
 Vibration     7          0.603              1.952              3.524
 Vibration     8          0.623              1.886              2.500
 Vibration     9          0.638              1.838              2.120
 Vibration    10          0.648              1.809              1.948
 Vibration    11          0.656              1.785              1.828
 Vibration    12          0.665              1.755              1.697
 Vibration    13          0.675              1.726              1.588
 Vibration    14          0.679              1.715              1.548
 Vibration    15          0.684              1.698              1.493
 Vibration    16          0.692              1.676              1.422
 Vibration    17          0.697              1.660              1.377
 Vibration    18          0.710              1.623              1.279
 Vibration    19          0.738              1.545              1.102
 Vibration    20          0.757              1.495              1.006
 Vibration    21          0.765              1.473              0.967
 Vibration    22          0.770              1.460              0.946
 Vibration    23          0.796              1.394              0.842
 Vibration    24          0.834              1.300              0.716
 Vibration    25          0.898              1.155              0.559
 Vibration    26          0.928              1.092              0.501

 Optimization completed.
    -- Stationary point found.
 Normal termination of Gaussian 16 at Thu Dec 10 22:38:35 2020.

 ----------------------------------------------------------------------
 # B3LYP/6-311++G(d,p) empiricaldispersion=gd3bj scf=xqc pop=npa geom=c
 heck
 ----------------------------------------------------------------------

 ---------------------------------------
 CID_127947064_JID_6218_Energie_neutraal
 ---------------------------------------
 Structure from the checkpoint file:  "JID_6218.chk"
 Charge =  0 Multiplicity = 1

 SCF Done:  E(RB3LYP) =  -678.783062290     A.U. after   15 cycles
 Normal termination of Gaussian 16 at Thu Dec 10 22:48:20 2020.

 ----------------------------------------------------------------------
 # B3LYP/6-311++G(d,p) empiricaldispersion=gd3bj scf=xqc pop=npa geom=c
 heck
 ----------------------------------------------------------------------

 -------------------------------------
 CID_127947064_JID_6218_Energie_kation
 -------------------------------------
 Structure from the checkpoint file:  "JID_6218.chk"
 Charge =  1 Multiplicity = 2

 SCF Done:  E(UB3LYP) =  -678.470062951     A.U. after   33 cycles
 SCF Done:  E(UB3LYP) =  -678.471440013     a.u. after   12 cycles
 Normal termination of Gaussian 16 at Fri Dec 11 02:02:07 2020.
 Gaussian 16:  ES64L-G16RevA.03 25-Dec-2016

 ----------------------------------------------------------------------
 # B3LYP/6-311++G(d,p) empiricaldispersion=gd3bj scf=xqc pop=npa geom=c
 heck
 ----------------------------------------------------------------------

 ------------------------------------
 CID_127947064_JID_6218_Energie_anion
 ------------------------------------
 Structure from the checkpoint file:  "JID_6218.chk"
 Charge = -1 Multiplicity = 2

                         Standard orientation:
 ---------------------------------------------------------------------
 Center     Atomic      Atomic             Coordinates (Angstroms)
 Number     Number       Type             X           Y           Z
 ---------------------------------------------------------------------
      1          6           0        2.770926    1.292836    1.521825
      2          6           0        1.948815    0.269425    0.723433
      3          6           0        1.021120    1.037314   -0.217189
      4          8           0        1.428486    1.849667   -1.048153
      5          7           0       -0.306476    0.790375   -0.088998
      6          6           0       -1.390474    1.283468   -0.935215
      7          6           0       -2.352489    0.299616   -0.214240
      8          6           0       -1.132864   -0.170132    0.645730
      9          6           0       -3.013097   -0.802328   -1.045088
     10          6           0       -3.991152   -1.473303   -0.058172
     11          6           0       -4.376620   -0.360647    0.964703
     12          6           0       -3.531097    0.875362    0.574386
     13          6           0        2.807364   -0.780361   -0.062607
     14          6           0        3.470637   -1.738392    0.942557
     15          6           0        1.887650   -1.606278   -0.982149
     16          6           0        3.891699   -0.103815   -0.918433
     17          1           0        3.285719    1.978188    0.844760
     18          1           0        3.509975    0.805022    2.164110
     19          1           0        2.113161    1.890202    2.163010
     20          1           0        1.331751   -0.302138    1.428956
     21          1           0       -1.606328    2.349272   -0.795547
     22          1           0       -1.226917    1.093644   -2.002739
     23          1           0       -0.840993   -1.217521    0.503619
     24          1           0       -1.208545    0.036768    1.720783
     25          1           0       -3.562058   -0.338641   -1.875476
     26          1           0       -2.289162   -1.498825   -1.482234
     27          1           0       -3.493744   -2.302832    0.457002
     28          1           0       -4.862369   -1.896370   -0.567110
     29          1           0       -4.140982   -0.682601    1.984661
     30          1           0       -5.447186   -0.135311    0.946924
     31          1           0       -3.214132    1.473438    1.435616
     32          1           0       -4.105114    1.538493   -0.085824
     33          1           0        2.720463   -2.259380    1.550586
     34          1           0        4.057567   -2.497559    0.412318
     35          1           0        4.150978   -1.213742    1.621199
     36          1           0        1.428690   -0.981869   -1.755644
     37          1           0        2.460361   -2.393358   -1.485867
     38          1           0        1.086804   -2.094336   -0.412630
     39          1           0        3.451812    0.638596   -1.588296
     40          1           0        4.636523    0.400622   -0.293807
     41          1           0        4.418649   -0.856304   -1.517411
 ---------------------------------------------------------------------

 SCF Done:  E(UB3LYP) =  -678.773119802     A.U. after   32 cycles

 The electronic state is 2-A.
 Alpha  occ. eigenvalues --  -18.98548 -14.24029 -10.16726 -10.11027 -10.10824
 Alpha  occ. eigenvalues --  -10.09646 -10.09302 -10.08766 -10.07021 -10.06986
 Alpha  occ. eigenvalues --  -10.06929 -10.06732 -10.06731 -10.06712 -10.06421
 Alpha  occ. eigenvalues --  -10.06028  -0.93774  -0.85916  -0.74628  -0.73831
 Alpha  occ. eigenvalues --   -0.67160  -0.64691  -0.61693  -0.60443  -0.59578
 Alpha  occ. eigenvalues --   -0.59323  -0.57465  -0.53826  -0.47473  -0.46180
 Alpha  occ. eigenvalues --   -0.44391  -0.43628  -0.40321  -0.39395  -0.38630
 Alpha  occ. eigenvalues --   -0.37503  -0.36419  -0.35481  -0.34738  -0.34208
 Alpha  occ. eigenvalues --   -0.32721  -0.32094  -0.31023  -0.30344  -0.30089
 Alpha  occ. eigenvalues --   -0.29539  -0.28754  -0.27780  -0.27621  -0.26607
 Alpha  occ. eigenvalues --   -0.26116  -0.24905  -0.24313  -0.23836  -0.23748
 Alpha  occ. eigenvalues --   -0.23086  -0.23032  -0.22308  -0.22105  -0.21744
 Alpha  occ. eigenvalues --   -0.15310  -0.14724   0.04024
 Alpha virt. eigenvalues --    0.06041   0.06981   0.07307   0.07969   0.08250
 Alpha virt. eigenvalues --    0.08656   0.09587   0.09874   0.10004   0.10139
 Alpha virt. eigenvalues --    0.10759   0.10912   0.11172   0.11580   0.12429

  Beta  occ. eigenvalues --  -18.98545 -14.24026 -10.16726 -10.10988 -10.10815
  Beta  occ. eigenvalues --  -10.09644 -10.09304 -10.08759 -10.06998 -10.06962
  Beta  occ. eigenvalues --  -10.06916 -10.06709 -10.06707 -10.06687 -10.06402
  Beta  occ. eigenvalues --  -10.06019  -0.93770  -0.85904  -0.74609  -0.73813
  Beta  occ. eigenvalues --   -0.67142  -0.64669  -0.61640  -0.60391  -0.59536
  Beta  occ. eigenvalues --   -0.59297  -0.57422  -0.53793  -0.47398  -0.46145
  Beta  occ. eigenvalues --   -0.44323  -0.43587  -0.40299  -0.39367  -0.38599
  Beta  occ. eigenvalues --   -0.37472  -0.36375  -0.35458  -0.34718  -0.34187
  Beta  occ. eigenvalues --   -0.32696  -0.32075  -0.31001  -0.30325  -0.30059
  Beta  occ. eigenvalues --   -0.29512  -0.28740  -0.27762  -0.27600  -0.26588
  Beta  occ. eigenvalues --   -0.26098  -0.24862  -0.24263  -0.23814  -0.23723
  Beta  occ. eigenvalues --   -0.23060  -0.23001  -0.22283  -0.22069  -0.21719
  Beta  occ. eigenvalues --   -0.15299  -0.14707
  Beta virt. eigenvalues --    0.06086   0.06720   0.07497   0.08026   0.08346
  Beta virt. eigenvalues --    0.08612   0.08820   0.09856   0.10156   0.10304
  Beta virt. eigenvalues --    0.10471   0.10853   0.11044   0.11435   0.11674

 Mulliken charges and spin densities:
               1          2
     1  C    0.466671  -1.173309
     2  C    1.290493  -0.602895
     3  C   -1.112966   0.300873
     4  O   -0.303833   0.007424
     5  N    0.044453   0.146248
     6  C   -0.181635  -0.069698
     7  C   -1.467471   2.572202
     8  C    1.148733  -2.020244
     9  C    0.044284  -0.575744
    10  C   -0.074174  -0.329042
    11  C    0.665050  -1.062981
    12  C    0.222658  -0.754350
    13  C   -1.001601   1.585607
    14  C    0.322174  -0.888745
    15  C    0.357446  -0.964453
    16  C   -0.652152  -0.011237
    17  H    0.168074   0.013526
    18  H    0.002469   0.144160
    19  H   -0.027680   0.172155
    20  H    0.221067   0.031608
    21  H    0.029434   0.165970
    22  H    0.124722   0.048520
    23  H    0.607036  -0.434570
    24  H   -0.398067   0.593412
    25  H   -0.182230   0.336272
    26  H   -0.045080   0.201453
    27  H   -0.302191   0.449628
    28  H   -0.251567   0.409071
    29  H   -0.132735   0.276223
    30  H   -0.173925   0.325671
    31  H   -0.121240   0.290314
    32  H   -0.241562   0.393665
    33  H   -0.403422   0.558853
    34  H    0.044271   0.094036
    35  H    0.076046   0.043673
    36  H    0.221205  -0.038030
    37  H   -0.144275   0.309272
    38  H   -0.161060   0.306963
    39  H    0.139303   0.065182
    40  H    0.067515   0.060231
    41  H    0.115761   0.023084
 Sum of Mulliken charges =  -1.00000   1.00000

 Dipole moment (field-independent basis, Debye):
    X=              4.2809    Y=              1.4830    Z=             -1.5090  Tot=              4.7753
 Quadrupole moment (field-independent basis, Debye-Ang):
   XX=           -186.1826   YY=           -147.9227   ZZ=           -142.2867
   XY=             -3.3550   XZ=              2.2806   YZ=              4.7020

 Summary of Natural Population Analysis:

                                       Natural Population
                Natural  -----------------------------------------------
    Atom  No    Charge         Core      Valence    Rydberg      Total
 -----------------------------------------------------------------------
      C    1   -0.28528      0.99965     2.27849    0.00714     3.28528
      C    2   -0.14279      0.99952     2.13048    0.01278     3.14279
      C    3    0.35187      0.99959     1.62360    0.02495     2.64813
      O    4   -0.33454      0.99988     3.32994    0.00472     4.33454
      N    5   -0.25383      0.99963     2.74334    0.01085     3.75383
      C    6   -0.06690      0.99960     2.05802    0.00929     3.06690
      C    7   -0.04578      0.99954     2.03264    0.01361     3.04578
      C    8   -0.07073      0.99959     2.06093    0.01021     3.07073
      C    9   -0.18719      0.99959     2.17830    0.00930     3.18719
      C   10   -0.19297      0.99965     2.18576    0.00756     3.19297
      C   11   -0.19176      0.99965     2.18508    0.00703     3.19176
      C   12   -0.18764      0.99959     2.17895    0.00911     3.18764
      C   13   -0.03910      0.99958     2.02812    0.01140     3.03910
      C   14   -0.28482      0.99962     2.27769    0.00751     3.28482
      C   15   -0.28676      0.99962     2.27980    0.00734     3.28676
      C   16   -0.29120      0.99962     2.28552    0.00606     3.29120
      H   17    0.10591      0.00000     0.39315    0.00093     0.39409
      H   18    0.09817      0.00000     0.40110    0.00072     0.40183
      H   19    0.10186      0.00000     0.39734    0.00080     0.39814
      H   20    0.10374      0.00000     0.39374    0.00253     0.39626
      H   21    0.09714      0.00000     0.40167    0.00119     0.40286
      H   22    0.09763      0.00000     0.40126    0.00112     0.40237
      H   23    0.09738      0.00000     0.40073    0.00188     0.40262
      H   24    0.09860      0.00000     0.39935    0.00205     0.40140
      H   25    0.09812      0.00000     0.40055    0.00133     0.40188
      H   26    0.10261      0.00000     0.39599    0.00140     0.39739
      H   27    0.09846      0.00000     0.39986    0.00167     0.40154
      H   28    0.10004      0.00000     0.39867    0.00129     0.39996
      H   29    0.09887      0.00000     0.39944    0.00169     0.40113
      H   30    0.09924      0.00000     0.39935    0.00141     0.40076
      H   31    0.10310      0.00000     0.39561    0.00129     0.39690
      H   32    0.09834      0.00000     0.40023    0.00142     0.40166
      H   33    0.10184      0.00000     0.39702    0.00114     0.39816
      H   34    0.09884      0.00000     0.40036    0.00081     0.40116
      H   35    0.09820      0.00000     0.40097    0.00083     0.40180
      H   36    0.10378      0.00000     0.39528    0.00094     0.39622
      H   37    0.09896      0.00000     0.40026    0.00078     0.40104
      H   38    0.10085      0.00000     0.39783    0.00133     0.39915
      H   39    0.11498      0.00000     0.38419    0.00083     0.38502
      H   40    0.09719      0.00000     0.40209    0.00072     0.40281
      H   41    0.09558      0.00000     0.40367    0.00076     0.40442
 =======================================================================
   * Total *    0.00000     15.99390    45.81637    0.18973    62.00000

 Normal termination of Gaussian 16 at Fri Dec 11 02:30:11 2020.
