 Gaussian 16, Revision A.03,

 -----------------------------------------------------------
 # opt freq B3LYP/6-31G(d) empiricaldispersion=gd3bj scf=xqc
 -----------------------------------------------------------

 -------------------------------
 CID_136902109_JID_5850_neutraal
 -------------------------------
 Symbolic Z-matrix:
 Charge =  0 Multiplicity = 1

 SCF Done:  E(RB3LYP) =  -1027.75068363     A.U. after   15 cycles
 SCF Done:  E(RB3LYP) =  -1027.75216952     A.U. after   13 cycles
 SCF Done:  E(RB3LYP) =  -1027.75209318     A.U. after   13 cycles
 SCF Done:  E(RB3LYP) =  -1027.75539947     A.U. after   13 cycles
 SCF Done:  E(RB3LYP) =  -1027.75486561     A.U. after   13 cycles
 SCF Done:  E(RB3LYP) =  -1027.75728982     A.U. after   12 cycles
 SCF Done:  E(RB3LYP) =  -1027.75783345     A.U. after   11 cycles
 SCF Done:  E(RB3LYP) =  -1027.75792661     A.U. after   11 cycles
 SCF Done:  E(RB3LYP) =  -1027.75798849     A.U. after   11 cycles
 SCF Done:  E(RB3LYP) =  -1027.75802239     A.U. after   10 cycles
 SCF Done:  E(RB3LYP) =  -1027.75866700     A.U. after    9 cycles
 SCF Done:  E(RB3LYP) =  -1027.75867002     A.U. after   10 cycles
 SCF Done:  E(RB3LYP) =  -1027.75867009     A.U. after    7 cycles
 SCF Done:  E(RB3LYP) =  -1027.75867022     A.U. after    8 cycles
 SCF Done:  E(RB3LYP) =  -1027.75867022     A.U. after    7 cycles
 Optimization completed.
    -- Stationary point found.
 Normal termination of Gaussian 16 at Thu Dec 10 17:37:03 2020.

 --------------------------------------------------------------------
 #N Geom=AllCheck Guess=TCheck SCRF=Check GenChk RB3LYP/6-31G(d) Freq
 --------------------------------------------------------------------

 Structure from the checkpoint file:  "JID_5850.chk"
 -------------------------------
 CID_136902109_JID_5850_neutraal
 -------------------------------
 Charge =  0 Multiplicity = 1

 SCF Done:  E(RB3LYP) =  -1027.75867022     A.U. after    1 cycles

  Exact polarizability: 169.391   1.371 136.526  10.124  -2.625 109.005
 Approx polarizability: 225.083   1.993 219.893  17.571 -10.421 188.603

                      1                      2                      3
                      A                      A                      A
 Frequencies --     31.2486                40.8886                61.6631
 Red. masses --      3.8827                 5.3779                 8.5698
 Frc consts  --      0.0022                 0.0053                 0.0192
 IR Inten    --      0.5056                 3.0385                 4.0384

                      4                      5                      6
                      A                      A                      A
 Frequencies --     67.1779               109.9869               158.6107
 Red. masses --      4.4831                 3.9930                 3.0262
 Frc consts  --      0.0119                 0.0285                 0.0449
 IR Inten    --      0.7116                 0.4311                 0.6628

                      7                      8                      9
                      A                      A                      A
 Frequencies --    175.8233               207.7098               239.3483
 Red. masses --      3.1111                 6.7238                 1.1000
 Frc consts  --      0.0567                 0.1709                 0.0371
 IR Inten    --      1.3972                 1.0929                 0.1631

                     10                     11                     12
                      A                      A                      A
 Frequencies --    266.9213               290.4438               299.9942
 Red. masses --      3.2357                 2.3858                 1.3775
 Frc consts  --      0.1358                 0.1186                 0.0730
 IR Inten    --      1.0089                 3.8699                 0.7618

                     13                     14                     15
                      A                      A                      A
 Frequencies --    314.2911               336.6829               356.5029
 Red. masses --      2.3656                 3.4169                 2.7903
 Frc consts  --      0.1377                 0.2282                 0.2089
 IR Inten    --      2.2659                 0.8790                 0.6761

                     16                     17                     18
                      A                      A                      A
 Frequencies --    413.4403               456.0084               480.0098
 Red. masses --      4.4259                 2.8687                 2.8081
 Frc consts  --      0.4457                 0.3515                 0.3812
 IR Inten    --      6.3074                 1.7885                 4.4173

                     19                     20                     21
                      A                      A                      A
 Frequencies --    523.5473               583.6744               632.2652
 Red. masses --      4.8524                 2.1314                 4.2785
 Frc consts  --      0.7836                 0.4278                 1.0077
 IR Inten    --     21.8313                24.5707                 8.1085

                     22                     23                     24
                      A                      A                      A
 Frequencies --    634.3545               644.2707               677.5252
 Red. masses --      4.0565                 4.8032                 3.4041
 Frc consts  --      0.9617                 1.1747                 0.9207
 IR Inten    --      5.3003                 6.3352                42.8095

                     25                     26                     27
                      A                      A                      A
 Frequencies --    693.9568               756.8778               772.8640
 Red. masses --      5.7236                 2.6055                 3.5444
 Frc consts  --      1.6240                 0.8794                 1.2474
 IR Inten    --      6.6476                16.3031                 4.2270

                     28                     29                     30
                      A                      A                      A
 Frequencies --    805.0551               810.0505               903.0745
 Red. masses --      1.2232                 2.9240                 1.3187
 Frc consts  --      0.4671                 1.1305                 0.6336
 IR Inten    --     37.2616                 4.3317                 2.7713

                     31                     32                     33
                      A                      A                      A
 Frequencies --    904.5340               913.2769               924.6465
 Red. masses --      2.7004                 5.9581                 1.7630
 Frc consts  --      1.3018                 2.9280                 0.8881
 IR Inten    --      3.6003                15.4798                 0.8814

                     34                     35                     36
                      A                      A                      A
 Frequencies --    942.0803               990.9543               998.6408
 Red. masses --      6.3563                 3.2269                 1.9505
 Frc consts  --      3.3238                 1.8670                 1.1461
 IR Inten    --      7.2518                 5.4452                 4.6894

                     37                     38                     39
                      A                      A                      A
 Frequencies --   1020.2495              1028.9660              1044.2839
 Red. masses --      2.6345                 2.3824                 1.6367
 Frc consts  --      1.6157                 1.4862                 1.0516
 IR Inten    --     11.1731                 0.6722                 1.2635

                     40                     41                     42
                      A                      A                      A
 Frequencies --   1059.5643              1062.4199              1085.8853
 Red. masses --      1.4516                 1.9364                 2.2826
 Frc consts  --      0.9602                 1.2878                 1.5858
 IR Inten    --      1.9749                19.6254                 2.2033

                     43                     44                     45
                      A                      A                      A
 Frequencies --   1123.9585              1165.6358              1186.2739
 Red. masses --      1.6796                 2.0182                 1.5623
 Frc consts  --      1.2501                 1.6157                 1.2953
 IR Inten    --      8.8769                34.5553                24.2155

                     46                     47                     48
                      A                      A                      A
 Frequencies --   1214.2458              1224.0964              1244.2439
 Red. masses --      1.3884                 2.5140                 2.5444
 Frc consts  --      1.2061                 2.2194                 2.3208
 IR Inten    --     17.6511                32.0618                39.4981

                     49                     50                     51
                      A                      A                      A
 Frequencies --   1285.3430              1305.1399              1312.2023
 Red. masses --      1.8970                 2.0755                 1.2050
 Frc consts  --      1.8465                 2.0830                 1.2225
 IR Inten    --     22.9389                52.2480                 7.0538

                     52                     53                     54
                      A                      A                      A
 Frequencies --   1355.0472              1359.5400              1394.7282
 Red. masses --      1.5241                 1.4060                 1.6415
 Frc consts  --      1.6488                 1.5311                 1.8813
 IR Inten    --     22.3754                53.2200                15.0807

                     55                     56                     57
                      A                      A                      A
 Frequencies --   1397.0370              1407.6182              1423.3940
 Red. masses --      1.8558                 1.3072                 1.4300
 Frc consts  --      2.1341                 1.5260                 1.7070
 IR Inten    --     28.2501                 2.0889                40.4037

                     58                     59                     60
                      A                      A                      A
 Frequencies --   1444.8413              1446.2728              1500.7686
 Red. masses --      1.2369                 1.2557                 1.2233
 Frc consts  --      1.5214                 1.5475                 1.6234
 IR Inten    --      5.3099                 9.5540                 5.1613

                     61                     62                     63
                      A                      A                      A
 Frequencies --   1504.4250              1513.7241              1518.1856
 Red. masses --      1.0890                 1.6079                 1.3250
 Frc consts  --      1.4522                 2.1708                 1.7993
 IR Inten    --      3.0160                11.6736                22.2602

                     64                     65                     66
                      A                      A                      A
 Frequencies --   1521.5387              1525.8030              1534.0052
 Red. masses --      1.3884                 1.1066                 1.1310
 Frc consts  --      1.8938                 1.5179                 1.5681
 IR Inten    --      6.4995                 1.4362                 9.0863

                     67                     68                     69
                      A                      A                      A
 Frequencies --   1541.8957              1626.4379              1702.9896
 Red. masses --      1.0993                 6.1634                 6.3437
 Frc consts  --      1.5398                 9.6060                10.8397
 IR Inten    --      2.9400                14.9014               503.1217

                     70                     71                     72
                      A                      A                      A
 Frequencies --   3001.5098              3046.8675              3049.5049
 Red. masses --      1.0703                 1.0644                 1.0496
 Frc consts  --      5.6813                 5.8218                 5.7509
 IR Inten    --     59.2036                 1.5991                29.1282

                     73                     74                     75
                      A                      A                      A
 Frequencies --   3056.4075              3061.1985              3064.8660
 Red. masses --      1.0535                 1.0629                 1.0912
 Frc consts  --      5.7981                 5.8682                 6.0393
 IR Inten    --     20.2737                41.8922                19.5451

                     76                     77                     78
                      A                      A                      A
 Frequencies --   3072.6541              3101.4064              3116.5367
 Red. masses --      1.0838                 1.1015                 1.0973
 Frc consts  --      6.0285                 6.2424                 6.2792
 IR Inten    --     32.6126                21.6340                19.2078

                     79                     80                     81
                      A                      A                      A
 Frequencies --   3125.5806              3146.4356              3163.2031
 Red. masses --      1.1025                 1.1014                 1.0981
 Frc consts  --      6.3458                 6.4247                 6.4738
 IR Inten    --     22.5319                22.8246                13.6933

                     82                     83                     84
                      A                      A                      A
 Frequencies --   3257.7302              3289.0655              3557.4449
 Red. masses --      1.0945                 1.1002                 1.0746
 Frc consts  --      6.8439                 7.0122                 8.0129
 IR Inten    --      4.1466                 0.0947                59.1424

 - Thermochemistry -
 -------------------
 Temperature   298.150 Kelvin.  Pressure   1.00000 Atm.
 Atom     1 has atomic number  6 and mass  12.00000

 Molecular mass:   225.09358 amu.
 Principal axes and moments of inertia in atomic units:
                           1         2         3
     Eigenvalues --  1725.509064967.159905700.03317
           X            0.99963   0.02414   0.01270
           Y           -0.02429   0.99963   0.01185
           Z           -0.01241  -0.01215   0.99985
 This molecule is an asymmetric top.
 Rotational symmetry number  1.
 Warning -- assumption of classical behavior for rotation
           may cause significant error
 Rotational temperatures (Kelvin)      0.05020     0.01744     0.01520
 Rotational constants (GHZ):           1.04592     0.36333     0.31662
 Zero-point vibrational energy     655610.8 (Joules/Mol)
                                  156.69475 (Kcal/Mol)
 Warning -- explicit consideration of  20 degrees of freedom as
           vibrations may cause significant error
 Vibrational temperatures:     44.96    58.83    88.72    96.65   158.25
          (Kelvin)            228.21   252.97   298.85   344.37   384.04
                              417.88   431.62   452.19   484.41   512.93
                              594.85   656.09   690.63   753.27   839.78
                              909.69   912.69   926.96   974.81   998.45
                             1088.98  1111.98  1158.29  1165.48  1299.32
                             1301.42  1314.00  1330.36  1355.44  1425.76
                             1436.82  1467.91  1480.45  1502.49  1524.48
                             1528.59  1562.35  1617.13  1677.09  1706.78
                             1747.03  1761.20  1790.19  1849.32  1877.81
                             1887.97  1949.61  1956.07  2006.70  2010.02
                             2025.25  2047.95  2078.80  2080.86  2159.27
                             2164.53  2177.91  2184.33  2189.15  2195.29
                             2207.09  2218.44  2340.08  2450.22  4318.50
                             4383.76  4387.56  4397.49  4404.38  4409.66
                             4420.86  4462.23  4484.00  4497.01  4527.02
                             4551.14  4687.15  4732.23  5118.37

 Zero-point correction=                           0.249709 (Hartree/Particle)
 Thermal correction to Energy=                    0.264234
 Thermal correction to Enthalpy=                  0.265178
 Thermal correction to Gibbs Free Energy=         0.207046
 Sum of electronic and zero-point Energies=          -1027.508961
 Sum of electronic and thermal Energies=             -1027.494437
 Sum of electronic and thermal Enthalpies=           -1027.493492
 Sum of electronic and thermal Free Energies=        -1027.551624

                     E (Thermal)             CV                S
                      KCal/Mol        Cal/Mol-Kelvin    Cal/Mol-Kelvin
 Total                  165.809             55.017            122.348
 Electronic               0.000              0.000              0.000
 Translational            0.889              2.981             42.136
 Rotational               0.889              2.981             32.258
 Vibrational            164.032             49.055             47.954
 Vibration     1          0.594              1.983              5.749
 Vibration     2          0.594              1.981              5.216
 Vibration     3          0.597              1.973              4.403
 Vibration     4          0.598              1.970              4.234
 Vibration     5          0.606              1.941              3.269
 Vibration     6          0.621              1.893              2.566
 Vibration     7          0.628              1.872              2.372
 Vibration     8          0.641              1.829              2.064
 Vibration     9          0.657              1.780              1.808
 Vibration    10          0.672              1.734              1.616
 Vibration    11          0.686              1.692              1.471
 Vibration    12          0.693              1.674              1.417
 Vibration    13          0.702              1.646              1.340
 Vibration    14          0.717              1.602              1.228
 Vibration    15          0.732              1.562              1.137
 Vibration    16          0.777              1.441              0.915
 Vibration    17          0.814              1.348              0.778
 Vibration    18          0.836              1.294              0.710
 Vibration    19          0.879              1.198              0.602
 Vibration    20          0.941              1.067              0.479

 Optimization completed.
    -- Stationary point found.
 Normal termination of Gaussian 16 at Thu Dec 10 17:47:42 2020.

 ----------------------------------------------------------------------
 # B3LYP/6-311++G(d,p) empiricaldispersion=gd3bj scf=xqc pop=npa geom=c
 heck
 ----------------------------------------------------------------------

 ---------------------------------------
 CID_136902109_JID_5850_Energie_neutraal
 ---------------------------------------
 Structure from the checkpoint file:  "JID_5850.chk"
 Charge =  0 Multiplicity = 1

 SCF Done:  E(RB3LYP) =  -1027.95730384     A.U. after   15 cycles
 Normal termination of Gaussian 16 at Thu Dec 10 17:51:59 2020.

 ----------------------------------------------------------------------
 # B3LYP/6-311++G(d,p) empiricaldispersion=gd3bj scf=xqc pop=npa geom=c
 heck
 ----------------------------------------------------------------------

 -------------------------------------
 CID_136902109_JID_5850_Energie_kation
 -------------------------------------
 Structure from the checkpoint file:  "JID_5850.chk"
 Charge =  1 Multiplicity = 2

 SCF Done:  E(UB3LYP) =  -1027.66790562     A.U. after   27 cycles
 Normal termination of Gaussian 16 at Thu Dec 10 18:02:02 2020.
 Gaussian 16:  ES64L-G16RevA.03 25-Dec-2016

 ----------------------------------------------------------------------
 # B3LYP/6-311++G(d,p) empiricaldispersion=gd3bj scf=xqc pop=npa geom=c
 heck
 ----------------------------------------------------------------------

 ------------------------------------
 CID_136902109_JID_5850_Energie_anion
 ------------------------------------
 Structure from the checkpoint file:  "JID_5850.chk"
 Charge = -1 Multiplicity = 2

                         Standard orientation:
 ---------------------------------------------------------------------
 Center     Atomic      Atomic             Coordinates (Angstroms)
 Number     Number       Type             X           Y           Z
 ---------------------------------------------------------------------
      1          6           0        0.624016    1.994824    0.340237
      2          6           0        0.947755    1.233936   -0.952283
      3          6           0        2.427515    0.921525   -1.194739
      4          6           0        3.112139    0.017790   -0.159965
      5         16           0        2.022305   -1.356587    0.461827
      6          6           0        0.386835   -1.082984   -0.215195
      7          7           0       -0.447014   -1.991463    0.133067
      8          6           0       -1.833391   -1.919371   -0.294793
      9          6           0       -2.531927   -0.607337   -0.051117
     10          6           0       -3.361592    0.164047   -0.817627
     11          6           0       -3.634130    1.290405    0.007087
     12          7           0       -3.022097    1.219350    1.166162
     13          8           0       -2.321432    0.004773    1.132142
     14          7           0        0.177948   -0.013835   -1.058011
     15          6           0        3.712820    0.767474    1.033276
     16          1           0        0.820615    1.377706    1.220621
     17          1           0       -0.436776    2.265184    0.366004
     18          1           0        1.216643    2.913593    0.414703
     19          1           0        0.618128    1.844925   -1.800851
     20          1           0        2.492895    0.447194   -2.179503
     21          1           0        2.987393    1.863568   -1.248592
     22          1           0        3.929099   -0.501898   -0.670558
     23          1           0       -1.944955   -2.145485   -1.367403
     24          1           0       -2.379116   -2.704164    0.243091
     25          1           0       -3.724522   -0.043412   -1.813144
     26          1           0       -4.251888    2.153925   -0.205726
     27          1           0       -0.802960    0.144768   -1.258842
     28          1           0        4.221058    0.074950    1.711797
     29          1           0        4.453388    1.494725    0.676292
     30          1           0        2.953464    1.301407    1.607922
 ---------------------------------------------------------------------

 SCF Done:  E(UB3LYP) =  -1027.94991619     A.U. after   33 cycles
 SCF Done:  E(UB3LYP) =  -1027.94991619     a.u. after    1 cycles

 The electronic state is 2-A.
 Alpha  occ. eigenvalues --  -88.75244 -19.11423 -14.26845 -14.23713 -14.18762
 Alpha  occ. eigenvalues --  -10.17058 -10.15213 -10.12347 -10.11918 -10.11915
 Alpha  occ. eigenvalues --  -10.11885 -10.08932 -10.08295 -10.07767 -10.06395
 Alpha  occ. eigenvalues --   -7.83891  -5.80284  -5.79877  -5.79287  -1.05134
 Alpha  occ. eigenvalues --   -0.87622  -0.80128  -0.77729  -0.72971  -0.71541
 Alpha  occ. eigenvalues --   -0.67549  -0.63759  -0.60588  -0.59944  -0.53174
 Alpha  occ. eigenvalues --   -0.52941  -0.51090  -0.48944  -0.44956  -0.43325
 Alpha  occ. eigenvalues --   -0.40068  -0.39651  -0.38251  -0.38163  -0.36690
 Alpha  occ. eigenvalues --   -0.35121  -0.34051  -0.33082  -0.32539  -0.31900
 Alpha  occ. eigenvalues --   -0.31173  -0.29737  -0.29178  -0.28610  -0.27532
 Alpha  occ. eigenvalues --   -0.27004  -0.24476  -0.23252  -0.22143  -0.21757
 Alpha  occ. eigenvalues --   -0.21413  -0.17344  -0.16167  -0.15296  -0.12718
 Alpha  occ. eigenvalues --    0.03923
 Alpha virt. eigenvalues --    0.05835   0.06191   0.07482   0.07699   0.08152
 Alpha virt. eigenvalues --    0.09140   0.09352   0.10338   0.10713   0.11047
 Alpha virt. eigenvalues --    0.11185   0.11671   0.12144   0.12623   0.13289

  Beta  occ. eigenvalues --  -88.75244 -19.11382 -14.26803 -14.23704 -14.18757
  Beta  occ. eigenvalues --  -10.17059 -10.15170 -10.12340 -10.11904 -10.11896
  Beta  occ. eigenvalues --  -10.11875 -10.08913 -10.08271 -10.07748 -10.06379
  Beta  occ. eigenvalues --   -7.83891  -5.80283  -5.79877  -5.79286  -1.05059
  Beta  occ. eigenvalues --   -0.87605  -0.80098  -0.77670  -0.72942  -0.71480
  Beta  occ. eigenvalues --   -0.67514  -0.63730  -0.60548  -0.59912  -0.53130
  Beta  occ. eigenvalues --   -0.52897  -0.51044  -0.48873  -0.44907  -0.43277
  Beta  occ. eigenvalues --   -0.39999  -0.39608  -0.38201  -0.38043  -0.36644
  Beta  occ. eigenvalues --   -0.35075  -0.34009  -0.33040  -0.32497  -0.31866
  Beta  occ. eigenvalues --   -0.31137  -0.29688  -0.29149  -0.28581  -0.27502
  Beta  occ. eigenvalues --   -0.26981  -0.24440  -0.23212  -0.22084  -0.21722
  Beta  occ. eigenvalues --   -0.21298  -0.17182  -0.16135  -0.15279  -0.12703
  Beta virt. eigenvalues --    0.06251   0.06504   0.07027   0.08071   0.08354
  Beta virt. eigenvalues --    0.08548   0.09627   0.09796   0.10537   0.11004
  Beta virt. eigenvalues --    0.11211   0.11508   0.11982   0.12460   0.12751

 Mulliken charges and spin densities:
               1          2
     1  C   -0.182123  -0.370564
     2  C    0.236787  -0.265462
     3  C    0.483209  -1.195332
     4  C   -0.052303   0.326282
     5  S    0.364793  -0.166635
     6  C   -0.471840  -0.136789
     7  N    0.005788   0.049181
     8  C    0.249658  -0.872001
     9  C    0.222119  -0.344854
    10  C   -0.256878   0.326857
    11  C    0.591711  -0.767994
    12  N   -0.167079  -0.000428
    13  O    0.153200   0.007878
    14  N    0.030712   0.096886
    15  C    0.036338  -0.787582
    16  H    0.147022   0.000274
    17  H    0.176154  -0.031379
    18  H   -0.125449   0.280702
    19  H   -0.952555   1.181532
    20  H   -0.138906   0.318996
    21  H   -0.168905   0.349413
    22  H   -0.033975   0.313559
    23  H    0.015770   0.170848
    24  H    0.163990   0.022321
    25  H   -1.052894   1.248554
    26  H   -0.544587   0.744236
    27  H    0.313420   0.029736
    28  H    0.024803   0.113670
    29  H   -0.150374   0.273141
    30  H    0.082395   0.084954
 Sum of Mulliken charges =  -1.00000   1.00000

 Dipole moment (field-independent basis, Debye):
    X=              1.3904    Y=             -2.9734    Z=              3.9637  Tot=              5.1464
 Quadrupole moment (field-independent basis, Debye-Ang):
   XX=           -161.7100   YY=           -141.1801   ZZ=           -142.8025
   XY=              4.7006   XZ=             -3.1380   YZ=              8.6434

 Summary of Natural Population Analysis:

                                       Natural Population
                Natural  -----------------------------------------------
    Atom  No    Charge         Core      Valence    Rydberg      Total
 -----------------------------------------------------------------------
      C    1   -0.29519      0.99964     2.28943    0.00612     3.29519
      C    2   -0.01045      0.99958     1.99577    0.01510     3.01045
      C    3   -0.19590      0.99957     2.18495    0.01138     3.19590
      C    4   -0.16519      0.99956     2.15214    0.01348     3.16519
      S    5    0.12091      4.99952     2.86238    0.01719     7.87909
      C    6    0.17079      0.99953     1.80769    0.02199     2.82921
      N    7   -0.29398      0.99963     2.78328    0.01107     3.79398
      C    8   -0.12217      0.99955     2.10934    0.01328     3.12217
      C    9    0.16595      0.99949     1.81824    0.01632     2.83405
      C   10   -0.17970      0.99947     2.16993    0.01029     3.17970
      C   11   -0.00272      0.99964     1.98793    0.01515     3.00272
      N   12   -0.07641      0.99971     2.56408    0.01262     3.57641
      O   13   -0.16387      0.99984     3.15512    0.00890     4.16387
      N   14   -0.33304      0.99964     2.81959    0.01380     3.83304
      C   15   -0.28835      0.99963     2.28170    0.00703     3.28835
      H   16    0.10147      0.00000     0.39757    0.00096     0.39853
      H   17    0.10815      0.00000     0.39060    0.00125     0.39185
      H   18    0.10043      0.00000     0.39866    0.00090     0.39957
      H   19    0.10404      0.00000     0.39160    0.00435     0.39596
      H   20    0.10883      0.00000     0.38940    0.00177     0.39117
      H   21    0.10695      0.00000     0.39121    0.00184     0.39305
      H   22    0.10350      0.00000     0.39527    0.00123     0.39650
      H   23    0.10127      0.00000     0.39752    0.00121     0.39873
      H   24    0.10544      0.00000     0.39319    0.00136     0.39456
      H   25    0.12029      0.00000     0.37642    0.00328     0.37971
      H   26    0.10675      0.00000     0.39198    0.00127     0.39325
      H   27    0.19932      0.00000     0.29605    0.00464     0.30068
      H   28    0.09999      0.00000     0.39917    0.00084     0.40001
      H   29    0.10033      0.00000     0.39850    0.00117     0.39967
      H   30    0.10255      0.00000     0.39651    0.00094     0.39745
 =======================================================================
   * Total *    0.00000     18.99403    40.78523    0.22074    60.00000

 Normal termination of Gaussian 16 at Thu Dec 10 18:14:08 2020.
