 Gaussian 16, Revision A.03,

 -----------------------------------------------------------
 # opt freq B3LYP/6-31G(d) empiricaldispersion=gd3bj scf=xqc
 -----------------------------------------------------------

 -------------------------------
 CID_60658306_JID_10327_neutraal
 -------------------------------
 Symbolic Z-matrix:
 Charge =  0 Multiplicity = 1

 SCF Done:  E(RB3LYP) =  -865.715829294     A.U. after   13 cycles
 SCF Done:  E(RB3LYP) =  -865.719567089     A.U. after   11 cycles
 SCF Done:  E(RB3LYP) =  -865.719944227     A.U. after   11 cycles
 SCF Done:  E(RB3LYP) =  -865.720115459     A.U. after   11 cycles
 SCF Done:  E(RB3LYP) =  -865.720183866     A.U. after   11 cycles
 SCF Done:  E(RB3LYP) =  -865.720249828     A.U. after   11 cycles
 SCF Done:  E(RB3LYP) =  -865.720328585     A.U. after   11 cycles
 SCF Done:  E(RB3LYP) =  -865.720413020     A.U. after   13 cycles
 SCF Done:  E(RB3LYP) =  -865.720461752     A.U. after   12 cycles
 SCF Done:  E(RB3LYP) =  -865.720578316     A.U. after   12 cycles
 SCF Done:  E(RB3LYP) =  -865.721160352     A.U. after   11 cycles
 SCF Done:  E(RB3LYP) =  -865.721164915     A.U. after    9 cycles
 SCF Done:  E(RB3LYP) =  -865.721165164     A.U. after    7 cycles
 SCF Done:  E(RB3LYP) =  -865.721165167     A.U. after    7 cycles
 SCF Done:  E(RB3LYP) =  -865.721165255     A.U. after    7 cycles
 Optimization completed.
    -- Stationary point found.
 Normal termination of Gaussian 16 at Mon Dec 14 18:00:59 2020.

 --------------------------------------------------------------------
 #N Geom=AllCheck Guess=TCheck SCRF=Check GenChk RB3LYP/6-31G(d) Freq
 --------------------------------------------------------------------

 Structure from the checkpoint file:  "JID_10327.chk"
 -------------------------------
 CID_60658306_JID_10327_neutraal
 -------------------------------
 Charge =  0 Multiplicity = 1

 SCF Done:  E(RB3LYP) =  -865.721165255     A.U. after    1 cycles

  Exact polarizability: 231.928  19.479 185.849 -13.911  -7.903 155.992
 Approx polarizability: 303.324  32.120 289.208 -29.671 -15.061 262.713

                      1                      2                      3
                      A                      A                      A
 Frequencies --     12.3935                16.9942                30.2553
 Red. masses --      4.4123                 4.3408                 4.1702
 Frc consts  --      0.0004                 0.0007                 0.0022
 IR Inten    --      0.0931                 0.0264                 0.3030

                      4                      5                      6
                      A                      A                      A
 Frequencies --     54.7714                80.0558                90.4474
 Red. masses --      4.0125                 3.5850                 4.1285
 Frc consts  --      0.0071                 0.0135                 0.0199
 IR Inten    --      0.2546                 2.8870                 1.6562

                      7                      8                      9
                      A                      A                      A
 Frequencies --    130.4730               135.0794               161.8044
 Red. masses --      1.6123                 1.3390                 3.2578
 Frc consts  --      0.0162                 0.0144                 0.0503
 IR Inten    --      0.0710                 0.1279                 0.9637

                     10                     11                     12
                      A                      A                      A
 Frequencies --    164.4190               194.3170               209.5232
 Red. masses --      1.1880                 4.2920                 3.0706
 Frc consts  --      0.0189                 0.0955                 0.0794
 IR Inten    --      2.5764                 0.3877                 3.0018

                     13                     14                     15
                      A                      A                      A
 Frequencies --    217.4466               230.4333               259.0861
 Red. masses --      1.9418                 2.6568                 2.8870
 Frc consts  --      0.0541                 0.0831                 0.1142
 IR Inten    --      0.2833                 7.9615                 2.8074

                     16                     17                     18
                      A                      A                      A
 Frequencies --    280.2734               284.9761               291.2437
 Red. masses --      2.5641                 1.6213                 3.1159
 Frc consts  --      0.1187                 0.0776                 0.1557
 IR Inten    --      1.1920                 0.2359                 1.5177

                     19                     20                     21
                      A                      A                      A
 Frequencies --    324.5847               335.4946               352.7740
 Red. masses --      1.1576                 3.8805                 2.3075
 Frc consts  --      0.0719                 0.2573                 0.1692
 IR Inten    --     86.9298                 5.0070                 0.2528

                     22                     23                     24
                      A                      A                      A
 Frequencies --    375.0715               388.1327               460.3272
 Red. masses --      4.4576                 4.6243                 3.9160
 Frc consts  --      0.3695                 0.4104                 0.4889
 IR Inten    --      1.0216                 1.2920                 0.7210

                     25                     26                     27
                      A                      A                      A
 Frequencies --    469.9626               501.2246               507.6967
 Red. masses --      3.4814                 4.5006                 3.4074
 Frc consts  --      0.4530                 0.6662                 0.5175
 IR Inten    --      5.4684                 6.3415                 0.4990

                     28                     29                     30
                      A                      A                      A
 Frequencies --    521.0407               538.5650               582.5846
 Red. masses --      4.0171                 4.4279                 4.6444
 Frc consts  --      0.6425                 0.7567                 0.9288
 IR Inten    --      0.8974                 0.9804                 7.8563

                     31                     32                     33
                      A                      A                      A
 Frequencies --    585.1580               588.8728               642.7627
 Red. masses --      3.9249                 3.5278                 4.5326
 Frc consts  --      0.7918                 0.7208                 1.1033
 IR Inten    --      7.4354                 4.9598                 1.9270

                     34                     35                     36
                      A                      A                      A
 Frequencies --    678.1949               713.8778               734.4380
 Red. masses --      3.7951                 2.4518                 4.6190
 Frc consts  --      1.0285                 0.7362                 1.4679
 IR Inten    --      0.1414                14.1114                 3.7923

                     37                     38                     39
                      A                      A                      A
 Frequencies --    746.7481               789.4230               793.5140
 Red. masses --      3.2672                 1.5245                 2.9999
 Frc consts  --      1.0734                 0.5597                 1.1129
 IR Inten    --     29.8045                37.6224                16.7619

                     40                     41                     42
                      A                      A                      A
 Frequencies --    815.1775               877.0071               888.6362
 Red. masses --      1.8098                 1.4333                 1.3840
 Frc consts  --      0.7086                 0.6495                 0.6439
 IR Inten    --    101.9877                 0.8888                 9.3332

                     43                     44                     45
                      A                      A                      A
 Frequencies --    889.4303               916.8365               921.2395
 Red. masses --      1.4659                 1.3339                 2.4752
 Frc consts  --      0.6832                 0.6606                 1.2377
 IR Inten    --     21.8543                 8.0949                 8.8426

                     46                     47                     48
                      A                      A                      A
 Frequencies --    943.6866               955.2394               963.5389
 Red. masses --      3.2812                 2.2894                 1.2626
 Frc consts  --      1.7216                 1.2308                 0.6906
 IR Inten    --     12.8120                 0.5223                 0.8084

                     49                     50                     51
                      A                      A                      A
 Frequencies --    993.0549              1013.7048              1018.1043
 Red. masses --      2.8712                 2.1434                 5.4397
 Frc consts  --      1.6683                 1.2977                 3.3221
 IR Inten    --      1.3676                25.7179                 1.3902

                     52                     53                     54
                      A                      A                      A
 Frequencies --   1043.7324              1054.6754              1069.3425
 Red. masses --      1.8317                 1.5857                 1.4628
 Frc consts  --      1.1757                 1.0392                 0.9855
 IR Inten    --      5.3464                18.7568                 2.6304

                     55                     56                     57
                      A                      A                      A
 Frequencies --   1076.8956              1085.6411              1104.9461
 Red. masses --      1.4800                 2.5279                 2.2897
 Frc consts  --      1.0113                 1.7554                 1.6470
 IR Inten    --      1.0374                63.6186                10.6556

                     58                     59                     60
                      A                      A                      A
 Frequencies --   1134.7865              1139.0553              1184.3059
 Red. masses --      1.6674                 4.0202                 1.8235
 Frc consts  --      1.2651                 3.0732                 1.5069
 IR Inten    --      9.5427                39.1428                51.2394

                     61                     62                     63
                      A                      A                      A
 Frequencies --   1186.7378              1187.8659              1207.4287
 Red. masses --      1.2724                 1.9660                 1.1529
 Frc consts  --      1.0558                 1.6345                 0.9903
 IR Inten    --      0.4911                28.5872                 2.0043

                     64                     65                     66
                      A                      A                      A
 Frequencies --   1223.9295              1229.0459              1241.3818
 Red. masses --      1.3094                 1.2424                 1.6103
 Frc consts  --      1.1556                 1.1057                 1.4620
 IR Inten    --      4.3423                 1.2371               128.0958

                     67                     68                     69
                      A                      A                      A
 Frequencies --   1278.2022              1298.7807              1311.8950
 Red. masses --      2.5439                 1.7345                 2.4916
 Frc consts  --      2.4487                 1.7238                 2.5266
 IR Inten    --     33.2319                11.1309               180.5539

                     70                     71                     72
                      A                      A                      A
 Frequencies --   1323.3706              1344.5092              1353.4034
 Red. masses --      1.7646                 1.5697                 2.4088
 Frc consts  --      1.8208                 1.6719                 2.5996
 IR Inten    --     85.5584                20.2186                 1.8421

                     73                     74                     75
                      A                      A                      A
 Frequencies --   1374.6726              1382.6363              1387.3522
 Red. masses --      4.8708                 1.3272                 2.6591
 Frc consts  --      5.4231                 1.4948                 3.0155
 IR Inten    --     24.6439                23.7467                29.0848

                     76                     77                     78
                      A                      A                      A
 Frequencies --   1414.5948              1441.1031              1444.5597
 Red. masses --      1.7000                 1.2583                 1.2913
 Frc consts  --      2.0043                 1.5396                 1.5876
 IR Inten    --     36.0712                 2.2113                 0.3820

                     79                     80                     81
                      A                      A                      A
 Frequencies --   1484.9530              1494.1144              1497.5641
 Red. masses --      2.5239                 1.5783                 1.3290
 Frc consts  --      3.2791                 2.0759                 1.7560
 IR Inten    --      8.7265                59.0748                29.9670

                     82                     83                     84
                      A                      A                      A
 Frequencies --   1499.8459              1506.1943              1509.1150
 Red. masses --      1.4194                 1.7455                 1.0445
 Frc consts  --      1.8813                 2.3331                 1.4015
 IR Inten    --     13.5211                 9.2102                 5.2503

                     85                     86                     87
                      A                      A                      A
 Frequencies --   1516.2201              1521.0632              1521.1103
 Red. masses --      1.2261                 1.0475                 1.0435
 Frc consts  --      1.6608                 1.4279                 1.4226
 IR Inten    --     26.2468                 5.5923                 5.1702

                     88                     89                     90
                      A                      A                      A
 Frequencies --   1533.1253              1537.1732              1542.3115
 Red. masses --      1.1859                 1.1034                 2.0064
 Frc consts  --      1.6423                 1.5362                 2.8119
 IR Inten    --     27.8172                34.7629                24.5494

                     91                     92                     93
                      A                      A                      A
 Frequencies --   1544.9548              1551.8591              1644.3569
 Red. masses --      1.1550                 1.5817                 5.6287
 Frc consts  --      1.6243                 2.2443                 8.9671
 IR Inten    --     15.6510                48.8605                51.0945

                     94                     95                     96
                      A                      A                      A
 Frequencies --   1665.6607              1671.5405              1675.6807
 Red. masses --      6.2298                 6.0173                 5.9968
 Frc consts  --     10.1835                 9.9056                 9.9210
 IR Inten    --      7.9050                75.6110                 1.1230

                     97                     98                     99
                      A                      A                      A
 Frequencies --   2977.6195              3015.4334              3019.1860
 Red. masses --      1.0660                 1.0421                 1.0937
 Frc consts  --      5.5684                 5.5827                 5.8740
 IR Inten    --     41.5218                44.0694                32.1597

                    100                    101                    102
                      A                      A                      A
 Frequencies --   3024.5422              3047.9605              3048.2591
 Red. masses --      1.0349                 1.0536                 1.0418
 Frc consts  --      5.5778                 5.7672                 5.7036
 IR Inten    --     57.6011                31.0388                50.5294

                    103                    104                    105
                      A                      A                      A
 Frequencies --   3057.2236              3082.5261              3091.8713
 Red. masses --      1.1010                 1.1065                 1.1061
 Frc consts  --      6.0628                 6.1949                 6.2299
 IR Inten    --     26.0865                44.5832                22.8160

                    106                    107                    108
                      A                      A                      A
 Frequencies --   3099.0277              3130.8186              3132.1035
 Red. masses --      1.1003                 1.0948                 1.1023
 Frc consts  --      6.2261                 6.3229                 6.3711
 IR Inten    --     18.6002                10.6563                17.4250

                    109                    110                    111
                      A                      A                      A
 Frequencies --   3158.2071              3170.2778              3181.4041
 Red. masses --      1.0996                 1.0897                 1.0864
 Frc consts  --      6.4620                 6.4529                 6.4784
 IR Inten    --     27.3744                16.2342                 6.8325

                    112                    113                    114
                      A                      A                      A
 Frequencies --   3189.7823              3198.2587              3199.3221
 Red. masses --      1.0900                 1.0938                 1.0900
 Frc consts  --      6.5344                 6.5917                 6.5732
 IR Inten    --      9.3071                21.4809                 5.9361

                    115                    116                    117
                      A                      A                      A
 Frequencies --   3230.3376              3479.7815              3770.2484
 Red. masses --      1.0916                 1.0739                 1.0653
 Frc consts  --      6.7114                 7.6616                 8.9222
 IR Inten    --     12.4110                 0.4970                46.2417

 - Thermochemistry -
 -------------------
 Temperature   298.150 Kelvin.  Pressure   1.00000 Atm.
 Atom     1 has atomic number  6 and mass  12.00000

 Molecular mass:   271.15723 amu.
 Principal axes and moments of inertia in atomic units:
                           1         2         3
     Eigenvalues --  2816.69246********************
           X            0.99999   0.00501  -0.00142
           Y           -0.00505   0.99972  -0.02296
           Z            0.00131   0.02296   0.99974
 This molecule is an asymmetric top.
 Rotational symmetry number  1.
 Warning -- assumption of classical behavior for rotation
           may cause significant error
 Rotational temperatures (Kelvin)      0.03075     0.00611     0.00570
 Rotational constants (GHZ):           0.64073     0.12742     0.11882
 Zero-point vibrational energy     917631.3 (Joules/Mol)
                                  219.31916 (Kcal/Mol)
 Warning -- explicit consideration of  32 degrees of freedom as
           vibrations may cause significant error
 Vibrational temperatures:     17.83    24.45    43.53    78.80   115.18
          (Kelvin)            130.13   187.72   194.35   232.80   236.56
                              279.58   301.46   312.86   331.54   372.77
                              403.25   410.02   419.03   467.01   482.70
                              507.56   539.64   558.44   662.31   676.17
                              721.15   730.46   749.66   774.87   838.21
                              841.91   847.26   924.79   975.77  1027.11
                             1056.69  1074.40  1135.80  1141.69  1172.86
                             1261.82  1278.55  1279.69  1319.12  1325.46
                             1357.75  1374.38  1386.32  1428.78  1458.50
                             1464.83  1501.70  1517.44  1538.55  1549.41
                             1562.00  1589.77  1632.70  1638.85  1703.95
                             1707.45  1709.07  1737.22  1760.96  1768.32
                             1786.07  1839.05  1868.66  1887.52  1904.04
                             1934.45  1947.25  1977.85  1989.31  1996.09
                             2035.29  2073.43  2078.40  2136.52  2149.70
                             2154.66  2157.94  2167.08  2171.28  2181.50
                             2188.47  2188.54  2205.83  2211.65  2219.04
                             2222.85  2232.78  2365.86  2396.51  2404.97
                             2410.93  4284.13  4338.54  4343.94  4351.64
                             4385.34  4385.76  4398.66  4435.07  4448.51
                             4458.81  4504.55  4506.40  4543.96  4561.32
                             4577.33  4589.39  4601.58  4603.11  4647.74
                             5006.63  5424.55

 Zero-point correction=                           0.349507 (Hartree/Particle)
 Thermal correction to Energy=                    0.369382
 Thermal correction to Enthalpy=                  0.370326
 Thermal correction to Gibbs Free Energy=         0.298616
 Sum of electronic and zero-point Energies=           -865.371658
 Sum of electronic and thermal Energies=              -865.351783
 Sum of electronic and thermal Enthalpies=            -865.350839
 Sum of electronic and thermal Free Energies=         -865.422549

                     E (Thermal)             CV                S
                      KCal/Mol        Cal/Mol-Kelvin    Cal/Mol-Kelvin
 Total                  231.791             75.400            150.927
 Electronic               0.000              0.000              0.000
 Translational            0.889              2.981             42.691
 Rotational               0.889              2.981             34.759
 Vibrational            230.013             69.438             73.476
 Vibration     1          0.593              1.987              7.585
 Vibration     2          0.593              1.986              6.958
 Vibration     3          0.594              1.984              5.813
 Vibration     4          0.596              1.976              4.637
 Vibration     5          0.600              1.963              3.890
 Vibration     6          0.602              1.956              3.650
 Vibration     7          0.612              1.923              2.939
 Vibration     8          0.613              1.918              2.872
 Vibration     9          0.622              1.889              2.529
 Vibration    10          0.623              1.886              2.498
 Vibration    11          0.635              1.848              2.186
 Vibration    12          0.642              1.826              2.048
 Vibration    13          0.646              1.814              1.980
 Vibration    14          0.652              1.794              1.876
 Vibration    15          0.668              1.747              1.668
 Vibration    16          0.680              1.710              1.532
 Vibration    17          0.683              1.702              1.504
 Vibration    18          0.687              1.690              1.467
 Vibration    19          0.709              1.626              1.287
 Vibration    20          0.717              1.605              1.233
 Vibration    21          0.729              1.570              1.154
 Vibration    22          0.746              1.523              1.059
 Vibration    23          0.756              1.496              1.007
 Vibration    24          0.818              1.338              0.765
 Vibration    25          0.827              1.317              0.738
 Vibration    26          0.857              1.247              0.655
 Vibration    27          0.863              1.233              0.639
 Vibration    28          0.876              1.203              0.608
 Vibration    29          0.894              1.165              0.568
 Vibration    30          0.939              1.069              0.481
 Vibration    31          0.942              1.063              0.476
 Vibration    32          0.946              1.056              0.469

                           ! Non-Optimized Parameters !
 Normal termination of Gaussian 16 at Mon Dec 14 18:20:04 2020.

 ----------------------------------------------------------------------
 # B3LYP/6-311++G(d,p) empiricaldispersion=gd3bj scf=xqc pop=npa geom=c
 heck
 ----------------------------------------------------------------------

 ---------------------------------------
 CID_60658306_JID_10327_Energie_neutraal
 ---------------------------------------
 Structure from the checkpoint file:  "JID_10327.chk"
 Charge =  0 Multiplicity = 1

 SCF Done:  E(RB3LYP) =  -865.963027724     A.U. after   14 cycles
 Normal termination of Gaussian 16 at Mon Dec 14 18:27:20 2020.

 ----------------------------------------------------------------------
 # B3LYP/6-311++G(d,p) empiricaldispersion=gd3bj scf=xqc pop=npa geom=c
 heck
 ----------------------------------------------------------------------

 -------------------------------------
 CID_60658306_JID_10327_Energie_kation
 -------------------------------------
 Structure from the checkpoint file:  "JID_10327.chk"
 Charge =  1 Multiplicity = 2

 SCF Done:  E(UB3LYP) =  -865.692810178     A.U. after   29 cycles
 Normal termination of Gaussian 16 at Mon Dec 14 18:48:06 2020.
 Gaussian 16:  ES64L-G16RevA.03 25-Dec-2016

 ----------------------------------------------------------------------
 # B3LYP/6-311++G(d,p) empiricaldispersion=gd3bj scf=xqc pop=npa geom=c
 heck
 ----------------------------------------------------------------------

 ------------------------------------
 CID_60658306_JID_10327_Energie_anion
 ------------------------------------
 Structure from the checkpoint file:  "JID_10327.chk"
 Charge = -1 Multiplicity = 2

                         Standard orientation:
 ---------------------------------------------------------------------
 Center     Atomic      Atomic             Coordinates (Angstroms)
 Number     Number       Type             X           Y           Z
 ---------------------------------------------------------------------
      1          6           0       -3.658612    2.883087   -0.787226
      2          6           0       -3.326182    1.447898   -0.457860
      3          6           0       -2.073069    0.901974   -0.754709
      4          6           0       -1.758912   -0.422276   -0.452793
      5          6           0       -2.730362   -1.210742    0.175829
      6          6           0       -3.990694   -0.709517    0.494481
      7          6           0       -4.274331    0.626195    0.166582
      8          8           0       -5.527440    1.082654    0.497013
      9          6           0       -5.039512   -1.551717    1.171809
     10          6           0       -0.405989   -0.997551   -0.800528
     11          7           0        0.158183   -1.732981    0.333366
     12          6           0        1.481359   -2.311138    0.073552
     13          6           0        2.572015   -1.305111   -0.250293
     14          6           0        3.185686   -0.595537    0.780966
     15          6           0        4.144996    0.386577    0.507505
     16          6           0        4.498593    0.666382   -0.817734
     17          6           0        3.883624   -0.046927   -1.849391
     18          6           0        2.930029   -1.023569   -1.576355
     19          8           0        4.679369    1.010560    1.598682
     20          6           0        5.663460    2.005928    1.377569
     21          1           0       -4.506019    2.963901   -1.483728
     22          1           0       -3.912592    3.467087    0.109476
     23          1           0       -2.807423    3.379140   -1.261278
     24          1           0       -1.326842    1.533121   -1.233179
     25          1           0       -2.483714   -2.236986    0.432643
     26          1           0       -5.608892    2.007520    0.221348
     27          1           0       -5.345077   -1.113105    2.129197
     28          1           0       -5.946758   -1.625517    0.560460
     29          1           0       -4.664781   -2.562280    1.358424
     30          1           0       -0.498487   -1.716720   -1.628588
     31          1           0        0.248718   -0.189757   -1.169266
     32          1           0        0.217982   -1.100687    1.130988
     33          1           0        1.763442   -2.891185    0.959954
     34          1           0        1.373691   -3.019620   -0.756973
     35          1           0        2.936059   -0.793472    1.820242
     36          1           0        5.240094    1.420457   -1.052771
     37          1           0        4.159927    0.168451   -2.878092
     38          1           0        2.461219   -1.573563   -2.387921
     39          1           0        6.545103    1.595277    0.867797
     40          1           0        5.265845    2.842591    0.787802
     41          1           0        5.953204    2.366755    2.365930
 ---------------------------------------------------------------------

 SCF Done:  E(UB3LYP) =  -865.953682233     A.U. after   33 cycles
 SCF Done:  E(UB3LYP) =  -865.953682233     a.u. after    1 cycles

 The electronic state is 2-A.
 Alpha  occ. eigenvalues --  -19.07298 -19.06510 -14.22144 -10.15564 -10.14176
 Alpha  occ. eigenvalues --  -10.13722 -10.12152 -10.11226 -10.10214 -10.09799
 Alpha  occ. eigenvalues --  -10.09448 -10.09306 -10.09173 -10.09087 -10.08928
 Alpha  occ. eigenvalues --  -10.08665 -10.08566 -10.08459 -10.08361 -10.08104
 Alpha  occ. eigenvalues --   -0.98893  -0.97472  -0.83309  -0.77713  -0.76956
 Alpha  occ. eigenvalues --   -0.70217  -0.69528  -0.67926  -0.67254  -0.62078
 Alpha  occ. eigenvalues --   -0.61469  -0.60198  -0.59854  -0.56449  -0.52730
 Alpha  occ. eigenvalues --   -0.51031  -0.50234  -0.49230  -0.45464  -0.45208
 Alpha  occ. eigenvalues --   -0.42094  -0.40916  -0.40752  -0.39630  -0.38735
 Alpha  occ. eigenvalues --   -0.37283  -0.36883  -0.35504  -0.34932  -0.34430
 Alpha  occ. eigenvalues --   -0.34154  -0.34062  -0.33155  -0.32402  -0.32095
 Alpha  occ. eigenvalues --   -0.31477  -0.30280  -0.29819  -0.29674  -0.29402
 Alpha  occ. eigenvalues --   -0.29086  -0.28301  -0.28057  -0.25801  -0.25222
 Alpha  occ. eigenvalues --   -0.25014  -0.24207  -0.24072  -0.17742  -0.15929
 Alpha  occ. eigenvalues --   -0.15057  -0.14648  -0.13208   0.03547
 Alpha virt. eigenvalues --    0.04628   0.05790   0.06157   0.06529   0.07070
 Alpha virt. eigenvalues --    0.07391   0.07675   0.07768   0.07831   0.08333
 Alpha virt. eigenvalues --    0.08498   0.09013   0.09141   0.09583   0.10041

  Beta  occ. eigenvalues --  -19.07290 -19.06475 -14.22142 -10.15565 -10.14172
  Beta  occ. eigenvalues --  -10.13674 -10.12150 -10.11223 -10.10213 -10.09790
  Beta  occ. eigenvalues --  -10.09448 -10.09306 -10.09156 -10.09084 -10.08925
  Beta  occ. eigenvalues --  -10.08665 -10.08506 -10.08451 -10.08356 -10.08102
  Beta  occ. eigenvalues --   -0.98875  -0.97402  -0.83305  -0.77702  -0.76943
  Beta  occ. eigenvalues --   -0.70199  -0.69512  -0.67904  -0.67235  -0.62040
  Beta  occ. eigenvalues --   -0.61414  -0.60164  -0.59827  -0.56430  -0.52710
  Beta  occ. eigenvalues --   -0.50988  -0.50200  -0.49212  -0.45425  -0.45173
  Beta  occ. eigenvalues --   -0.42081  -0.40889  -0.40732  -0.39614  -0.38705
  Beta  occ. eigenvalues --   -0.37265  -0.36866  -0.35475  -0.34913  -0.34403
  Beta  occ. eigenvalues --   -0.34124  -0.34036  -0.33122  -0.32381  -0.32067
  Beta  occ. eigenvalues --   -0.31450  -0.30256  -0.29797  -0.29655  -0.29369
  Beta  occ. eigenvalues --   -0.29064  -0.28282  -0.28046  -0.25787  -0.25190
  Beta  occ. eigenvalues --   -0.24994  -0.24191  -0.24054  -0.17733  -0.15921
  Beta  occ. eigenvalues --   -0.15051  -0.14638  -0.13193
  Beta virt. eigenvalues --    0.05497   0.05880   0.05934   0.06435   0.06708
  Beta virt. eigenvalues --    0.07198   0.07383   0.07790   0.07894   0.08225
  Beta virt. eigenvalues --    0.08586   0.08703   0.09347   0.09657   0.09879

 Mulliken charges and spin densities:
               1          2
     1  C    2.153229  -2.749701
     2  C   -0.904543   1.977045
     3  C   -0.791249   0.123652
     4  C    0.602058   0.013459
     5  C   -0.680412   0.110535
     6  C    1.071050  -0.516447
     7  C   -1.080172  -0.269447
     8  O   -0.257293   0.027941
     9  C   -0.386860  -0.093104
    10  C   -0.247297  -0.256494
    11  N    0.069541   0.005584
    12  C   -0.435741  -0.418650
    13  C    0.655812   0.104707
    14  C   -0.697193   0.325213
    15  C   -0.634593   0.181912
    16  C    0.922391  -0.749702
    17  C   -0.039594  -0.333720
    18  C    0.077112   0.023694
    19  O   -0.207468   0.055283
    20  C    0.880505  -1.194602
    21  H   -0.320340   0.484933
    22  H   -0.260110   0.424842
    23  H   -0.252699   0.432645
    24  H   -0.002965   0.091132
    25  H    0.194141  -0.009220
    26  H   -0.241212   0.538487
    27  H    0.111332   0.060938
    28  H    0.100576   0.071348
    29  H    0.092773   0.033919
    30  H    0.066540   0.052563
    31  H    0.308872  -0.113576
    32  H    0.164537   0.009313
    33  H    0.151128   0.028223
    34  H    0.118124   0.037042
    35  H    0.125703   0.056657
    36  H   -0.296123   0.474600
    37  H   -0.367245   0.551991
    38  H    0.128087   0.022764
    39  H   -0.321323   0.482286
    40  H   -0.293231   0.458155
    41  H   -0.275846   0.443802
 Sum of Mulliken charges =  -1.00000   1.00000

 Dipole moment (field-independent basis, Debye):
    X=             -1.1825    Y=             -8.1683    Z=              0.4382  Tot=              8.2650
 Quadrupole moment (field-independent basis, Debye-Ang):
   XX=           -278.8025   YY=           -172.9673   ZZ=           -152.3735
   XY=              1.2155   XZ=             -2.5678   YZ=              1.0776

 Summary of Natural Population Analysis:

                                       Natural Population
                Natural  -----------------------------------------------
    Atom  No    Charge         Core      Valence    Rydberg      Total
 -----------------------------------------------------------------------
      C    1   -0.30421      0.99964     2.29765    0.00692     3.30421
      C    2   -0.04524      0.99948     2.03652    0.00923     3.04524
      C    3   -0.09345      0.99948     2.08484    0.00913     3.09345
      C    4   -0.03312      0.99951     2.02490    0.00872     3.03312
      C    5   -0.09410      0.99948     2.08663    0.00799     3.09410
      C    6   -0.03482      0.99948     2.02727    0.00807     3.03482
      C    7    0.15887      0.99928     1.82850    0.01334     2.84113
      O    8   -0.34449      0.99988     3.33791    0.00670     4.34449
      C    9   -0.29125      0.99964     2.28653    0.00508     3.29125
      C   10   -0.09370      0.99959     2.08393    0.01018     3.09370
      N   11   -0.33179      0.99976     2.82150    0.01053     3.83179
      C   12   -0.09320      0.99959     2.08202    0.01158     3.09320
      C   13   -0.01997      0.99951     2.01205    0.00841     3.01997
      C   14   -0.12179      0.99947     2.11327    0.00905     3.12179
      C   15    0.16441      0.99939     1.82193    0.01428     2.83559
      C   16   -0.14461      0.99952     2.13601    0.00909     3.14461
      C   17   -0.08787      0.99958     2.07761    0.01068     3.08787
      C   18   -0.12032      0.99951     2.11090    0.00992     3.12032
      O   19   -0.27251      0.99986     3.26292    0.00974     4.27251
      C   20   -0.10127      0.99960     2.09264    0.00902     3.10127
      H   21    0.10540      0.00000     0.39274    0.00186     0.39460
      H   22    0.10569      0.00000     0.39249    0.00182     0.39431
      H   23    0.11013      0.00000     0.38874    0.00113     0.38987
      H   24    0.10033      0.00000     0.39867    0.00100     0.39967
      H   25    0.10362      0.00000     0.39506    0.00132     0.39638
      H   26    0.24184      0.00000     0.25302    0.00513     0.25816
      H   27    0.10611      0.00000     0.39272    0.00117     0.39389
      H   28    0.10585      0.00000     0.39298    0.00118     0.39415
      H   29    0.09803      0.00000     0.40112    0.00085     0.40197
      H   30    0.09212      0.00000     0.40677    0.00111     0.40788
      H   31    0.08909      0.00000     0.40862    0.00229     0.41091
      H   32    0.17213      0.00000     0.32531    0.00257     0.32787
      H   33    0.09731      0.00000     0.40172    0.00097     0.40269
      H   34    0.09325      0.00000     0.40564    0.00111     0.40675
      H   35    0.10354      0.00000     0.39488    0.00158     0.39646
      H   36    0.10994      0.00000     0.38818    0.00187     0.39006
      H   37    0.10196      0.00000     0.39708    0.00097     0.39804
      H   38    0.09996      0.00000     0.39906    0.00098     0.40004
      H   39    0.08626      0.00000     0.41182    0.00193     0.41374
      H   40    0.08738      0.00000     0.41076    0.00186     0.41262
      H   41    0.09450      0.00000     0.40432    0.00118     0.40550
 =======================================================================
   * Total *    0.00000     19.99124    52.78723    0.22153    73.00000

 Normal termination of Gaussian 16 at Mon Dec 14 19:11:01 2020.
