 Gaussian 16, Revision A.03,

 -----------------------------------------------------------
 # opt freq B3LYP/6-31G(d) empiricaldispersion=gd3bj scf=xqc
 -----------------------------------------------------------

 -------------------------------
 CID_103806811_JID_9227_neutraal
 -------------------------------
 Symbolic Z-matrix:
 Charge =  0 Multiplicity = 1

 SCF Done:  E(RB3LYP) =  -1180.25763600     A.U. after   15 cycles
 SCF Done:  E(RB3LYP) =  -1180.25373739     A.U. after   13 cycles
 SCF Done:  E(RB3LYP) =  -1180.26512090     A.U. after   13 cycles
 SCF Done:  E(RB3LYP) =  -1180.26697141     A.U. after   13 cycles
 SCF Done:  E(RB3LYP) =  -1180.26778006     A.U. after   13 cycles
 SCF Done:  E(RB3LYP) =  -1180.26817340     A.U. after   12 cycles
 SCF Done:  E(RB3LYP) =  -1180.26828981     A.U. after   11 cycles
 SCF Done:  E(RB3LYP) =  -1180.26834148     A.U. after   12 cycles
 SCF Done:  E(RB3LYP) =  -1180.26837029     A.U. after   10 cycles
 SCF Done:  E(RB3LYP) =  -1180.26840363     A.U. after   11 cycles
 SCF Done:  E(RB3LYP) =  -1180.27478219     A.U. after   12 cycles
 SCF Done:  E(RB3LYP) =  -1180.27479785     A.U. after   10 cycles
 SCF Done:  E(RB3LYP) =  -1180.27480805     A.U. after   10 cycles
 SCF Done:  E(RB3LYP) =  -1180.27481094     A.U. after   10 cycles
 SCF Done:  E(RB3LYP) =  -1180.27481359     A.U. after   10 cycles
 SCF Done:  E(RB3LYP) =  -1180.27481424     A.U. after    9 cycles
 Optimization completed.
    -- Stationary point found.
 Normal termination of Gaussian 16 at Sun Dec 13 21:07:59 2020.

 --------------------------------------------------------------------
 #N Geom=AllCheck Guess=TCheck SCRF=Check GenChk RB3LYP/6-31G(d) Freq
 --------------------------------------------------------------------

 Structure from the checkpoint file:  "JID_9227.chk"
 -------------------------------
 CID_103806811_JID_9227_neutraal
 -------------------------------
 Charge =  0 Multiplicity = 1

 SCF Done:  E(RB3LYP) =  -1180.27481424     A.U. after    1 cycles

  Exact polarizability: 197.950   5.435 164.873 -25.189   3.827 162.788
 Approx polarizability: 282.490  -4.212 269.356 -62.107  26.040 294.698

                      1                      2                      3
                      A                      A                      A
 Frequencies --     19.2862                32.1740                45.8723
 Red. masses --      5.1127                 5.9919                 4.3249
 Frc consts  --      0.0011                 0.0037                 0.0054
 IR Inten    --      0.2064                 0.1185                 0.2883

                      4                      5                      6
                      A                      A                      A
 Frequencies --     55.6934                73.6979                96.0261
 Red. masses --      1.1321                 5.3357                 2.6332
 Frc consts  --      0.0021                 0.0171                 0.0143
 IR Inten    --      0.5233                 0.4868                 1.5805

                      7                      8                      9
                      A                      A                      A
 Frequencies --    107.7323               129.4965               157.3147
 Red. masses --      4.3721                 3.5253                 5.4475
 Frc consts  --      0.0299                 0.0348                 0.0794
 IR Inten    --      0.4719                 2.5748                 5.0684

                     10                     11                     12
                      A                      A                      A
 Frequencies --    222.2777               265.9932               280.5034
 Red. masses --      3.5100                 5.2565                 3.8424
 Frc consts  --      0.1022                 0.2191                 0.1781
 IR Inten    --      0.2758                 0.7983                 0.7457

                     13                     14                     15
                      A                      A                      A
 Frequencies --    290.6738               329.8732               330.2494
 Red. masses --      3.2111                 2.3906                 2.7681
 Frc consts  --      0.1599                 0.1533                 0.1779
 IR Inten    --      5.3691                 2.8539                14.5271

                     16                     17                     18
                      A                      A                      A
 Frequencies --    346.8915               423.6594               440.8199
 Red. masses --      6.1286                 3.9630                 4.6538
 Frc consts  --      0.4345                 0.4191                 0.5328
 IR Inten    --      1.2163                 4.9331                 3.2351

                     19                     20                     21
                      A                      A                      A
 Frequencies --    457.2772               474.4117               488.0416
 Red. masses --      1.7486                 3.4596                 4.3718
 Frc consts  --      0.2154                 0.4588                 0.6135
 IR Inten    --     62.4172                 4.4643                 1.0237

                     22                     23                     24
                      A                      A                      A
 Frequencies --    500.3667               523.0918               524.6218
 Red. masses --      4.2385                 2.9641                 4.0005
 Frc consts  --      0.6252                 0.4779                 0.6487
 IR Inten    --      0.5251                15.2950                 1.8932

                     25                     26                     27
                      A                      A                      A
 Frequencies --    605.2973               615.7858               619.0677
 Red. masses --      4.0956                 4.2809                 4.8577
 Frc consts  --      0.8841                 0.9564                 1.0969
 IR Inten    --     17.6387                 6.8744                 5.2464

                     28                     29                     30
                      A                      A                      A
 Frequencies --    644.5868               653.8876               665.8857
 Red. masses --      3.0965                 3.8910                 7.5812
 Frc consts  --      0.7580                 0.9802                 1.9806
 IR Inten    --      2.6080                 2.5239                 2.4089

                     31                     32                     33
                      A                      A                      A
 Frequencies --    732.2419               747.1935               760.0372
 Red. masses --      3.0809                 8.0825                 3.6459
 Frc consts  --      0.9733                 2.6587                 1.2409
 IR Inten    --     14.9194                38.9130                 0.5530

                     34                     35                     36
                      A                      A                      A
 Frequencies --    786.1248               804.4741               811.0266
 Red. masses --      4.7438                 1.6445                 2.3633
 Frc consts  --      1.7273                 0.6271                 0.9159
 IR Inten    --     11.2669                30.2541                96.1782

                     37                     38                     39
                      A                      A                      A
 Frequencies --    855.3144               882.0446               897.9067
 Red. masses --      2.7385                 2.0206                 1.4383
 Frc consts  --      1.1804                 0.9262                 0.6832
 IR Inten    --     54.3016                 6.7134                 3.2520

                     40                     41                     42
                      A                      A                      A
 Frequencies --    921.3154               954.0537               969.1770
 Red. masses --      1.4207                 2.2818                 1.4599
 Frc consts  --      0.7105                 1.2237                 0.8079
 IR Inten    --      2.5328                11.9768                 4.0532

                     43                     44                     45
                      A                      A                      A
 Frequencies --    982.1417               997.8834              1015.9956
 Red. masses --      1.4515                 1.7656                 2.6957
 Frc consts  --      0.8249                 1.0359                 1.6395
 IR Inten    --      5.2120                16.8283                 6.3816

                     46                     47                     48
                      A                      A                      A
 Frequencies --   1043.5935              1063.5126              1090.7150
 Red. masses --      4.4928                 1.4283                 4.9407
 Frc consts  --      2.8829                 0.9518                 3.4631
 IR Inten    --     11.7650                 1.0644                14.6081

                     49                     50                     51
                      A                      A                      A
 Frequencies --   1110.3480              1130.0349              1160.9727
 Red. masses --      2.2734                 1.7150                 3.9994
 Frc consts  --      1.6514                 1.2903                 3.1761
 IR Inten    --     12.5276                 1.7538                21.0693

                     52                     53                     54
                      A                      A                      A
 Frequencies --   1198.3527              1203.2687              1209.2293
 Red. masses --      1.2804                 2.6465                 1.3493
 Frc consts  --      1.0834                 2.2576                 1.1625
 IR Inten    --      1.5234                38.7173                 3.1041

                     55                     56                     57
                      A                      A                      A
 Frequencies --   1214.0475              1234.8416              1254.4212
 Red. masses --      1.7883                 2.8031                 1.7547
 Frc consts  --      1.5530                 2.5183                 1.6269
 IR Inten    --      3.5624                39.7917                 4.4257

                     58                     59                     60
                      A                      A                      A
 Frequencies --   1276.9639              1284.8749              1323.7883
 Red. masses --      1.4745                 2.5404                 2.2735
 Frc consts  --      1.4166                 2.4710                 2.3474
 IR Inten    --     15.1615                14.3661                 2.4218

                     61                     62                     63
                      A                      A                      A
 Frequencies --   1329.4418              1360.5522              1372.7367
 Red. masses --      2.3072                 1.7272                 1.4757
 Frc consts  --      2.4026                 1.8837                 1.6384
 IR Inten    --      0.7366                 6.0780                12.8518

                     64                     65                     66
                      A                      A                      A
 Frequencies --   1387.2448              1390.0494              1417.1390
 Red. masses --      3.0513                 1.4825                 1.4334
 Frc consts  --      3.4597                 1.6878                 1.6961
 IR Inten    --    309.6901                23.8997                11.5167

                     67                     68                     69
                      A                      A                      A
 Frequencies --   1432.7681              1449.5869              1488.6872
 Red. masses --      1.2711                 1.9227                 2.2172
 Frc consts  --      1.5373                 2.3803                 2.8950
 IR Inten    --      1.4733                78.8218                91.2649

                     70                     71                     72
                      A                      A                      A
 Frequencies --   1492.2879              1501.6700              1506.2304
 Red. masses --      1.3608                 1.1752                 1.4661
 Frc consts  --      1.7855                 1.5613                 1.9597
 IR Inten    --      9.8807                 5.0298                 3.2098

                     73                     74                     75
                      A                      A                      A
 Frequencies --   1507.8485              1512.8527              1518.8931
 Red. masses --      1.0433                 1.7218                 1.5477
 Frc consts  --      1.3976                 2.3218                 2.1038
 IR Inten    --      8.9390                48.7917                 6.4634

                     76                     77                     78
                      A                      A                      A
 Frequencies --   1520.5719              1523.0207              1576.9788
 Red. masses --      1.3098                 1.7409                 4.7016
 Frc consts  --      1.7842                 2.3793                 6.8888
 IR Inten    --     34.5028                 8.8269                10.7146

                     79                     80                     81
                      A                      A                      A
 Frequencies --   1640.3985              1654.8534              1746.9262
 Red. masses --      6.5071                 6.1547                 8.5851
 Frc consts  --     10.3167                 9.9307                15.4364
 IR Inten    --     10.3021                 4.2716               348.1486

                     82                     83                     84
                      A                      A                      A
 Frequencies --   3019.2019              3020.1091              3049.7050
 Red. masses --      1.0731                 1.0686                 1.0626
 Frc consts  --      5.7633                 5.7424                 5.8227
 IR Inten    --     20.9454                25.7847                34.9785

                     85                     86                     87
                      A                      A                      A
 Frequencies --   3058.1397              3082.8825              3099.0840
 Red. masses --      1.0372                 1.0950                 1.0991
 Frc consts  --      5.7152                 6.1317                 6.2193
 IR Inten    --     16.1654                27.3911                37.7702

                     88                     89                     90
                      A                      A                      A
 Frequencies --   3104.4275              3113.5673              3161.4159
 Red. masses --      1.0931                 1.1013                 1.1011
 Frc consts  --      6.2067                 6.2902                 6.4839
 IR Inten    --     20.1435                 8.8531                 4.1923

                     91                     92                     93
                      A                      A                      A
 Frequencies --   3175.3641              3198.8021              3214.4059
 Red. masses --      1.0880                 1.0898                 1.0962
 Frc consts  --      6.4636                 6.5699                 6.6735
 IR Inten    --     10.1572                14.3923                15.9042

                     94                     95                     96
                      A                      A                      A
 Frequencies --   3271.6417              3469.0965              3576.2093
 Red. masses --      1.0936                 1.0737                 1.0749
 Frc consts  --      6.8969                 7.6131                 8.1000
 IR Inten    --      0.6463                 1.3595                43.2194

 - Thermochemistry -
 -------------------
 Temperature   298.150 Kelvin.  Pressure   1.00000 Atm.
 Atom     1 has atomic number  6 and mass  12.00000

 Molecular mass:   273.09358 amu.
 Principal axes and moments of inertia in atomic units:
                           1         2         3
     Eigenvalues --  3438.765307494.982728161.16579
           X            0.99991   0.01086   0.00799
           Y           -0.01053   0.99912  -0.04068
           Z           -0.00842   0.04059   0.99914
 This molecule is an asymmetric top.
 Rotational symmetry number  1.
 Warning -- assumption of classical behavior for rotation
           may cause significant error
 Rotational temperatures (Kelvin)      0.02519     0.01156     0.01061
 Rotational constants (GHZ):           0.52482     0.24079     0.22114
 Zero-point vibrational energy     719441.6 (Joules/Mol)
                                  171.95067 (Kcal/Mol)
 Warning -- explicit consideration of  27 degrees of freedom as
           vibrations may cause significant error
 Vibrational temperatures:     27.75    46.29    66.00    80.13   106.03
          (Kelvin)            138.16   155.00   186.32   226.34   319.81
                              382.70   403.58   418.21   474.61   475.16
                              499.10   609.55   634.24   657.92   682.57
                              702.18   719.92   752.61   754.81   870.89
                              885.98   890.70   927.42   940.80   958.06
                             1053.53  1075.04  1093.52  1131.06  1157.46
                             1166.89  1230.61  1269.07  1291.89  1325.57
                             1372.67  1394.43  1413.08  1435.73  1461.79
                             1501.50  1530.16  1569.30  1597.54  1625.87
                             1670.38  1724.16  1731.24  1739.81  1746.74
                             1776.66  1804.83  1837.27  1848.65  1904.64
                             1912.77  1957.53  1975.06  1995.94  1999.97
                             2038.95  2061.43  2085.63  2141.89  2147.07
                             2160.57  2167.13  2169.46  2176.66  2185.35
                             2187.76  2191.29  2268.92  2360.17  2380.96
                             2513.44  4343.96  4345.26  4387.85  4399.98
                             4435.58  4458.89  4466.58  4479.73  4548.57
                             4568.64  4602.36  4624.81  4707.16  4991.26
                             5145.37

 Zero-point correction=                           0.274021 (Hartree/Particle)
 Thermal correction to Energy=                    0.290978
 Thermal correction to Enthalpy=                  0.291922
 Thermal correction to Gibbs Free Energy=         0.226983
 Sum of electronic and zero-point Energies=          -1180.000793
 Sum of electronic and thermal Energies=             -1179.983837
 Sum of electronic and thermal Enthalpies=           -1179.982892
 Sum of electronic and thermal Free Energies=        -1180.047831

                     E (Thermal)             CV                S
                      KCal/Mol        Cal/Mol-Kelvin    Cal/Mol-Kelvin
 Total                  182.591             64.691            136.676
 Electronic               0.000              0.000              0.000
 Translational            0.889              2.981             42.713
 Rotational               0.889              2.981             33.708
 Vibrational            180.814             58.729             60.255
 Vibration     1          0.593              1.986              6.706
 Vibration     2          0.594              1.983              5.691
 Vibration     3          0.595              1.979              4.988
 Vibration     4          0.596              1.975              4.604
 Vibration     5          0.599              1.966              4.052
 Vibration     6          0.603              1.952              3.533
 Vibration     7          0.606              1.943              3.309
 Vibration     8          0.612              1.924              2.954
 Vibration     9          0.621              1.894              2.582
 Vibration    10          0.648              1.807              1.940
 Vibration    11          0.672              1.735              1.622
 Vibration    12          0.680              1.710              1.531
 Vibration    13          0.687              1.691              1.470
 Vibration    14          0.713              1.616              1.261
 Vibration    15          0.713              1.615              1.259
 Vibration    16          0.725              1.582              1.180
 Vibration    17          0.786              1.419              0.880
 Vibration    18          0.801              1.381              0.824
 Vibration    19          0.815              1.345              0.774
 Vibration    20          0.831              1.307              0.725
 Vibration    21          0.844              1.277              0.689
 Vibration    22          0.856              1.249              0.657
 Vibration    23          0.878              1.199              0.603
 Vibration    24          0.880              1.195              0.599
 Vibration    25          0.964              1.021              0.441
 Vibration    26          0.975              0.998              0.423
 Vibration    27          0.979              0.992              0.418

                           ! Non-Optimized Parameters !
 Normal termination of Gaussian 16 at Sun Dec 13 21:27:38 2020.

 ----------------------------------------------------------------------
 # B3LYP/6-311++G(d,p) empiricaldispersion=gd3bj scf=xqc pop=npa geom=c
 heck
 ----------------------------------------------------------------------

 ---------------------------------------
 CID_103806811_JID_9227_Energie_neutraal
 ---------------------------------------
 Structure from the checkpoint file:  "JID_9227.chk"
 Charge =  0 Multiplicity = 1

 SCF Done:  E(RB3LYP) =  -1180.51348032     A.U. after   16 cycles
 Normal termination of Gaussian 16 at Sun Dec 13 21:36:40 2020.

 ----------------------------------------------------------------------
 # B3LYP/6-311++G(d,p) empiricaldispersion=gd3bj scf=xqc pop=npa geom=c
 heck
 ----------------------------------------------------------------------

 -------------------------------------
 CID_103806811_JID_9227_Energie_kation
 -------------------------------------
 Structure from the checkpoint file:  "JID_9227.chk"
 Charge =  1 Multiplicity = 2

 SCF Done:  E(UB3LYP) =  -1180.21422389     A.U. after   32 cycles
 Normal termination of Gaussian 16 at Sun Dec 13 22:01:34 2020.
 Gaussian 16:  ES64L-G16RevA.03 25-Dec-2016

 ----------------------------------------------------------------------
 # B3LYP/6-311++G(d,p) empiricaldispersion=gd3bj scf=xqc pop=npa geom=c
 heck
 ----------------------------------------------------------------------

 ------------------------------------
 CID_103806811_JID_9227_Energie_anion
 ------------------------------------
 Structure from the checkpoint file:  "JID_9227.chk"
 Charge = -1 Multiplicity = 2

                         Standard orientation:
 ---------------------------------------------------------------------
 Center     Atomic      Atomic             Coordinates (Angstroms)
 Number     Number       Type             X           Y           Z
 ---------------------------------------------------------------------
      1          6           0        4.321266    1.997158    1.153412
      2          6           0        3.205147    1.048998    0.844371
      3          7           0        2.136062    0.922994    1.591447
      4          6           0        1.274166   -0.006456    1.066990
      5          6           0        1.671360   -0.612863   -0.101892
      6         16           0        3.237038    0.012810   -0.564526
      7          6           0        1.099810   -1.663700   -0.976638
      8          8           0        1.791544   -2.196589   -1.841387
      9          7           0       -0.212697   -2.032364   -0.802600
     10          6           0       -1.211275   -1.426387    0.020657
     11          6           0       -1.630130   -2.104270    1.165404
     12          6           0       -2.599921   -1.539348    1.992542
     13          6           0       -3.136156   -0.297281    1.666765
     14          6           0       -2.728119    0.386498    0.516253
     15          6           0       -1.756236   -0.175567   -0.327107
     16          6           0       -1.321574    0.542949   -1.589066
     17          6           0       -1.763297    2.012902   -1.599544
     18          7           0       -3.150211    2.208132   -1.175532
     19          6           0       -3.330534    1.748565    0.197876
     20          1           0        5.277059    1.471516    1.256428
     21          1           0        4.438841    2.747161    0.362908
     22          1           0        4.093445    2.506505    2.092138
     23          1           0        0.354668   -0.214593    1.595536
     24          1           0       -0.488660   -2.776985   -1.432629
     25          1           0       -1.177511   -3.062063    1.402487
     26          1           0       -2.929761   -2.064010    2.884297
     27          1           0       -3.889789    0.152575    2.309548
     28          1           0       -1.747474    0.023128   -2.460466
     29          1           0       -0.235573    0.485386   -1.709323
     30          1           0       -1.630480    2.440102   -2.599135
     31          1           0       -1.129465    2.591800   -0.915267
     32          1           0       -3.759775    1.666653   -1.788428
     33          1           0       -2.877713    2.498675    0.863259
     34          1           0       -4.401889    1.743372    0.428812
 ---------------------------------------------------------------------

 SCF Done:  E(UB3LYP) =  -1180.52297407     A.U. after   31 cycles

 The electronic state is 2-A.
 Alpha  occ. eigenvalues --  -88.72272 -18.93504 -14.20696 -14.20348 -14.16481
 Alpha  occ. eigenvalues --  -10.12276 -10.10347 -10.09516 -10.09466 -10.07766
 Alpha  occ. eigenvalues --  -10.07592 -10.07439 -10.07123 -10.06665 -10.06562
 Alpha  occ. eigenvalues --  -10.06453 -10.05705 -10.04675 -10.04610  -7.80940
 Alpha  occ. eigenvalues --   -5.77216  -5.76874  -5.76558  -0.89340  -0.82438
 Alpha  occ. eigenvalues --   -0.81265  -0.80139  -0.73984  -0.67334  -0.65790
 Alpha  occ. eigenvalues --   -0.64996  -0.63999  -0.61986  -0.56372  -0.55611
 Alpha  occ. eigenvalues --   -0.53167  -0.50821  -0.48790  -0.47021  -0.42857
 Alpha  occ. eigenvalues --   -0.40913  -0.40342  -0.40072  -0.37509  -0.36388
 Alpha  occ. eigenvalues --   -0.35605  -0.35261  -0.32659  -0.32416  -0.31761
 Alpha  occ. eigenvalues --   -0.31544  -0.31508  -0.28898  -0.28584  -0.28003
 Alpha  occ. eigenvalues --   -0.27522  -0.26930  -0.25950  -0.25629  -0.24879
 Alpha  occ. eigenvalues --   -0.24110  -0.23905  -0.22995  -0.21243  -0.15542
 Alpha  occ. eigenvalues --   -0.14436  -0.14287  -0.13649  -0.13500  -0.12486
 Alpha  occ. eigenvalues --   -0.11064  -0.10435   0.04295
 Alpha virt. eigenvalues --    0.06617   0.07647   0.07917   0.08370   0.08659
 Alpha virt. eigenvalues --    0.09248   0.09600   0.10450   0.10583   0.11561
 Alpha virt. eigenvalues --    0.11898   0.12376   0.12885   0.13217   0.13325

  Beta  occ. eigenvalues --  -88.72227 -18.93271 -14.20694 -14.20342 -14.16613
  Beta  occ. eigenvalues --  -10.12064 -10.10344 -10.09462 -10.09400 -10.07603
  Beta  occ. eigenvalues --  -10.07411 -10.07335 -10.07106 -10.06575 -10.06555
  Beta  occ. eigenvalues --  -10.06451 -10.05738 -10.04527 -10.04387  -7.80900
  Beta  occ. eigenvalues --   -5.77200  -5.76858  -5.76400  -0.88928  -0.82419
  Beta  occ. eigenvalues --   -0.81027  -0.79943  -0.73880  -0.67268  -0.65724
  Beta  occ. eigenvalues --   -0.64767  -0.63614  -0.61845  -0.56050  -0.55564
  Beta  occ. eigenvalues --   -0.53119  -0.50540  -0.48360  -0.46984  -0.42693
  Beta  occ. eigenvalues --   -0.40756  -0.40048  -0.39961  -0.37433  -0.36304
  Beta  occ. eigenvalues --   -0.35351  -0.35217  -0.32623  -0.32237  -0.31627
  Beta  occ. eigenvalues --   -0.31436  -0.31048  -0.28718  -0.28425  -0.27740
  Beta  occ. eigenvalues --   -0.27037  -0.26758  -0.25675  -0.25541  -0.24680
  Beta  occ. eigenvalues --   -0.23854  -0.23427  -0.22688  -0.20993  -0.15020
  Beta  occ. eigenvalues --   -0.14247  -0.14073  -0.13494  -0.13122  -0.11810
  Beta  occ. eigenvalues --   -0.10868  -0.08760
  Beta virt. eigenvalues --    0.06577   0.07580   0.08240   0.08322   0.08737
  Beta virt. eigenvalues --    0.09256   0.09429   0.09976   0.10447   0.10556
  Beta virt. eigenvalues --    0.11552   0.12178   0.12323   0.12824   0.13167

 Mulliken charges and spin densities:
               1          2
     1  C   -0.277571  -0.033597
     2  C   -0.153652   0.205926
     3  N    0.036507  -0.064221
     4  C   -0.718572   0.187612
     5  C    0.516319   0.034469
     6  S   -0.303095   0.123958
     7  C   -0.309091   0.146853
     8  O   -0.385350   0.085645
     9  N   -0.160362   0.010216
    10  C   -0.825636   0.057695
    11  C    0.117187  -0.008074
    12  C   -0.403936   0.023113
    13  C   -0.492331   0.024060
    14  C    0.455015   0.011935
    15  C    1.326536  -0.009007
    16  C   -0.577218   0.154380
    17  C   -0.471075  -0.196973
    18  N    0.034471   0.003723
    19  C   -0.791639  -0.102367
    20  H    0.113151   0.035806
    21  H    0.114580   0.039141
    22  H    0.139340   0.000655
    23  H    0.237882  -0.020773
    24  H    0.306709   0.005775
    25  H    0.143045   0.012631
    26  H    0.137916   0.000817
    27  H    0.119985   0.011591
    28  H    0.103222   0.087380
    29  H    0.193099   0.022881
    30  H    0.120219   0.057894
    31  H    0.167040   0.009669
    32  H    0.182243   0.022372
    33  H    0.195743  -0.000700
    34  H    0.109321   0.059518
 Sum of Mulliken charges =  -1.00000   1.00000

 Dipole moment (field-independent basis, Debye):
    X=             -5.8963    Y=              1.2039    Z=              0.9228  Tot=              6.0882
 Quadrupole moment (field-independent basis, Debye-Ang):
   XX=           -161.0875   YY=           -143.9373   ZZ=           -140.2218
   XY=             10.8208   XZ=              3.6206   YZ=             -7.7709

 Summary of Natural Population Analysis:

                                       Natural Population
                Natural  -----------------------------------------------
    Atom  No    Charge         Core      Valence    Rydberg      Total
 -----------------------------------------------------------------------
      C    1   -0.30806      0.99962     2.30369    0.00476     3.30806
      C    2    0.10241      0.99965     1.88107    0.01687     2.89759
      N    3   -0.28449      0.99966     2.77288    0.01195     3.78449
      C    4    0.03547      0.99950     1.94959    0.01544     2.96453
      C    5   -0.15076      0.99947     2.13763    0.01366     3.15076
      S    6    0.20445      4.99941     2.77561    0.02053     7.79555
      C    7    0.35082      0.99958     1.62872    0.02088     2.64918
      O    8   -0.31347      0.99988     3.30818    0.00541     4.31347
      N    9   -0.33048      0.99965     2.81903    0.01180     3.83048
      C   10    0.09334      0.99942     1.89447    0.01277     2.90666
      C   11   -0.10261      0.99951     2.09494    0.00816     3.10261
      C   12   -0.10145      0.99957     2.09324    0.00864     3.10145
      C   13   -0.08886      0.99953     2.08104    0.00830     3.08886
      C   14   -0.03113      0.99947     2.02143    0.01023     3.03113
      C   15   -0.00625      0.99941     1.99679    0.01005     3.00625
      C   16   -0.20929      0.99960     2.20230    0.00739     3.20929
      C   17   -0.08675      0.99964     2.07651    0.01060     3.08675
      N   18   -0.33676      0.99977     2.82406    0.01293     3.83676
      C   19   -0.09179      0.99960     2.08130    0.01089     3.09179
      H   20    0.10295      0.00000     0.39617    0.00088     0.39705
      H   21    0.10326      0.00000     0.39587    0.00087     0.39674
      H   22    0.10704      0.00000     0.39193    0.00103     0.39296
      H   23    0.09774      0.00000     0.40081    0.00145     0.40226
      H   24    0.19388      0.00000     0.30469    0.00143     0.30612
      H   25    0.10278      0.00000     0.39635    0.00088     0.39722
      H   26    0.09506      0.00000     0.40394    0.00100     0.40494
      H   27    0.09264      0.00000     0.40603    0.00133     0.40736
      H   28    0.09780      0.00000     0.40052    0.00167     0.40220
      H   29    0.12027      0.00000     0.37820    0.00152     0.37973
      H   30    0.09274      0.00000     0.40625    0.00100     0.40726
      H   31    0.09404      0.00000     0.40465    0.00131     0.40596
      H   32    0.16479      0.00000     0.33228    0.00294     0.33521
      H   33    0.09529      0.00000     0.40345    0.00125     0.40471
      H   34    0.09536      0.00000     0.40336    0.00127     0.40464
 =======================================================================
   * Total *    0.00001     22.99193    48.76698    0.24108    71.99999

 Normal termination of Gaussian 16 at Sun Dec 13 22:24:36 2020.
