 Gaussian 16, Revision A.03,

 -----------------------------------------------------------
 # opt freq B3LYP/6-31G(d) empiricaldispersion=gd3bj scf=xqc
 -----------------------------------------------------------

 -------------------------------
 CID_115750873_JID_5278_neutraal
 -------------------------------
 Symbolic Z-matrix:
 Charge =  0 Multiplicity = 1

 SCF Done:  E(RB3LYP) =  -1066.06722263     A.U. after   15 cycles
 SCF Done:  E(RB3LYP) =  -1066.07146495     A.U. after   12 cycles
 SCF Done:  E(RB3LYP) =  -1066.07201379     A.U. after   11 cycles
 SCF Done:  E(RB3LYP) =  -1066.07229777     A.U. after   11 cycles
 SCF Done:  E(RB3LYP) =  -1066.07240817     A.U. after   11 cycles
 SCF Done:  E(RB3LYP) =  -1066.07252140     A.U. after   11 cycles
 SCF Done:  E(RB3LYP) =  -1066.07264964     A.U. after   12 cycles
 SCF Done:  E(RB3LYP) =  -1066.07265889     A.U. after   12 cycles
 SCF Done:  E(RB3LYP) =  -1066.07266919     A.U. after   11 cycles
 SCF Done:  E(RB3LYP) =  -1066.07279514     A.U. after   12 cycles
 SCF Done:  E(RB3LYP) =  -1066.07548015     A.U. after    8 cycles
 SCF Done:  E(RB3LYP) =  -1066.07548018     A.U. after    7 cycles
 SCF Done:  E(RB3LYP) =  -1066.07548023     A.U. after    8 cycles
 SCF Done:  E(RB3LYP) =  -1066.07548024     A.U. after    9 cycles
 SCF Done:  E(RB3LYP) =  -1066.07548025     A.U. after    8 cycles
 Optimization completed.
    -- Stationary point found.
 Normal termination of Gaussian 16 at Thu Dec 10 15:32:14 2020.

 --------------------------------------------------------------------
 #N Geom=AllCheck Guess=TCheck SCRF=Check GenChk RB3LYP/6-31G(d) Freq
 --------------------------------------------------------------------

 Structure from the checkpoint file:  "JID_5278.chk"
 -------------------------------
 CID_115750873_JID_5278_neutraal
 -------------------------------
 Charge =  0 Multiplicity = 1

 SCF Done:  E(RB3LYP) =  -1066.07548025     A.U. after    1 cycles

  Exact polarizability: 176.886   0.794 121.080  -0.739  -8.653 107.306
 Approx polarizability: 223.652   7.911 194.026  -7.391 -22.659 168.271

                      1                      2                      3
                      A                      A                      A
 Frequencies --     18.1034                22.7568                32.2814
 Red. masses --      2.6645                 4.1752                 3.4628
 Frc consts  --      0.0005                 0.0013                 0.0021
 IR Inten    --      0.4756                 0.5235                 0.6536

                      4                      5                      6
                      A                      A                      A
 Frequencies --     42.3978                83.1561               104.3592
 Red. masses --      2.8020                 5.0743                 3.1238
 Frc consts  --      0.0030                 0.0207                 0.0200
 IR Inten    --      0.7988                 1.2652                 1.0627

                      7                      8                      9
                      A                      A                      A
 Frequencies --    138.8984               161.6398               191.2213
 Red. masses --      4.4287                 4.8382                 1.6852
 Frc consts  --      0.0503                 0.0745                 0.0363
 IR Inten    --      0.4085                 2.9343                 1.1219

                     10                     11                     12
                      A                      A                      A
 Frequencies --    225.9439               238.3163               251.7923
 Red. masses --      1.3264                 1.3022                 1.3349
 Frc consts  --      0.0399                 0.0436                 0.0499
 IR Inten    --      0.1720                 1.2838                 1.5088

                     13                     14                     15
                      A                      A                      A
 Frequencies --    266.6511               277.0989               310.1691
 Red. masses --      4.8239                 5.5159                 2.4854
 Frc consts  --      0.2021                 0.2495                 0.1409
 IR Inten    --      1.6491                 0.4862                 2.0860

                     16                     17                     18
                      A                      A                      A
 Frequencies --    318.6304               342.5547               401.2203
 Red. masses --      2.4762                 3.7813                 4.5379
 Frc consts  --      0.1481                 0.2614                 0.4304
 IR Inten    --      2.2547                 1.3274                 9.1727

                     19                     20                     21
                      A                      A                      A
 Frequencies --    415.9045               436.0109               449.4229
 Red. masses --      2.3025                 2.1264                 1.9659
 Frc consts  --      0.2347                 0.2382                 0.2340
 IR Inten    --      5.5901                13.3160                20.3007

                     22                     23                     24
                      A                      A                      A
 Frequencies --    468.5932               498.1860               531.0167
 Red. masses --      3.2426                 2.1029                 2.7378
 Frc consts  --      0.4195                 0.3075                 0.4549
 IR Inten    --     19.3921                13.6333               137.5420

                     25                     26                     27
                      A                      A                      A
 Frequencies --    561.3988               639.4298               700.0445
 Red. masses --      7.2609                 3.5625                 4.0301
 Frc consts  --      1.3483                 0.8582                 1.1636
 IR Inten    --     49.4767                 3.0960                20.5298

                     28                     29                     30
                      A                      A                      A
 Frequencies --    711.0975               738.6299               787.9803
 Red. masses --      2.8510                 3.2996                 1.4282
 Frc consts  --      0.8494                 1.0606                 0.5225
 IR Inten    --     13.0644                12.3468                27.7466

                     31                     32                     33
                      A                      A                      A
 Frequencies --    795.4495               818.3038               834.4764
 Red. masses --      1.2846                 4.9941                 2.7135
 Frc consts  --      0.4789                 1.9703                 1.1133
 IR Inten    --      9.0210                 7.5578                 5.3450

                     34                     35                     36
                      A                      A                      A
 Frequencies --    867.4410               897.1857               950.8624
 Red. masses --      2.7590                 1.6809                 1.1971
 Frc consts  --      1.2232                 0.7972                 0.6377
 IR Inten    --     91.0667                51.9863                 1.8273

                     37                     38                     39
                      A                      A                      A
 Frequencies --    969.3308               971.2752               985.0478
 Red. masses --      2.4468                 2.0047                 1.4645
 Frc consts  --      1.3546                 1.1143                 0.8372
 IR Inten    --      1.7687                 2.8004                 0.4055

                     40                     41                     42
                      A                      A                      A
 Frequencies --   1026.7018              1057.2520              1076.8184
 Red. masses --      3.3048                 4.2107                 1.5301
 Frc consts  --      2.0525                 2.7731                 1.0453
 IR Inten    --     36.5521                 0.7963                 1.8346

                     43                     44                     45
                      A                      A                      A
 Frequencies --   1096.7404              1107.1422              1139.1382
 Red. masses --      1.7677                 2.9484                 2.3117
 Frc consts  --      1.2527                 2.1294                 1.7674
 IR Inten    --     15.5097                82.9162                92.6628

                     46                     47                     48
                      A                      A                      A
 Frequencies --   1154.5416              1178.1206              1208.2452
 Red. masses --      1.9823                 1.6286                 1.7424
 Frc consts  --      1.5568                 1.3318                 1.4987
 IR Inten    --      9.6853                18.8372                 6.2820

                     49                     50                     51
                      A                      A                      A
 Frequencies --   1214.8247              1263.8531              1269.7299
 Red. masses --      3.6924                 1.4568                 1.7232
 Frc consts  --      3.2106                 1.3710                 1.6369
 IR Inten    --     12.0884                 7.9751                19.7388

                     52                     53                     54
                      A                      A                      A
 Frequencies --   1293.8954              1317.4798              1334.0038
 Red. masses --      1.8120                 1.4112                 2.8489
 Frc consts  --      1.7874                 1.4432                 2.9870
 IR Inten    --     57.3915                13.8782                78.7249

                     55                     56                     57
                      A                      A                      A
 Frequencies --   1367.5606              1379.7890              1386.5085
 Red. masses --      1.4758                 1.4478                 1.4818
 Frc consts  --      1.6262                 1.6240                 1.6783
 IR Inten    --      3.1965                 3.8289                59.9511

                     58                     59                     60
                      A                      A                      A
 Frequencies --   1404.3937              1432.5482              1439.6727
 Red. masses --      1.4168                 1.2464                 1.2346
 Frc consts  --      1.6464                 1.5071                 1.5076
 IR Inten    --     26.5159                 3.5152                 3.0585

                     61                     62                     63
                      A                      A                      A
 Frequencies --   1452.9606              1462.3691              1485.5862
 Red. masses --      1.2236                 2.6415                 1.0896
 Frc consts  --      1.5219                 3.3282                 1.4168
 IR Inten    --      3.4827                 3.6074                 4.5475

                     64                     65                     66
                      A                      A                      A
 Frequencies --   1511.3154              1515.2532              1517.8274
 Red. masses --      1.5453                 1.4549                 1.5424
 Frc consts  --      2.0795                 1.9682                 2.0936
 IR Inten    --     19.0532                79.0857                54.7077

                     67                     68                     69
                      A                      A                      A
 Frequencies --   1523.2295              1524.5907              1526.8484
 Red. masses --      1.0812                 2.0987                 1.1506
 Frc consts  --      1.4780                 2.8742                 1.5804
 IR Inten    --      8.3386                43.7185                19.3317

                     70                     71                     72
                      A                      A                      A
 Frequencies --   1534.5974              1536.1305              1538.8481
 Red. masses --      1.0543                 1.1089                 1.0618
 Frc consts  --      1.4628                 1.5417                 1.4815
 IR Inten    --      3.0231                 3.3993                 8.3237

                     73                     74                     75
                      A                      A                      A
 Frequencies --   1627.4210              3042.2160              3043.2857
 Red. masses --      4.1509                 1.0358                 1.0676
 Frc consts  --      6.4773                 5.6480                 5.8257
 IR Inten    --     45.0444                26.5214                30.7093

                     76                     77                     78
                      A                      A                      A
 Frequencies --   3053.4858              3056.5480              3061.5828
 Red. masses --      1.0432                 1.0353                 1.0797
 Frc consts  --      5.7307                 5.6985                 5.9627
 IR Inten    --     19.5612                26.3687                 8.9004

                     79                     80                     81
                      A                      A                      A
 Frequencies --   3079.6011              3097.8413              3108.0063
 Red. masses --      1.0590                 1.0962                 1.1022
 Frc consts  --      5.9177                 6.1979                 6.2731
 IR Inten    --      6.0297                 4.2398                19.7211

                     82                     83                     84
                      A                      A                      A
 Frequencies --   3114.1776              3119.8405              3126.4043
 Red. masses --      1.1028                 1.1018                 1.1023
 Frc consts  --      6.3011                 6.3187                 6.3480
 IR Inten    --     25.5445                62.6924                41.1113

                     85                     86                     87
                      A                      A                      A
 Frequencies --   3136.8296              3139.6400              3158.6568
 Red. masses --      1.1036                 1.1061                 1.0978
 Frc consts  --      6.3980                 6.4241                 6.4531
 IR Inten    --     27.1564                 0.9865                15.8105

                     88                     89                     90
                      A                      A                      A
 Frequencies --   3276.6598              3556.6928              3664.7839
 Red. masses --      1.0978                 1.0756                 1.0810
 Frc consts  --      6.9444                 8.0164                 8.5544
 IR Inten    --      0.4495                36.5842                62.4359

 - Thermochemistry -
 -------------------
 Temperature   298.150 Kelvin.  Pressure   1.00000 Atm.
 Atom     1 has atomic number  6 and mass  12.00000

 Molecular mass:   231.10415 amu.
 Principal axes and moments of inertia in atomic units:
                           1         2         3
     Eigenvalues --  1740.499766582.686237232.72494
           X            0.99973  -0.02300  -0.00405
           Y            0.02286   0.99923  -0.03188
           Z            0.00478   0.03178   0.99948
 This molecule is an asymmetric top.
 Rotational symmetry number  1.
 Warning -- assumption of classical behavior for rotation
           may cause significant error
 Rotational temperatures (Kelvin)      0.04976     0.01316     0.01198
 Rotational constants (GHZ):           1.03691     0.27416     0.24952
 Zero-point vibrational energy     706971.9 (Joules/Mol)
                                  168.97034 (Kcal/Mol)
 Warning -- explicit consideration of  25 degrees of freedom as
           vibrations may cause significant error
 Vibrational temperatures:     26.05    32.74    46.45    61.00   119.64
          (Kelvin)            150.15   199.84   232.56   275.12   325.08
                              342.88   362.27   383.65   398.68   446.26
                              458.44   492.86   577.27   598.39   627.32
                              646.62   674.20   716.78   764.01   807.73
                              920.00  1007.21  1023.11  1062.72  1133.73
                             1144.47  1177.36  1200.63  1248.05  1290.85
                             1368.08  1394.65  1397.45  1417.26  1477.19
                             1521.15  1549.30  1577.96  1592.93  1638.97
                             1661.13  1695.05  1738.40  1747.86  1818.40
                             1826.86  1861.63  1895.56  1919.33  1967.61
                             1985.21  1994.88  2020.61  2061.12  2071.37
                             2090.49  2104.02  2137.43  2174.45  2180.11
                             2183.82  2191.59  2193.55  2196.79  2207.94
                             2210.15  2214.06  2341.50  4377.07  4378.61
                             4393.29  4397.69  4404.93  4430.86  4457.10
                             4471.73  4480.61  4488.75  4498.20  4513.20
                             4517.24  4544.60  4714.38  5117.29  5272.81

 Zero-point correction=                           0.269271 (Hartree/Particle)
 Thermal correction to Energy=                    0.286013
 Thermal correction to Enthalpy=                  0.286957
 Thermal correction to Gibbs Free Energy=         0.222323
 Sum of electronic and zero-point Energies=          -1065.806209
 Sum of electronic and thermal Energies=             -1065.789468
 Sum of electronic and thermal Enthalpies=           -1065.788523
 Sum of electronic and thermal Free Energies=        -1065.853158

                     E (Thermal)             CV                S
                      KCal/Mol        Cal/Mol-Kelvin    Cal/Mol-Kelvin
 Total                  179.476             61.181            136.034
 Electronic               0.000              0.000              0.000
 Translational            0.889              2.981             42.215
 Rotational               0.889              2.981             32.783
 Vibrational            177.698             55.219             61.037
 Vibration     1          0.593              1.986              6.832
 Vibration     2          0.593              1.985              6.378
 Vibration     3          0.594              1.983              5.684
 Vibration     4          0.595              1.980              5.144
 Vibration     5          0.600              1.961              3.815
 Vibration     6          0.605              1.946              3.371
 Vibration     7          0.615              1.914              2.819
 Vibration     8          0.622              1.889              2.531
 Vibration     9          0.634              1.852              2.216
 Vibration    10          0.650              1.802              1.911
 Vibration    11          0.656              1.782              1.815
 Vibration    12          0.664              1.760              1.718
 Vibration    13          0.672              1.734              1.618
 Vibration    14          0.678              1.716              1.552
 Vibration    15          0.699              1.654              1.361
 Vibration    16          0.705              1.638              1.317
 Vibration    17          0.722              1.590              1.200
 Vibration    18          0.767              1.467              0.958
 Vibration    19          0.779              1.436              0.906
 Vibration    20          0.796              1.392              0.839
 Vibration    21          0.808              1.362              0.798
 Vibration    22          0.826              1.320              0.742
 Vibration    23          0.854              1.254              0.663
 Vibration    24          0.886              1.181              0.585
 Vibration    25          0.917              1.115              0.521

                           ! Non-Optimized Parameters !
 Normal termination of Gaussian 16 at Thu Dec 10 15:41:34 2020.

 ----------------------------------------------------------------------
 # B3LYP/6-311++G(d,p) empiricaldispersion=gd3bj scf=xqc pop=npa geom=c
 heck
 ----------------------------------------------------------------------

 ---------------------------------------
 CID_115750873_JID_5278_Energie_neutraal
 ---------------------------------------
 Structure from the checkpoint file:  "JID_5278.chk"
 Charge =  0 Multiplicity = 1

 SCF Done:  E(RB3LYP) =  -1066.29667596     A.U. after   15 cycles
 Normal termination of Gaussian 16 at Thu Dec 10 15:46:49 2020.

 ----------------------------------------------------------------------
 # B3LYP/6-311++G(d,p) empiricaldispersion=gd3bj scf=xqc pop=npa geom=c
 heck
 ----------------------------------------------------------------------

 -------------------------------------
 CID_115750873_JID_5278_Energie_kation
 -------------------------------------
 Structure from the checkpoint file:  "JID_5278.chk"
 Charge =  1 Multiplicity = 2

 SCF Done:  E(UB3LYP) =  -1065.98237345     A.U. after   25 cycles
 Normal termination of Gaussian 16 at Thu Dec 10 16:00:16 2020.
 Gaussian 16:  ES64L-G16RevA.03 25-Dec-2016

 ----------------------------------------------------------------------
 # B3LYP/6-311++G(d,p) empiricaldispersion=gd3bj scf=xqc pop=npa geom=c
 heck
 ----------------------------------------------------------------------

 ------------------------------------
 CID_115750873_JID_5278_Energie_anion
 ------------------------------------
 Structure from the checkpoint file:  "JID_5278.chk"
 Charge = -1 Multiplicity = 2

                         Standard orientation:
 ---------------------------------------------------------------------
 Center     Atomic      Atomic             Coordinates (Angstroms)
 Number     Number       Type             X           Y           Z
 ---------------------------------------------------------------------
      1          6           0        5.077166    0.047056   -1.082873
      2          6           0        4.561510    0.460158    0.306953
      3          6           0        3.069148    0.404768    0.413079
      4          6           0        2.216359   -0.535018    0.967130
      5          6           0        0.914249   -0.052342    0.695627
      6          7           0        0.936688    1.101903    0.028637
      7          7           0        2.257173    1.343671   -0.146855
      8          7           0       -0.325918   -0.625158    1.040140
      9         16           0       -1.316328   -1.264727   -0.212967
     10          8           0       -0.489492   -1.827377   -1.285116
     11          8           0       -2.285477   -2.100285    0.505753
     12          6           0       -2.110771    0.217660   -0.879177
     13          6           0       -3.288843    0.765553   -0.065952
     14          6           0       -2.872643    1.325933    1.298791
     15          6           0       -3.989356    1.841548   -0.909063
     16          1           0        4.760211   -0.972060   -1.324824
     17          1           0        6.170909    0.088329   -1.117689
     18          1           0        4.687519    0.709852   -1.863309
     19          1           0        4.984179   -0.201371    1.070049
     20          1           0        4.913771    1.472543    0.546454
     21          1           0        2.493313   -1.447078    1.475214
     22          1           0        2.533785    2.180881   -0.636618
     23          1           0       -0.280283   -1.325462    1.775558
     24          1           0       -1.301449    0.945700   -0.994688
     25          1           0       -2.432750   -0.108230   -1.873714
     26          1           0       -3.990520   -0.062046    0.094583
     27          1           0       -2.091755    2.087296    1.186274
     28          1           0       -3.734927    1.788221    1.792428
     29          1           0       -2.480132    0.544365    1.951813
     30          1           0       -4.323507    1.445769   -1.875096
     31          1           0       -4.867184    2.229268   -0.380844
     32          1           0       -3.316703    2.686139   -1.103756
 ---------------------------------------------------------------------

 SCF Done:  E(UB3LYP) =  -1066.28949262     A.U. after   33 cycles
 SCF Done:  E(UB3LYP) =  -1066.28949262     a.u. after    1 cycles

 The electronic state is 2-A.
 Alpha  occ. eigenvalues --  -88.97322 -19.03316 -19.02906 -14.28640 -14.26204
 Alpha  occ. eigenvalues --  -14.23581 -10.13950 -10.12108 -10.12091 -10.10682
 Alpha  occ. eigenvalues --  -10.08638 -10.08572 -10.07365 -10.07362 -10.06690
 Alpha  occ. eigenvalues --   -8.03582  -5.99886  -5.99814  -5.99622  -1.03127
 Alpha  occ. eigenvalues --   -0.95601  -0.92209  -0.84731  -0.74435  -0.73329
 Alpha  occ. eigenvalues --   -0.69806  -0.65793  -0.65287  -0.60736  -0.56141
 Alpha  occ. eigenvalues --   -0.54707  -0.51458  -0.50688  -0.48526  -0.44633
 Alpha  occ. eigenvalues --   -0.42267  -0.40708  -0.39610  -0.38608  -0.37347
 Alpha  occ. eigenvalues --   -0.36184  -0.35781  -0.35326  -0.33702  -0.33631
 Alpha  occ. eigenvalues --   -0.32824  -0.31350  -0.30403  -0.29410  -0.28106
 Alpha  occ. eigenvalues --   -0.27366  -0.26601  -0.26222  -0.25756  -0.25354
 Alpha  occ. eigenvalues --   -0.24579  -0.23081  -0.22057  -0.21477  -0.20477
 Alpha  occ. eigenvalues --   -0.15656  -0.14562   0.03886
 Alpha virt. eigenvalues --    0.05365   0.06846   0.07598   0.07753   0.08396
 Alpha virt. eigenvalues --    0.08685   0.09111   0.09395   0.09721   0.10715
 Alpha virt. eigenvalues --    0.11259   0.11660   0.11913   0.12312   0.12701

  Beta  occ. eigenvalues --  -88.97319 -19.03313 -19.02902 -14.28573 -14.26194
  Beta  occ. eigenvalues --  -14.23554 -10.13956 -10.12099 -10.12079 -10.10680
  Beta  occ. eigenvalues --  -10.08600 -10.08549 -10.07358 -10.07344 -10.06645
  Beta  occ. eigenvalues --   -8.03578  -5.99882  -5.99811  -5.99619  -1.03116
  Beta  occ. eigenvalues --   -0.95542  -0.92199  -0.84710  -0.74420  -0.73265
  Beta  occ. eigenvalues --   -0.69730  -0.65752  -0.65242  -0.60707  -0.56100
  Beta  occ. eigenvalues --   -0.54617  -0.51416  -0.50614  -0.48488  -0.44611
  Beta  occ. eigenvalues --   -0.42228  -0.40680  -0.39570  -0.38587  -0.37329
  Beta  occ. eigenvalues --   -0.36110  -0.35729  -0.35309  -0.33681  -0.33574
  Beta  occ. eigenvalues --   -0.32768  -0.31328  -0.30385  -0.29351  -0.28081
  Beta  occ. eigenvalues --   -0.27308  -0.26583  -0.26195  -0.25725  -0.25321
  Beta  occ. eigenvalues --   -0.24560  -0.23072  -0.22041  -0.21452  -0.20442
  Beta  occ. eigenvalues --   -0.15582  -0.14478
  Beta virt. eigenvalues --    0.05633   0.06705   0.07423   0.07899   0.08448
  Beta virt. eigenvalues --    0.08716   0.09184   0.09268   0.09775   0.10049
  Beta virt. eigenvalues --    0.10912   0.11440   0.11844   0.12043   0.12602

 Mulliken charges and spin densities:
               1          2
     1  C    0.822520  -1.385713
     2  C   -0.467781   0.143017
     3  C    0.698276  -0.717785
     4  C   -0.449840   0.893568
     5  C    0.901009  -1.633650
     6  N   -0.326035   0.062187
     7  N    0.049635   0.035944
     8  N   -0.240906   0.009010
     9  S    0.467950   0.059368
    10  O   -0.140674   0.010028
    11  O   -0.269301  -0.000862
    12  C   -0.258189  -0.669189
    13  C   -0.723320   1.114364
    14  C   -0.083695  -0.520458
    15  C    0.150295  -0.764042
    16  H    0.071843   0.071317
    17  H   -0.529280   0.678422
    18  H   -0.148160   0.285650
    19  H   -0.285026   0.447915
    20  H   -0.646695   0.824630
    21  H   -0.338260   0.519725
    22  H   -0.316569   0.661009
    23  H    0.296638   0.032789
    24  H    0.367278  -0.081544
    25  H    0.224993   0.016841
    26  H    0.170753   0.025450
    27  H    0.108028   0.061765
    28  H    0.095108   0.045102
    29  H    0.071116   0.086428
    30  H   -0.061848   0.189372
    31  H   -0.144072   0.284747
    32  H   -0.065793   0.214597
 Sum of Mulliken charges =  -1.00000   1.00000

 Dipole moment (field-independent basis, Debye):
    X=             -8.2163    Y=             -2.6322    Z=              1.7343  Tot=              8.8003
 Quadrupole moment (field-independent basis, Debye-Ang):
   XX=           -207.5924   YY=           -147.6704   ZZ=           -126.0257
   XY=            -14.4851   XZ=              3.4738   YZ=              0.9937

 Summary of Natural Population Analysis:

                                       Natural Population
                Natural  -----------------------------------------------
    Atom  No    Charge         Core      Valence    Rydberg      Total
 -----------------------------------------------------------------------
      C    1   -0.27875      0.99966     2.27355    0.00553     3.27875
      C    2   -0.20918      0.99961     2.20029    0.00927     3.20918
      C    3    0.09679      0.99955     1.89093    0.01273     2.90321
      C    4   -0.16568      0.99945     2.15808    0.00815     3.16568
      C    5    0.14566      0.99955     1.83668    0.01811     2.85434
      N    6   -0.16902      0.99969     2.65633    0.01300     3.66902
      N    7   -0.16123      0.99965     2.64855    0.01303     3.66123
      N    8   -0.42566      0.99969     2.91347    0.01250     3.92566
      S    9    1.08847      4.99930     1.81394    0.09828     6.91153
      O   10   -0.45497      0.99991     3.44994    0.00513     4.45497
      O   11   -0.46872      0.99991     3.46332    0.00548     4.46872
      C   12   -0.28940      0.99954     2.27866    0.01120     3.28940
      C   13   -0.12657      0.99961     2.11557    0.01139     3.12657
      C   14   -0.28700      0.99965     2.28214    0.00521     3.28700
      C   15   -0.28135      0.99965     2.27658    0.00512     3.28135
      H   16    0.09793      0.00000     0.40103    0.00105     0.40207
      H   17    0.10151      0.00000     0.39674    0.00175     0.39849
      H   18    0.09948      0.00000     0.39909    0.00143     0.40052
      H   19    0.10642      0.00000     0.39204    0.00154     0.39358
      H   20    0.11026      0.00000     0.38522    0.00452     0.38974
      H   21    0.11008      0.00000     0.38886    0.00106     0.38992
      H   22    0.20599      0.00000     0.28637    0.00764     0.29401
      H   23    0.20011      0.00000     0.29766    0.00223     0.29989
      H   24    0.13153      0.00000     0.36636    0.00211     0.36847
      H   25    0.11578      0.00000     0.38310    0.00112     0.38422
      H   26    0.10153      0.00000     0.39650    0.00197     0.39847
      H   27    0.10309      0.00000     0.39583    0.00107     0.39691
      H   28    0.09590      0.00000     0.40330    0.00080     0.40410
      H   29    0.10767      0.00000     0.39131    0.00102     0.39233
      H   30    0.09844      0.00000     0.40055    0.00101     0.40156
      H   31    0.10095      0.00000     0.39802    0.00103     0.39905
      H   32    0.09994      0.00000     0.39898    0.00109     0.40006
 =======================================================================
   * Total *    0.00000     18.99441    42.73901    0.26658    62.00000

 Normal termination of Gaussian 16 at Thu Dec 10 16:15:14 2020.
