 Gaussian 16, Revision A.03,

 -----------------------------------------------------------
 # opt freq B3LYP/6-31G(d) empiricaldispersion=gd3bj scf=xqc
 -----------------------------------------------------------

 ------------------------------
 CID_86590531_JID_7354_neutraal
 ------------------------------
 Symbolic Z-matrix:
 Charge =  0 Multiplicity = 1

 SCF Done:  E(RB3LYP) =  -802.109505555     A.U. after   15 cycles
 SCF Done:  E(RB3LYP) =  -802.113465859     A.U. after   13 cycles
 SCF Done:  E(RB3LYP) =  -802.113476631     A.U. after   12 cycles
 SCF Done:  E(RB3LYP) =  -802.114445434     A.U. after   13 cycles
 SCF Done:  E(RB3LYP) =  -802.115221963     A.U. after   13 cycles
 SCF Done:  E(RB3LYP) =  -802.116756308     A.U. after   15 cycles
 SCF Done:  E(RB3LYP) =  -802.117669502     A.U. after   16 cycles
 SCF Done:  E(RB3LYP) =  -802.118664867     A.U. after   13 cycles
 SCF Done:  E(RB3LYP) =  -802.118984094     A.U. after   12 cycles
 SCF Done:  E(RB3LYP) =  -802.119077844     A.U. after   11 cycles
 SCF Done:  E(RB3LYP) =  -802.119372538     A.U. after    7 cycles
 SCF Done:  E(RB3LYP) =  -802.119372555     A.U. after    7 cycles
 SCF Done:  E(RB3LYP) =  -802.119372563     A.U. after    7 cycles
 SCF Done:  E(RB3LYP) =  -802.119372566     A.U. after    7 cycles
 Optimization completed.
    -- Stationary point found.
 Normal termination of Gaussian 16 at Fri Dec 11 12:11:04 2020.

 --------------------------------------------------------------------
 #N Geom=AllCheck Guess=TCheck SCRF=Check GenChk RB3LYP/6-31G(d) Freq
 --------------------------------------------------------------------

 Structure from the checkpoint file:  "JID_7354.chk"
 ------------------------------
 CID_86590531_JID_7354_neutraal
 ------------------------------
 Charge =  0 Multiplicity = 1

 SCF Done:  E(RB3LYP) =  -802.119372566     A.U. after    1 cycles

  Exact polarizability: 168.660 -16.396 143.093  13.773   6.497 111.314
 Approx polarizability: 218.453 -29.358 236.623  25.644  21.964 178.408

                      1                      2                      3
                      A                      A                      A
 Frequencies --      9.7739                24.0087                34.4900
 Red. masses --      5.5370                 3.8614                 5.2664
 Frc consts  --      0.0003                 0.0013                 0.0037
 IR Inten    --      0.5735                 0.5310                 1.9552

                      4                      5                      6
                      A                      A                      A
 Frequencies --     36.2553                48.8738                51.1775
 Red. masses --      4.9451                 6.0473                 5.0295
 Frc consts  --      0.0038                 0.0085                 0.0078
 IR Inten    --      2.9145                 2.6108                 2.9248

                      7                      8                      9
                      A                      A                      A
 Frequencies --     90.2980               108.7941               181.2691
 Red. masses --      6.1357                 6.4571                 4.7309
 Frc consts  --      0.0295                 0.0450                 0.0916
 IR Inten    --      2.0460                 1.8256                 1.1559

                     10                     11                     12
                      A                      A                      A
 Frequencies --    198.5813               221.1494               280.1352
 Red. masses --      3.6180                 3.8999                 2.8306
 Frc consts  --      0.0841                 0.1124                 0.1309
 IR Inten    --      4.1437                 7.6463                 5.4679

                     13                     14                     15
                      A                      A                      A
 Frequencies --    307.2022               340.5975               378.2962
 Red. masses --      4.3814                 3.0388                 2.5629
 Frc consts  --      0.2436                 0.2077                 0.2161
 IR Inten    --      2.5772                 5.7907                 0.5326

                     16                     17                     18
                      A                      A                      A
 Frequencies --    411.1937               416.6064               428.4922
 Red. masses --      1.8069                 2.9913                 1.4209
 Frc consts  --      0.1800                 0.3059                 0.1537
 IR Inten    --     97.6712                 0.0496               117.3462

                     19                     20                     21
                      A                      A                      A
 Frequencies --    446.6785               480.5754               522.3329
 Red. masses --      2.6240                 3.4003                 2.0029
 Frc consts  --      0.3085                 0.4627                 0.3220
 IR Inten    --      1.9640                 1.9054                15.0401

                     22                     23                     24
                      A                      A                      A
 Frequencies --    528.9809               576.6735               631.3400
 Red. masses --      5.0761                 2.5234                 4.5384
 Frc consts  --      0.8369                 0.4944                 1.0658
 IR Inten    --      8.5153                 0.6563                15.1965

                     25                     26                     27
                      A                      A                      A
 Frequencies --    643.8905               660.2676               706.0353
 Red. masses --      3.3828                 2.3951                 2.3009
 Frc consts  --      0.8263                 0.6152                 0.6758
 IR Inten    --     27.4906                18.3963                 3.0482

                     28                     29                     30
                      A                      A                      A
 Frequencies --    711.2399               739.6725               751.7656
 Red. masses --      2.4785                 1.8157                 1.7156
 Frc consts  --      0.7387                 0.5853                 0.5713
 IR Inten    --     11.1295                51.1061                23.2174

                     31                     32                     33
                      A                      A                      A
 Frequencies --    777.7291               822.4681               849.9119
 Red. masses --      3.3487                 4.9179                 3.7267
 Frc consts  --      1.1934                 1.9600                 1.5861
 IR Inten    --      4.4483                10.8153                 4.8418

                     34                     35                     36
                      A                      A                      A
 Frequencies --    860.3427               861.8094               863.2097
 Red. masses --      1.8666                 1.7721                 2.1253
 Frc consts  --      0.8141                 0.7754                 0.9331
 IR Inten    --      0.2756                 1.7297                45.3742

                     37                     38                     39
                      A                      A                      A
 Frequencies --    911.2692               934.1811               967.2245
 Red. masses --      2.4822                 1.7386                 2.1092
 Frc consts  --      1.2145                 0.8940                 1.1626
 IR Inten    --     32.3782                10.4199                 4.3254

                     40                     41                     42
                      A                      A                      A
 Frequencies --    969.7877               977.2773               997.6385
 Red. masses --      1.3503                 2.1803                 1.2627
 Frc consts  --      0.7482                 1.2269                 0.7404
 IR Inten    --      0.0822                15.4990                 0.4889

                     43                     44                     45
                      A                      A                      A
 Frequencies --   1021.9920              1024.6235              1054.8364
 Red. masses --      4.3461                 2.2277                 2.1688
 Frc consts  --      2.6745                 1.3779                 1.4218
 IR Inten    --      5.0511                10.0471                10.5338

                     46                     47                     48
                      A                      A                      A
 Frequencies --   1061.8487              1091.9127              1112.0743
 Red. masses --      2.2411                 2.3006                 1.6729
 Frc consts  --      1.4888                 1.6161                 1.2190
 IR Inten    --      4.3777                13.5748                14.2520

                     49                     50                     51
                      A                      A                      A
 Frequencies --   1117.2598              1149.2498              1156.0814
 Red. masses --      1.6750                 1.8029                 1.6439
 Frc consts  --      1.2319                 1.4030                 1.2945
 IR Inten    --     16.5608                96.2002                38.7238

                     52                     53                     54
                      A                      A                      A
 Frequencies --   1194.2009              1217.0205              1217.5760
 Red. masses --      1.1007                 1.2049                 1.2070
 Frc consts  --      0.9248                 1.0514                 1.0543
 IR Inten    --      0.0832                 9.8709                 6.3050

                     55                     56                     57
                      A                      A                      A
 Frequencies --   1225.2253              1276.7936              1285.0859
 Red. masses --      2.5638                 1.4190                 2.0044
 Frc consts  --      2.2676                 1.3629                 1.9503
 IR Inten    --      2.9676                 8.3259               221.3945

                     58                     59                     60
                      A                      A                      A
 Frequencies --   1314.2179              1325.2112              1336.2254
 Red. masses --      1.8234                 1.7822                 1.2149
 Frc consts  --      1.8555                 1.8441                 1.2781
 IR Inten    --     76.0600                28.8732                22.8295

                     61                     62                     63
                      A                      A                      A
 Frequencies --   1367.2302              1377.3842              1391.6094
 Red. masses --      3.7741                 1.3563                 1.4824
 Frc consts  --      4.1567                 1.5160                 1.6914
 IR Inten    --      5.6903                24.0589                21.1560

                     64                     65                     66
                      A                      A                      A
 Frequencies --   1406.0839              1419.2050              1500.2755
 Red. masses --      1.3928                 1.6457                 1.3025
 Frc consts  --      1.6225                 1.9530                 1.7274
 IR Inten    --      9.7435                25.8226                 5.3037

                     67                     68                     69
                      A                      A                      A
 Frequencies --   1503.8075              1507.3725              1514.4698
 Red. masses --      1.0787                 1.6831                 1.0859
 Frc consts  --      1.4372                 2.2532                 1.4674
 IR Inten    --      2.7207                 7.2692                12.9151

                     70                     71                     72
                      A                      A                      A
 Frequencies --   1517.3275              1538.6865              1548.3503
 Red. masses --      1.1237                 1.1361                 2.2005
 Frc consts  --      1.5242                 1.5848                 3.1082
 IR Inten    --     15.5473                23.8592                13.3241

                     73                     74                     75
                      A                      A                      A
 Frequencies --   1648.5530              1648.6640              1667.1656
 Red. masses --      3.6868                 1.3690                 5.5427
 Frc consts  --      5.9035                 2.1924                 9.0766
 IR Inten    --      9.5487                87.3531                 6.5611

                     76                     77                     78
                      A                      A                      A
 Frequencies --   1810.4378              1841.7443              3060.9412
 Red. masses --      8.7398                11.2127                 1.0600
 Frc consts  --     16.8779                22.4088                 5.8514
 IR Inten    --    232.5214               195.8917                13.5815

                     79                     80                     81
                      A                      A                      A
 Frequencies --   3073.3332              3078.6375              3079.9436
 Red. masses --      1.0611                 1.0656                 1.0592
 Frc consts  --      5.9050                 5.9503                 5.9197
 IR Inten    --     17.5347                 7.8850                11.2510

                     82                     83                     84
                      A                      A                      A
 Frequencies --   3101.3209              3119.6737              3132.7078
 Red. masses --      1.1032                 1.1024                 1.1055
 Frc consts  --      6.2518                 6.3212                 6.3920
 IR Inten    --     10.1003                34.1751                 7.6523

                     85                     86                     87
                      A                      A                      A
 Frequencies --   3140.8802              3178.0436              3187.0850
 Red. masses --      1.1020                 1.0861                 1.0872
 Frc consts  --      6.4055                 6.4628                 6.5065
 IR Inten    --     12.9774                 6.7479                 1.7116

                     88                     89                     90
                      A                      A                      A
 Frequencies --   3196.2304              3205.3475              3213.2239
 Red. masses --      1.0912                 1.0939                 1.0977
 Frc consts  --      6.5678                 6.6217                 6.6773
 IR Inten    --     24.9723                24.6762                14.6803

                     91                     92                     93
                      A                      A                      A
 Frequencies --   3481.1984              3567.5742              3690.5662
 Red. masses --      1.0758                 1.0459                 1.1030
 Frc consts  --      7.6811                 7.8434                 8.8516
 IR Inten    --     10.5408                29.7992                25.2991

 - Thermochemistry -
 -------------------
 Temperature   298.150 Kelvin.  Pressure   1.00000 Atm.
 Atom     1 has atomic number  6 and mass  12.00000

 Molecular mass:   236.11609 amu.
 Principal axes and moments of inertia in atomic units:
                           1         2         3
     Eigenvalues --  1767.499769424.56589**********
           X            0.99999  -0.00335   0.00409
           Y            0.00336   0.99999  -0.00380
           Z           -0.00407   0.00382   0.99998
 This molecule is an asymmetric top.
 Rotational symmetry number  1.
 Warning -- assumption of classical behavior for rotation
           may cause significant error
 Rotational temperatures (Kelvin)      0.04900     0.00919     0.00847
 Rotational constants (GHZ):           1.02107     0.19149     0.17646
 Zero-point vibrational energy     721683.2 (Joules/Mol)
                                  172.48642 (Kcal/Mol)
 Warning -- explicit consideration of  23 degrees of freedom as
           vibrations may cause significant error
 Vibrational temperatures:     14.06    34.54    49.62    52.16    70.32
          (Kelvin)             73.63   129.92   156.53   260.81   285.71
                              318.18   403.05   442.00   490.04   544.28
                              591.62   599.40   616.50   642.67   691.44
                              751.52   761.09   829.70   908.36   926.41
                              949.98  1015.83  1023.32  1064.22  1081.62
                             1118.98  1183.35  1222.83  1237.84  1239.95
                             1241.97  1311.11  1344.08  1391.62  1395.31
                             1406.08  1435.38  1470.42  1474.20  1517.67
                             1527.76  1571.02  1600.03  1607.49  1653.51
                             1663.34  1718.19  1751.02  1751.82  1762.83
                             1837.02  1848.95  1890.87  1906.68  1922.53
                             1967.14  1981.75  2002.22  2023.04  2041.92
                             2158.56  2163.64  2168.77  2178.98  2183.10
                             2213.83  2227.73  2371.90  2372.06  2398.68
                             2604.82  2649.86  4404.01  4421.84  4429.47
                             4431.35  4462.11  4488.51  4507.27  4519.03
                             4572.50  4585.50  4598.66  4611.78  4623.11
                             5008.67  5132.94  5309.90

 Zero-point correction=                           0.274875 (Hartree/Particle)
 Thermal correction to Energy=                    0.291527
 Thermal correction to Enthalpy=                  0.292471
 Thermal correction to Gibbs Free Energy=         0.225849
 Sum of electronic and zero-point Energies=           -801.844498
 Sum of electronic and thermal Energies=              -801.827846
 Sum of electronic and thermal Enthalpies=            -801.826902
 Sum of electronic and thermal Free Energies=         -801.893524

                     E (Thermal)             CV                S
                      KCal/Mol        Cal/Mol-Kelvin    Cal/Mol-Kelvin
 Total                  182.936             61.541            140.219
 Electronic               0.000              0.000              0.000
 Translational            0.889              2.981             42.279
 Rotational               0.889              2.981             33.499
 Vibrational            181.158             55.579             64.441
 Vibration     1          0.593              1.987              8.056
 Vibration     2          0.593              1.985              6.272
 Vibration     3          0.594              1.983              5.553
 Vibration     4          0.594              1.982              5.454
 Vibration     5          0.595              1.978              4.862
 Vibration     6          0.595              1.977              4.771
 Vibration     7          0.602              1.956              3.654
 Vibration     8          0.606              1.942              3.290
 Vibration     9          0.630              1.865              2.315
 Vibration    10          0.637              1.842              2.146
 Vibration    11          0.648              1.809              1.950
 Vibration    12          0.680              1.710              1.533
 Vibration    13          0.697              1.660              1.377
 Vibration    14          0.720              1.594              1.209
 Vibration    15          0.749              1.516              1.046
 Vibration    16          0.775              1.446              0.922
 Vibration    17          0.780              1.434              0.904
 Vibration    18          0.790              1.408              0.864
 Vibration    19          0.806              1.368              0.806
 Vibration    20          0.837              1.293              0.709
 Vibration    21          0.877              1.201              0.605
 Vibration    22          0.884              1.186              0.589
 Vibration    23          0.933              1.082              0.492

                           ! Non-Optimized Parameters !
 Normal termination of Gaussian 16 at Fri Dec 11 12:22:42 2020.

 ----------------------------------------------------------------------
 # B3LYP/6-311++G(d,p) empiricaldispersion=gd3bj scf=xqc pop=npa geom=c
 heck
 ----------------------------------------------------------------------

 --------------------------------------
 CID_86590531_JID_7354_Energie_neutraal
 --------------------------------------
 Structure from the checkpoint file:  "JID_7354.chk"
 Charge =  0 Multiplicity = 1

 SCF Done:  E(RB3LYP) =  -802.358577276     A.U. after   16 cycles
 Normal termination of Gaussian 16 at Fri Dec 11 12:28:49 2020.

 ----------------------------------------------------------------------
 # B3LYP/6-311++G(d,p) empiricaldispersion=gd3bj scf=xqc pop=npa geom=c
 heck
 ----------------------------------------------------------------------

 ------------------------------------
 CID_86590531_JID_7354_Energie_kation
 ------------------------------------
 Structure from the checkpoint file:  "JID_7354.chk"
 Charge =  1 Multiplicity = 2

 SCF Done:  E(UB3LYP) =  -802.045077867     A.U. after   33 cycles
 SCF Done:  E(UB3LYP) =  -802.045077867     a.u. after    2 cycles
 Normal termination of Gaussian 16 at Fri Dec 11 13:09:26 2020.
 Gaussian 16:  ES64L-G16RevA.03 25-Dec-2016

 ----------------------------------------------------------------------
 # B3LYP/6-311++G(d,p) empiricaldispersion=gd3bj scf=xqc pop=npa geom=c
 heck
 ----------------------------------------------------------------------

 -----------------------------------
 CID_86590531_JID_7354_Energie_anion
 -----------------------------------
 Structure from the checkpoint file:  "JID_7354.chk"
 Charge = -1 Multiplicity = 2

                         Standard orientation:
 ---------------------------------------------------------------------
 Center     Atomic      Atomic             Coordinates (Angstroms)
 Number     Number       Type             X           Y           Z
 ---------------------------------------------------------------------
      1          6           0        4.946796   -1.180357    0.664031
      2          6           0        4.613980    0.129302    1.017078
      3          6           0        3.544425    0.772695    0.397739
      4          6           0        2.794102    0.113691   -0.584238
      5          6           0        3.127731   -1.198992   -0.927652
      6          6           0        4.200704   -1.843356   -0.309870
      7          6           0        1.627739    0.819316   -1.253332
      8          6           0        0.588101    1.219114   -0.219005
      9          8           0        0.589696    2.251344    0.407183
     10          8           0       -0.333046    0.230872   -0.093544
     11          7           0       -1.259733    0.441409    1.017050
     12          6           0       -2.354431    1.325886    0.591005
     13          6           0       -2.979217    1.055202   -0.786873
     14          6           0       -3.302827   -0.423883   -1.050303
     15          6           0       -4.158405   -1.011712    0.065182
     16          8           0       -5.163932   -0.460791    0.485052
     17          7           0       -3.672951   -2.172882    0.624676
     18          1           0        5.781985   -1.680306    1.146324
     19          1           0        5.188093    0.650811    1.777787
     20          1           0        3.274825    1.786143    0.680536
     21          1           0        2.546349   -1.718640   -1.685284
     22          1           0        4.451165   -2.862977   -0.589533
     23          1           0        1.962462    1.740503   -1.740386
     24          1           0        1.175097    0.169595   -2.006782
     25          1           0       -1.627586   -0.506657    1.102984
     26          1           0       -3.113434    1.204055    1.372552
     27          1           0       -1.985736    2.352817    0.642154
     28          1           0       -3.902160    1.640360   -0.852848
     29          1           0       -2.310826    1.409622   -1.578602
     30          1           0       -3.871510   -0.508169   -1.984072
     31          1           0       -2.376707   -0.993813   -1.181674
     32          1           0       -3.012070   -2.745212    0.118148
     33          1           0       -4.285097   -2.650665    1.274520
 ---------------------------------------------------------------------

 SCF Done:  E(UB3LYP) =  -802.354924019     A.U. after   33 cycles
 SCF Done:  E(UB3LYP) =  -802.354924019     a.u. after    1 cycles

 The electronic state is 2-A.
 Alpha  occ. eigenvalues --  -19.09568 -19.01988 -18.99807 -14.27066 -14.23625
 Alpha  occ. eigenvalues --  -10.20870 -10.18185 -10.10624 -10.10038 -10.09861
 Alpha  occ. eigenvalues --  -10.09161 -10.08943 -10.08881 -10.08635 -10.08634
 Alpha  occ. eigenvalues --  -10.08390 -10.08360  -1.02785  -0.94794  -0.94124
 Alpha  occ. eigenvalues --   -0.80954  -0.78762  -0.77396  -0.70252  -0.68860
 Alpha  occ. eigenvalues --   -0.66184  -0.62683  -0.60487  -0.53800  -0.52356
 Alpha  occ. eigenvalues --   -0.50857  -0.48256  -0.46280  -0.43772  -0.43228
 Alpha  occ. eigenvalues --   -0.42086  -0.40402  -0.40092  -0.38435  -0.37530
 Alpha  occ. eigenvalues --   -0.37004  -0.36481  -0.35525  -0.33852  -0.33392
 Alpha  occ. eigenvalues --   -0.32693  -0.32015  -0.31113  -0.30836  -0.29388
 Alpha  occ. eigenvalues --   -0.27734  -0.26903  -0.26541  -0.26157  -0.25908
 Alpha  occ. eigenvalues --   -0.25724  -0.22836  -0.19183  -0.18738  -0.17081
 Alpha  occ. eigenvalues --   -0.16692  -0.16310  -0.16164   0.03744
 Alpha virt. eigenvalues --    0.05712   0.06268   0.06855   0.07112   0.07413
 Alpha virt. eigenvalues --    0.08171   0.08731   0.09279   0.09464   0.09884
 Alpha virt. eigenvalues --    0.10258   0.10486   0.11457   0.11540   0.12001

  Beta  occ. eigenvalues --  -19.09554 -19.01969 -18.99797 -14.27057 -14.23536
  Beta  occ. eigenvalues --  -10.20836 -10.18175 -10.10623 -10.10007 -10.09852
  Beta  occ. eigenvalues --  -10.09162 -10.08928 -10.08849 -10.08621 -10.08614
  Beta  occ. eigenvalues --  -10.08365 -10.08341  -1.02749  -0.94765  -0.94088
  Beta  occ. eigenvalues --   -0.80836  -0.78730  -0.77350  -0.70198  -0.68813
  Beta  occ. eigenvalues --   -0.66143  -0.62623  -0.60438  -0.53746  -0.52325
  Beta  occ. eigenvalues --   -0.50781  -0.48132  -0.46216  -0.43692  -0.43179
  Beta  occ. eigenvalues --   -0.42038  -0.40360  -0.40050  -0.38366  -0.37484
  Beta  occ. eigenvalues --   -0.36970  -0.36440  -0.35465  -0.33825  -0.33365
  Beta  occ. eigenvalues --   -0.32657  -0.31978  -0.31073  -0.30788  -0.29335
  Beta  occ. eigenvalues --   -0.27647  -0.26860  -0.26499  -0.26119  -0.25877
  Beta  occ. eigenvalues --   -0.25697  -0.22762  -0.19140  -0.18660  -0.17007
  Beta  occ. eigenvalues --   -0.16660  -0.16253  -0.16046
  Beta virt. eigenvalues --    0.05904   0.06419   0.06867   0.06920   0.07609
  Beta virt. eigenvalues --    0.07793   0.08375   0.08923   0.09494   0.09781
  Beta virt. eigenvalues --    0.10138   0.10754   0.11054   0.11642   0.11763

 Mulliken charges and spin densities:
               1          2
     1  C    0.248809  -0.592328
     2  C   -0.338921   0.072975
     3  C   -0.930985   0.799974
     4  C   -0.358384   1.466125
     5  C    0.141504  -0.461401
     6  C    0.320605  -0.668619
     7  C    1.277525  -1.894628
     8  C   -0.032202  -0.224124
     9  O   -0.245209   0.016523
    10  O    0.157432   0.039433
    11  N   -0.171162  -0.087693
    12  C   -0.695707   0.234033
    13  C   -0.205222   0.038988
    14  C    0.554644  -0.947418
    15  C    0.201252  -0.312981
    16  O   -0.341960   0.020606
    17  N   -0.263457  -0.029115
    18  H    0.059702   0.067477
    19  H    0.062516   0.096534
    20  H    0.156979   0.025575
    21  H   -0.577381   0.752256
    22  H   -0.191875   0.363718
    23  H    0.031037   0.170552
    24  H   -0.193806   0.374615
    25  H    0.363354  -0.037192
    26  H    0.140925   0.054771
    27  H    0.150080   0.048736
    28  H    0.185865   0.006914
    29  H    0.116511   0.023877
    30  H   -0.247392   0.437654
    31  H    0.205604  -0.004009
    32  H   -0.436427   0.710787
    33  H   -0.144253   0.437385
 Sum of Mulliken charges =  -1.00000   1.00000

 Dipole moment (field-independent basis, Debye):
    X=              4.4856    Y=              5.2706    Z=              0.8510  Tot=              6.9731
 Quadrupole moment (field-independent basis, Debye-Ang):
   XX=           -185.4707   YY=           -147.3097   ZZ=           -130.3590
   XY=            -11.4295   XZ=              6.9561   YZ=             -5.6781

 Summary of Natural Population Analysis:

                                       Natural Population
                Natural  -----------------------------------------------
    Atom  No    Charge         Core      Valence    Rydberg      Total
 -----------------------------------------------------------------------
      C    1   -0.10121      0.99956     2.09244    0.00921     3.10121
      C    2   -0.10208      0.99957     2.09305    0.00946     3.10208
      C    3   -0.09817      0.99951     2.09051    0.00815     3.09817
      C    4   -0.01047      0.99950     2.00069    0.01029     3.01047
      C    5   -0.09553      0.99951     2.08555    0.01047     3.09553
      C    6   -0.09910      0.99957     2.08908    0.01046     3.09910
      C    7   -0.24100      0.99955     2.23187    0.00958     3.24100
      C    8    0.41414      0.99971     1.55972    0.02643     2.58586
      O    9   -0.30041      0.99986     3.29524    0.00530     4.30041
      O   10   -0.21775      0.99987     3.20813    0.00975     4.21775
      N   11   -0.16612      0.99974     2.65444    0.01194     3.66612
      C   12   -0.10467      0.99962     2.09541    0.00963     3.10467
      C   13   -0.19781      0.99962     2.18913    0.00905     3.19781
      C   14   -0.23930      0.99958     2.22957    0.01015     3.23930
      C   15    0.33719      0.99970     1.63865    0.02447     2.66281
      O   16   -0.32493      0.99987     3.31888    0.00618     4.32493
      N   17   -0.40469      0.99971     2.89564    0.00933     3.90469
      H   18    0.09818      0.00000     0.40108    0.00074     0.40182
      H   19    0.09841      0.00000     0.40084    0.00075     0.40159
      H   20    0.10723      0.00000     0.39155    0.00122     0.39277
      H   21    0.10527      0.00000     0.39300    0.00172     0.39473
      H   22    0.10135      0.00000     0.39776    0.00089     0.39865
      H   23    0.11354      0.00000     0.38541    0.00104     0.38646
      H   24    0.11620      0.00000     0.38197    0.00182     0.38380
      H   25    0.17689      0.00000     0.31966    0.00345     0.32311
      H   26    0.10474      0.00000     0.39425    0.00101     0.39526
      H   27    0.10292      0.00000     0.39605    0.00103     0.39708
      H   28    0.10580      0.00000     0.39322    0.00098     0.39420
      H   29    0.10012      0.00000     0.39872    0.00115     0.39988
      H   30    0.11461      0.00000     0.38424    0.00115     0.38539
      H   31    0.10846      0.00000     0.38909    0.00245     0.39154
      H   32    0.20242      0.00000     0.28181    0.01577     0.29758
      H   33    0.19576      0.00000     0.30127    0.00298     0.30424
 =======================================================================
   * Total *    0.00000     16.99404    45.77792    0.22803    63.00000

 Normal termination of Gaussian 16 at Fri Dec 11 13:27:54 2020.
