 Gaussian 16, Revision A.03,

 -----------------------------------------------------------
 # opt freq B3LYP/6-31G(d) empiricaldispersion=gd3bj scf=xqc
 -----------------------------------------------------------

 ------------------------------
 CID_70301420_JID_2377_neutraal
 ------------------------------
 Symbolic Z-matrix:
 Charge =  0 Multiplicity = 1

 SCF Done:  E(RB3LYP) =  -588.079292814     A.U. after   14 cycles
 SCF Done:  E(RB3LYP) =  -588.085116352     A.U. after   12 cycles
 SCF Done:  E(RB3LYP) =  -588.086168057     A.U. after   11 cycles
 SCF Done:  E(RB3LYP) =  -588.086600572     A.U. after   11 cycles
 SCF Done:  E(RB3LYP) =  -588.086944753     A.U. after   12 cycles
 SCF Done:  E(RB3LYP) =  -588.087195359     A.U. after   12 cycles
 SCF Done:  E(RB3LYP) =  -588.087336824     A.U. after   12 cycles
 SCF Done:  E(RB3LYP) =  -588.087400759     A.U. after   10 cycles
 SCF Done:  E(RB3LYP) =  -588.087449703     A.U. after   11 cycles
 SCF Done:  E(RB3LYP) =  -588.087467756     A.U. after   10 cycles
 SCF Done:  E(RB3LYP) =  -588.087736065     A.U. after   10 cycles
 SCF Done:  E(RB3LYP) =  -588.087737072     A.U. after    8 cycles
 SCF Done:  E(RB3LYP) =  -588.087737451     A.U. after    7 cycles
 SCF Done:  E(RB3LYP) =  -588.087737616     A.U. after    7 cycles
 SCF Done:  E(RB3LYP) =  -588.087737642     A.U. after    7 cycles
 Optimization completed.
    -- Stationary point found.
 Normal termination of Gaussian 16 at Wed Dec  9 17:22:05 2020.

 --------------------------------------------------------------------
 #N Geom=AllCheck Guess=TCheck SCRF=Check GenChk RB3LYP/6-31G(d) Freq
 --------------------------------------------------------------------

 Structure from the checkpoint file:  "JID_2377.chk"
 ------------------------------
 CID_70301420_JID_2377_neutraal
 ------------------------------
 Charge =  0 Multiplicity = 1

 SCF Done:  E(RB3LYP) =  -588.087737642     A.U. after    1 cycles

  Exact polarizability: 135.118   0.999 109.044  -0.063   3.135  56.722
 Approx polarizability: 197.121  -1.385 166.289  -2.269  10.538  85.089

                      1                      2                      3
                      A                      A                      A
 Frequencies --     41.3795                79.5676                91.8585
 Red. masses --      2.9511                 2.3626                 2.8680
 Frc consts  --      0.0030                 0.0088                 0.0143
 IR Inten    --      4.3005                 3.2549                 2.4482

                      4                      5                      6
                      A                      A                      A
 Frequencies --    119.2341               153.0821               159.3597
 Red. masses --      2.4377                 1.2352                 1.2417
 Frc consts  --      0.0204                 0.0171                 0.0186
 IR Inten    --      4.8267                 0.1657                 0.3339

                      7                      8                      9
                      A                      A                      A
 Frequencies --    170.7138               191.4400               219.6445
 Red. masses --      1.2871                 3.3029                 2.8470
 Frc consts  --      0.0221                 0.0713                 0.0809
 IR Inten    --      1.2539                 4.3698                 3.7453

                     10                     11                     12
                      A                      A                      A
 Frequencies --    247.2558               272.4166               324.8227
 Red. masses --      6.6779                 3.5809                 4.5720
 Frc consts  --      0.2405                 0.1566                 0.2842
 IR Inten    --      2.3445                 1.7988                 7.7478

                     13                     14                     15
                      A                      A                      A
 Frequencies --    407.4882               425.4061               499.2189
 Red. masses --      3.7280                 3.2551                 3.7699
 Frc consts  --      0.3647                 0.3471                 0.5536
 IR Inten    --      5.6002                26.3476                12.6368

                     16                     17                     18
                      A                      A                      A
 Frequencies --    525.1377               562.1940               603.1360
 Red. masses --      2.1394                 4.0756                 3.9941
 Frc consts  --      0.3476                 0.7590                 0.8561
 IR Inten    --     54.4420                 7.2175                20.3832

                     19                     20                     21
                      A                      A                      A
 Frequencies --    632.1551               691.5524               741.2665
 Red. masses --      4.2826                11.6785                 5.3323
 Frc consts  --      1.0083                 3.2907                 1.7263
 IR Inten    --      6.7794                 1.6192                14.3945

                     22                     23                     24
                      A                      A                      A
 Frequencies --    791.1333               880.1524               967.3353
 Red. masses --      9.8886                 7.6998                 4.5755
 Frc consts  --      3.6466                 3.5144                 2.5226
 IR Inten    --     21.9712                10.9684                 8.4851

                     25                     26                     27
                      A                      A                      A
 Frequencies --    976.1032              1038.1974              1086.0008
 Red. masses --      1.4331                 8.3871                 3.3330
 Frc consts  --      0.8045                 5.3262                 2.3160
 IR Inten    --      1.8231                48.2421                78.5146

                     28                     29                     30
                      A                      A                      A
 Frequencies --   1160.3065              1166.5784              1184.6535
 Red. masses --      1.5822                 2.5323                 1.2674
 Frc consts  --      1.2550                 2.0304                 1.0480
 IR Inten    --     12.8814                20.3546                 1.3562

                     31                     32                     33
                      A                      A                      A
 Frequencies --   1185.8205              1187.1299              1206.0286
 Red. masses --      1.2832                 2.7609                 1.4877
 Frc consts  --      1.0631                 2.2924                 1.2749
 IR Inten    --      9.4973               154.5193                 8.7539

                     34                     35                     36
                      A                      A                      A
 Frequencies --   1224.6110              1248.6570              1303.0984
 Red. masses --      1.6262                 2.6421                 4.0659
 Frc consts  --      1.4369                 2.4271                 4.0678
 IR Inten    --     49.0740                54.9414                70.4692

                     37                     38                     39
                      A                      A                      A
 Frequencies --   1343.0038              1378.3280              1457.4283
 Red. masses --      2.9773                 3.2083                 2.0387
 Frc consts  --      3.1640                 3.5911                 2.5514
 IR Inten    --    117.6657                 4.5313               205.5571

                     40                     41                     42
                      A                      A                      A
 Frequencies --   1459.3777              1490.1170              1498.5789
 Red. masses --      1.5276                 1.2456                 1.1965
 Frc consts  --      1.9169                 1.6295                 1.5832
 IR Inten    --     76.2107                26.2836                25.8610

                     43                     44                     45
                      A                      A                      A
 Frequencies --   1509.5519              1512.6613              1515.6841
 Red. masses --      1.0493                 1.0765                 1.0489
 Frc consts  --      1.4087                 1.4513                 1.4197
 IR Inten    --      4.7981                22.4102                 7.5488

                     46                     47                     48
                      A                      A                      A
 Frequencies --   1525.5529              1531.3380              1537.4503
 Red. masses --      1.0837                 1.4783                 1.2031
 Frc consts  --      1.4860                 2.0425                 1.6755
 IR Inten    --     64.3629                38.0161                58.9829

                     49                     50                     51
                      A                      A                      A
 Frequencies --   1539.3467              1584.5378              1624.4574
 Red. masses --      1.0943                 2.6638                 5.2733
 Frc consts  --      1.5277                 3.9405                 8.1988
 IR Inten    --      1.0267               169.5830                19.6816

                     52                     53                     54
                      A                      A                      A
 Frequencies --   1643.5353              3033.4286              3056.2241
 Red. masses --      6.7724                 1.0373                 1.0366
 Frc consts  --     10.7784                 5.6235                 5.7049
 IR Inten    --    570.2028                53.3168                61.2709

                     55                     56                     57
                      A                      A                      A
 Frequencies --   3070.8474              3110.6094              3120.4777
 Red. masses --      1.0291                 1.0985                 1.1005
 Frc consts  --      5.7180                 6.2625                 6.3139
 IR Inten    --     48.0717                33.5895                31.5163

                     58                     59                     60
                      A                      A                      A
 Frequencies --   3144.3435              3144.5514              3151.7665
 Red. masses --      1.1072                 1.1048                 1.1049
 Frc consts  --      6.4497                 6.4363                 6.4665
 IR Inten    --     22.4977                24.7318                26.5811

                     61                     62                     63
                      A                      A                      A
 Frequencies --   3172.9068              3182.2422              3614.4019
 Red. masses --      1.1072                 1.0905                 1.0759
 Frc consts  --      6.5672                 6.5064                 8.2815
 IR Inten    --     25.8017                35.2183                44.8244

 - Thermochemistry -
 -------------------
 Temperature   298.150 Kelvin.  Pressure   1.00000 Atm.
 Atom     1 has atomic number  6 and mass  12.00000

 Molecular mass:   169.08513 amu.
 Principal axes and moments of inertia in atomic units:
                           1         2         3
     Eigenvalues --  1259.400482224.362313311.13647
           X            0.99988   0.01484   0.00320
           Y           -0.01478   0.99976  -0.01600
           Z           -0.00344   0.01595   0.99987
 This molecule is an asymmetric top.
 Rotational symmetry number  1.
 Warning -- assumption of classical behavior for rotation
           may cause significant error
 Rotational temperatures (Kelvin)      0.06877     0.03894     0.02616
 Rotational constants (GHZ):           1.43302     0.81135     0.54505
 Zero-point vibrational energy     494756.8 (Joules/Mol)
                                  118.24972 (Kcal/Mol)
 Warning -- explicit consideration of  18 degrees of freedom as
           vibrations may cause significant error
 Vibrational temperatures:     59.54   114.48   132.16   171.55   220.25
          (Kelvin)            229.28   245.62   275.44   316.02   355.75
                              391.95   467.35   586.28   612.06   718.26
                              755.56   808.87   867.78   909.53   994.99
                             1066.52  1138.26  1266.34  1391.78  1404.39
                             1493.73  1562.51  1669.42  1678.45  1704.45
                             1706.13  1708.02  1735.21  1761.94  1796.54
                             1874.87  1932.28  1983.11  2096.91  2099.72
                             2143.95  2156.12  2171.91  2176.38  2180.73
                             2194.93  2203.25  2212.05  2214.78  2279.80
                             2337.23  2364.68  4364.43  4397.22  4418.26
                             4475.47  4489.67  4524.01  4524.31  4534.69
                             4565.11  4578.54  5200.32

 Zero-point correction=                           0.188443 (Hartree/Particle)
 Thermal correction to Energy=                    0.200888
 Thermal correction to Enthalpy=                  0.201833
 Thermal correction to Gibbs Free Energy=         0.149372
 Sum of electronic and zero-point Energies=           -587.899295
 Sum of electronic and thermal Energies=              -587.886849
 Sum of electronic and thermal Enthalpies=            -587.885905
 Sum of electronic and thermal Free Energies=         -587.938365

                     E (Thermal)             CV                S
                      KCal/Mol        Cal/Mol-Kelvin    Cal/Mol-Kelvin
 Total                  126.059             43.915            110.412
 Electronic               0.000              0.000              0.000
 Translational            0.889              2.981             41.284
 Rotational               0.889              2.981             30.607
 Vibrational            124.282             37.953             38.521
 Vibration     1          0.594              1.981              5.192
 Vibration     2          0.600              1.963              3.902
 Vibration     3          0.602              1.955              3.620
 Vibration     4          0.609              1.933              3.113
 Vibration     5          0.619              1.899              2.634
 Vibration     6          0.621              1.892              2.557
 Vibration     7          0.626              1.879              2.428
 Vibration     8          0.634              1.852              2.214
 Vibration     9          0.647              1.811              1.962
 Vibration    10          0.661              1.767              1.750
 Vibration    11          0.675              1.724              1.581
 Vibration    12          0.709              1.626              1.286
 Vibration    13          0.772              1.454              0.936
 Vibration    14          0.787              1.415              0.874
 Vibration    15          0.855              1.252              0.660
 Vibration    16          0.880              1.194              0.598
 Vibration    17          0.918              1.113              0.519
 Vibration    18          0.962              1.025              0.444

                           ! Non-Optimized Parameters !
 Normal termination of Gaussian 16 at Wed Dec  9 17:27:18 2020.

 ----------------------------------------------------------------------
 # B3LYP/6-311++G(d,p) empiricaldispersion=gd3bj scf=xqc pop=npa geom=c
 heck
 ----------------------------------------------------------------------

 --------------------------------------
 CID_70301420_JID_2377_Energie_neutraal
 --------------------------------------
 Structure from the checkpoint file:  "JID_2377.chk"
 Charge =  0 Multiplicity = 1

 SCF Done:  E(RB3LYP) =  -588.255667553     A.U. after   16 cycles
 Normal termination of Gaussian 16 at Wed Dec  9 17:30:00 2020.

 ----------------------------------------------------------------------
 # B3LYP/6-311++G(d,p) empiricaldispersion=gd3bj scf=xqc pop=npa geom=c
 heck
 ----------------------------------------------------------------------

 ------------------------------------
 CID_70301420_JID_2377_Energie_kation
 ------------------------------------
 Structure from the checkpoint file:  "JID_2377.chk"
 Charge =  1 Multiplicity = 2

 SCF Done:  E(UB3LYP) =  -587.964607597     A.U. after   24 cycles
 Normal termination of Gaussian 16 at Wed Dec  9 17:35:26 2020.
 Gaussian 16:  ES64L-G16RevA.03 25-Dec-2016

 ----------------------------------------------------------------------
 # B3LYP/6-311++G(d,p) empiricaldispersion=gd3bj scf=xqc pop=npa geom=c
 heck
 ----------------------------------------------------------------------

 -----------------------------------
 CID_70301420_JID_2377_Energie_anion
 -----------------------------------
 Structure from the checkpoint file:  "JID_2377.chk"
 Charge = -1 Multiplicity = 2

                         Standard orientation:
 ---------------------------------------------------------------------
 Center     Atomic      Atomic             Coordinates (Angstroms)
 Number     Number       Type             X           Y           Z
 ---------------------------------------------------------------------
      1          6           0        3.231535    0.496555    0.463383
      2          7           0        2.482059   -0.635383   -0.058486
      3          6           0        1.126407   -0.795633   -0.047674
      4          6           0        0.196460    0.245903    0.123178
      5          6           0       -1.156815   -0.120632    0.100360
      6          7           0       -1.573767   -1.374689   -0.084678
      7          6           0       -0.601130   -2.279105   -0.248930
      8          7           0        0.706180   -2.073631   -0.236897
      9          8           0       -2.060712    0.865019    0.265848
     10          6           0       -3.440776    0.483258    0.244813
     11          8           0        0.590252    1.547946    0.332637
     12          6           0        0.383753    2.407213   -0.791197
     13          1           0        3.116685    1.381984   -0.166980
     14          1           0        4.287868    0.216085    0.471416
     15          1           0        2.929748    0.764136    1.482336
     16          1           0        2.957185   -1.526778   -0.096860
     17          1           0       -0.925754   -3.306000   -0.406590
     18          1           0       -3.707224    0.030365   -0.714162
     19          1           0       -3.659657   -0.231281    1.042713
     20          1           0       -3.993864    1.410901    0.398718
     21          1           0        0.943180    2.048961   -1.665591
     22          1           0       -0.679950    2.478090   -1.039958
     23          1           0        0.757558    3.390386   -0.496101
 ---------------------------------------------------------------------

 SCF Done:  E(UB3LYP) =  -588.240366861     A.U. after   33 cycles
 SCF Done:  E(UB3LYP) =  -588.240366861     a.u. after    1 cycles

 The electronic state is 2-A.
 Alpha  occ. eigenvalues --  -19.06591 -19.04127 -14.23169 -14.20629 -14.20593
 Alpha  occ. eigenvalues --  -10.17181 -10.15364 -10.13598 -10.12650 -10.12450
 Alpha  occ. eigenvalues --  -10.11101 -10.09311  -0.99240  -0.95412  -0.88800
 Alpha  occ. eigenvalues --   -0.83709  -0.76895  -0.68549  -0.62733  -0.61175
 Alpha  occ. eigenvalues --   -0.58077  -0.53917  -0.51759  -0.46253  -0.44358
 Alpha  occ. eigenvalues --   -0.41423  -0.39153  -0.38730  -0.37412  -0.36159
 Alpha  occ. eigenvalues --   -0.34514  -0.33651  -0.33065  -0.32703  -0.31176
 Alpha  occ. eigenvalues --   -0.28731  -0.26172  -0.26037  -0.25764  -0.22242
 Alpha  occ. eigenvalues --   -0.20803  -0.19712  -0.16006  -0.15536  -0.11872
 Alpha  occ. eigenvalues --    0.04553
 Alpha virt. eigenvalues --    0.06160   0.07373   0.08038   0.08605   0.08929
 Alpha virt. eigenvalues --    0.09346   0.09890   0.10512   0.10682   0.11323
 Alpha virt. eigenvalues --    0.11733   0.12786   0.14210   0.15034   0.15639

  Beta  occ. eigenvalues --  -19.06584 -19.04127 -14.23155 -14.20624 -14.20589
  Beta  occ. eigenvalues --  -10.17172 -10.15358 -10.13563 -10.12633 -10.12419
  Beta  occ. eigenvalues --  -10.11051 -10.09259  -0.99225  -0.95400  -0.88769
  Beta  occ. eigenvalues --   -0.83675  -0.76872  -0.68509  -0.62684  -0.61101
  Beta  occ. eigenvalues --   -0.58004  -0.53862  -0.51711  -0.46221  -0.44318
  Beta  occ. eigenvalues --   -0.41383  -0.39125  -0.38688  -0.37354  -0.36118
  Beta  occ. eigenvalues --   -0.34470  -0.33607  -0.33016  -0.32661  -0.31108
  Beta  occ. eigenvalues --   -0.28672  -0.26134  -0.25992  -0.25726  -0.22175
  Beta  occ. eigenvalues --   -0.20781  -0.19693  -0.15954  -0.15524  -0.11817
  Beta virt. eigenvalues --    0.06775   0.07485   0.07955   0.08433   0.09044
  Beta virt. eigenvalues --    0.09104   0.09941   0.10455   0.10941   0.11087
  Beta virt. eigenvalues --    0.12026   0.12451   0.12920   0.14630   0.15040

 Mulliken charges and spin densities:
               1          2
     1  C    1.244160  -1.603694
     2  N   -0.356607   0.164401
     3  C   -0.138270   0.025620
     4  C   -0.730654   0.938410
     5  C    1.019546  -1.311661
     6  N   -0.195380   0.056256
     7  C   -0.164598   0.188058
     8  N   -0.202310   0.026964
     9  O   -0.227844   0.051597
    10  C    0.792484  -1.080341
    11  O   -0.249611   0.078751
    12  C    0.936529  -1.241380
    13  H   -0.237859   0.411374
    14  H   -1.160276   1.328546
    15  H   -0.031721   0.210544
    16  H    0.060051   0.242577
    17  H    0.044443   0.141789
    18  H   -0.160426   0.346681
    19  H   -0.088470   0.264375
    20  H   -0.309024   0.464734
    21  H   -0.332982   0.476516
    22  H   -0.146924   0.303351
    23  H   -0.364256   0.516530
 Sum of Mulliken charges =  -1.00000   1.00000

 Dipole moment (field-independent basis, Debye):
    X=             -4.2705    Y=             -3.0723    Z=              0.5458  Tot=              5.2890
 Quadrupole moment (field-independent basis, Debye-Ang):
   XX=           -150.8442   YY=           -113.8747   ZZ=            -96.4813
   XY=              0.7536   XZ=             -1.4481   YZ=              1.2100

 Summary of Natural Population Analysis:

                                       Natural Population
                Natural  -----------------------------------------------
    Atom  No    Charge         Core      Valence    Rydberg      Total
 -----------------------------------------------------------------------
      C    1   -0.17482      0.99964     2.16676    0.00842     3.17482
      N    2   -0.30092      0.99967     2.78960    0.01164     3.80092
      C    3    0.19958      0.99950     1.78532    0.01561     2.80042
      C    4    0.07737      0.99929     1.90960    0.01374     2.92263
      C    5    0.26881      0.99943     1.71612    0.01563     2.73119
      N    6   -0.29470      0.99967     2.78482    0.01021     3.79470
      C    7    0.15403      0.99967     1.82799    0.01831     2.84597
      N    8   -0.27606      0.99968     2.76644    0.00993     3.77606
      O    9   -0.26960      0.99985     3.25909    0.01065     4.26960
      C   10   -0.10191      0.99959     2.09289    0.00943     3.10191
      O   11   -0.28610      0.99987     3.27601    0.01022     4.28610
      C   12   -0.09826      0.99959     2.08924    0.00944     3.09826
      H   13    0.09829      0.00000     0.39989    0.00182     0.40171
      H   14    0.09988      0.00000     0.39645    0.00367     0.40012
      H   15    0.09389      0.00000     0.40445    0.00166     0.40611
      H   16    0.19479      0.00000     0.30164    0.00357     0.30521
      H   17    0.08045      0.00000     0.41850    0.00105     0.41955
      H   18    0.09063      0.00000     0.40772    0.00166     0.40937
      H   19    0.09008      0.00000     0.40843    0.00149     0.40992
      H   20    0.09182      0.00000     0.40687    0.00131     0.40818
      H   21    0.08222      0.00000     0.41616    0.00162     0.41778
      H   22    0.08903      0.00000     0.40890    0.00207     0.41097
      H   23    0.09151      0.00000     0.40684    0.00165     0.40849
 =======================================================================
   * Total *    0.00000     11.99546    32.83973    0.16481    45.00000

 Normal termination of Gaussian 16 at Wed Dec  9 17:44:15 2020.
