 Gaussian 16, Revision A.03,

 -----------------------------------------------------------
 # opt freq B3LYP/6-31G(d) empiricaldispersion=gd3bj scf=xqc
 -----------------------------------------------------------

 ------------------------------
 CID_80887682_JID_8420_neutraal
 ------------------------------
 Symbolic Z-matrix:
 Charge =  0 Multiplicity = 1

 SCF Done:  E(RB3LYP) =  -1155.56779858     A.U. after   14 cycles
 SCF Done:  E(RB3LYP) =  -1155.57772149     A.U. after   13 cycles
 SCF Done:  E(RB3LYP) =  -1155.58267407     A.U. after   13 cycles
 SCF Done:  E(RB3LYP) =  -1155.58513243     A.U. after   14 cycles
 SCF Done:  E(RB3LYP) =  -1155.58188444     A.U. after   14 cycles
 SCF Done:  E(RB3LYP) =  -1155.58578290     A.U. after   12 cycles
 SCF Done:  E(RB3LYP) =  -1155.58594117     A.U. after   11 cycles
 SCF Done:  E(RB3LYP) =  -1155.58600623     A.U. after   10 cycles
 SCF Done:  E(RB3LYP) =  -1155.58603204     A.U. after    9 cycles
 SCF Done:  E(RB3LYP) =  -1155.58603985     A.U. after    9 cycles
 SCF Done:  E(RB3LYP) =  -1155.58614471     A.U. after   10 cycles
 SCF Done:  E(RB3LYP) =  -1155.58614404     A.U. after    9 cycles
 SCF Done:  E(RB3LYP) =  -1155.58614515     A.U. after    9 cycles
 SCF Done:  E(RB3LYP) =  -1155.58614502     A.U. after    7 cycles
 SCF Done:  E(RB3LYP) =  -1155.58614518     A.U. after    8 cycles
 Optimization completed.
    -- Stationary point found.
 Normal termination of Gaussian 16 at Fri Dec 11 20:58:17 2020.

 --------------------------------------------------------------------
 #N Geom=AllCheck Guess=TCheck SCRF=Check GenChk RB3LYP/6-31G(d) Freq
 --------------------------------------------------------------------

 Structure from the checkpoint file:  "JID_8420.chk"
 ------------------------------
 CID_80887682_JID_8420_neutraal
 ------------------------------
 Charge =  0 Multiplicity = 1

 SCF Done:  E(RB3LYP) =  -1155.58614518     A.U. after    1 cycles

  Exact polarizability: 259.103  -5.640 196.917  -0.000   0.001  94.901
 Approx polarizability: 341.018  -8.042 317.957  -0.001   0.004 144.517

                      1                      2                      3
                      A                      A                      A
 Frequencies --     30.7441                42.0670                57.6761
 Red. masses --      4.3022                 1.3042                 4.1186
 Frc consts  --      0.0024                 0.0014                 0.0081
 IR Inten    --      0.2936                 2.5518                 2.5103

                      4                      5                      6
                      A                      A                      A
 Frequencies --     69.7085                85.2001                91.9050
 Red. masses --      2.3944                 4.6083                 6.0637
 Frc consts  --      0.0069                 0.0197                 0.0302
 IR Inten    --      1.1899                 0.6319                 1.9328

                      7                      8                      9
                      A                      A                      A
 Frequencies --    116.4588               120.5679               165.2615
 Red. masses --      2.8164                 4.0121                 9.7049
 Frc consts  --      0.0225                 0.0344                 0.1562
 IR Inten    --      1.2980                 1.2468                 0.4658

                     10                     11                     12
                      A                      A                      A
 Frequencies --    188.0045               204.5826               235.4336
 Red. masses --      4.0411                 5.3508                 1.0986
 Frc consts  --      0.0842                 0.1319                 0.0359
 IR Inten    --      3.4151                 2.6096                 0.0451

                     13                     14                     15
                      A                      A                      A
 Frequencies --    239.6319               250.1883               273.7968
 Red. masses --      6.9917                 2.3810                 4.2094
 Frc consts  --      0.2366                 0.0878                 0.1859
 IR Inten    --      0.0047                 0.6763                 2.3976

                     16                     17                     18
                      A                      A                      A
 Frequencies --    280.9490               290.5009               311.5824
 Red. masses --      1.0836                 1.1796                 2.6260
 Frc consts  --      0.0504                 0.0587                 0.1502
 IR Inten    --      0.0001                 0.0693                 0.8344

                     19                     20                     21
                      A                      A                      A
 Frequencies --    365.0570               395.5271               406.2009
 Red. masses --      3.1427                 4.5082                 2.4411
 Frc consts  --      0.2468                 0.4155                 0.2373
 IR Inten    --      2.9638                 0.2885                 0.0487

                     22                     23                     24
                      A                      A                      A
 Frequencies --    408.4423               455.6480               516.7634
 Red. masses --      4.1438                 4.5147                 7.0642
 Frc consts  --      0.4073                 0.5523                 1.1115
 IR Inten    --      0.9989                 4.5717                 1.9600

                     25                     26                     27
                      A                      A                      A
 Frequencies --    543.6334               551.3216               589.3849
 Red. masses --      1.0813                 6.0690                 4.3917
 Frc consts  --      0.1883                 1.0869                 0.8988
 IR Inten    --     87.3900                 5.1999                 2.9375

                     28                     29                     30
                      A                      A                      A
 Frequencies --    610.1438               658.8759               670.1973
 Red. masses --      3.8197                 5.4564                10.5717
 Frc consts  --      0.8378                 1.3956                 2.7977
 IR Inten    --      4.1110                 3.3290                 0.7250

                     31                     32                     33
                      A                      A                      A
 Frequencies --    681.4944               729.7359               776.9201
 Red. masses --      5.6066                11.0934                 1.2214
 Frc consts  --      1.5342                 3.4805                 0.4344
 IR Inten    --      6.3029                 0.0734                49.3861

                     34                     35                     36
                      A                      A                      A
 Frequencies --    818.2144               819.2268               849.0332
 Red. masses --     12.4627                 3.0271                10.2528
 Frc consts  --      4.9158                 1.1970                 4.3545
 IR Inten    --     29.8596                 0.2740               133.1751

                     37                     38                     39
                      A                      A                      A
 Frequencies --    870.6577               900.5939               933.4347
 Red. masses --      1.2598                 1.3339                 6.2511
 Frc consts  --      0.5627                 0.6374                 3.2091
 IR Inten    --      0.7656                 3.1214                 3.9312

                     40                     41                     42
                      A                      A                      A
 Frequencies --    940.2318               951.4296               952.1095
 Red. masses --      5.4457                 1.6747                 1.6902
 Frc consts  --      2.8364                 0.8932                 0.9028
 IR Inten    --     47.1368                 0.2659                 5.4420

                     43                     44                     45
                      A                      A                      A
 Frequencies --    982.4728               987.2733               998.3005
 Red. masses --      3.1101                 1.1983                10.5378
 Frc consts  --      1.7687                 0.6881                 6.1876
 IR Inten    --     33.8057                 0.2066                10.9282

                     46                     47                     48
                      A                      A                      A
 Frequencies --   1059.9517              1065.5336              1065.9874
 Red. masses --      1.4111                 1.4512                 1.3942
 Frc consts  --      0.9341                 0.9708                 0.9334
 IR Inten    --      2.2828                83.1811                 0.5097

                     49                     50                     51
                      A                      A                      A
 Frequencies --   1090.7012              1143.8776              1164.7247
 Red. masses --      1.7501                 2.3185                 1.2671
 Frc consts  --      1.2267                 1.7874                 1.0128
 IR Inten    --     51.2724                27.4052                 0.5380

                     52                     53                     54
                      A                      A                      A
 Frequencies --   1167.5782              1210.7807              1230.8803
 Red. masses --      2.4280                 1.9972                 5.5253
 Frc consts  --      1.9502                 1.7251                 4.9322
 IR Inten    --    115.8980               171.5438                39.1577

                     55                     56                     57
                      A                      A                      A
 Frequencies --   1238.7060              1261.4061              1263.4198
 Red. masses --      1.5677                 2.6310                 2.6305
 Frc consts  --      1.4172                 2.4665                 2.4740
 IR Inten    --     39.9759                 3.2681                 1.1998

                     58                     59                     60
                      A                      A                      A
 Frequencies --   1272.4178              1333.9723              1362.0796
 Red. masses --      6.3864                 4.6793                 8.6335
 Frc consts  --      6.0920                 4.9059                 9.4372
 IR Inten    --     67.5736                13.4847               240.1787

                     61                     62                     63
                      A                      A                      A
 Frequencies --   1393.2210              1422.6202              1426.1237
 Red. masses --      2.3532                 1.2376                 1.2272
 Frc consts  --      2.6912                 1.4757                 1.4706
 IR Inten    --    128.2866                11.3816                 9.7883

                     64                     65                     66
                      A                      A                      A
 Frequencies --   1429.0245              1449.6035              1454.3803
 Red. masses --      2.7141                 3.9011                 1.2491
 Frc consts  --      3.2655                 4.8299                 1.5567
 IR Inten    --     14.3746               371.2468                 0.9193

                     67                     68                     69
                      A                      A                      A
 Frequencies --   1472.6698              1498.9769              1502.8938
 Red. masses --      1.3093                 4.5335                 1.0462
 Frc consts  --      1.6730                 6.0016                 1.3922
 IR Inten    --     27.2754               699.5468                 0.7355

                     70                     71                     72
                      A                      A                      A
 Frequencies --   1519.3386              1522.1878              1527.4772
 Red. masses --      1.0507                 1.0466                 1.0718
 Frc consts  --      1.4290                 1.4288                 1.4734
 IR Inten    --     10.2271                 0.8783                33.0965

                     73                     74                     75
                      A                      A                      A
 Frequencies --   1530.6656              1532.9492              1538.4788
 Red. masses --      1.0439                 1.1643                 1.0496
 Frc consts  --      1.4410                 1.6120                 1.4637
 IR Inten    --      6.5779               129.9994                 3.6783

                     76                     77                     78
                      A                      A                      A
 Frequencies --   1555.4704              1587.0627              1593.6620
 Red. masses --      1.0511                 5.1521                 4.8973
 Frc consts  --      1.4983                 7.6457                 7.3283
 IR Inten    --     11.4564               498.2220               217.5226

                     79                     80                     81
                      A                      A                      A
 Frequencies --   1614.1967              1657.4746              3043.4819
 Red. masses --      8.6892                 3.8749                 1.0434
 Frc consts  --     13.3396                 6.2720                 5.6944
 IR Inten    --    309.1107               655.3755                19.3594

                     82                     83                     84
                      A                      A                      A
 Frequencies --   3046.8915              3049.4498              3053.4080
 Red. masses --      1.0393                 1.0374                 1.0386
 Frc consts  --      5.6847                 5.6840                 5.7052
 IR Inten    --     18.0701                87.9869                61.8825

                     85                     86                     87
                      A                      A                      A
 Frequencies --   3101.1893              3114.2382              3115.3554
 Red. masses --      1.1060                 1.0960                 1.0984
 Frc consts  --      6.2673                 6.2629                 6.2811
 IR Inten    --     30.3706                12.9500                 1.1646

                     88                     89                     90
                      A                      A                      A
 Frequencies --   3121.0552              3128.7224              3165.9395
 Red. masses --      1.0997                 1.1031                 1.0998
 Frc consts  --      6.3112                 6.3621                 6.4948
 IR Inten    --     45.1114                25.3711                 0.3704

                     91                     92                     93
                      A                      A                      A
 Frequencies --   3167.8860              3187.4758              3255.4348
 Red. masses --      1.0993                 1.0983                 1.0940
 Frc consts  --      6.4999                 6.5743                 6.8310
 IR Inten    --     11.9794                 0.0200                 9.1289

                     94                     95                     96
                      A                      A                      A
 Frequencies --   3283.2231              3322.5682              3634.9154
 Red. masses --      1.0972                 1.1014                 1.0765
 Frc consts  --      6.9683                 7.1640                 8.3799
 IR Inten    --      2.9966                 3.9300                49.1260

 - Thermochemistry -
 -------------------
 Temperature   298.150 Kelvin.  Pressure   1.00000 Atm.
 Atom     1 has atomic number  6 and mass  12.00000

 Molecular mass:   264.11572 amu.
 Principal axes and moments of inertia in atomic units:
                           1         2         3
     Eigenvalues --  2860.003908015.32064**********
           X            0.99999   0.00361  -0.00000
           Y           -0.00361   0.99999  -0.00000
           Z            0.00000   0.00000   1.00000
 This molecule is an asymmetric top.
 Rotational symmetry number  1.
 Warning -- assumption of classical behavior for rotation
           may cause significant error
 Rotational temperatures (Kelvin)      0.03028     0.01081     0.00828
 Rotational constants (GHZ):           0.63103     0.22516     0.17252
 Zero-point vibrational energy     725943.7 (Joules/Mol)
                                  173.50471 (Kcal/Mol)
 Warning -- explicit consideration of  28 degrees of freedom as
           vibrations may cause significant error
 Vibrational temperatures:     44.23    60.53    82.98   100.29   122.58
          (Kelvin)            132.23   167.56   173.47   237.77   270.50
                              294.35   338.74   344.78   359.97   393.93
                              404.22   417.97   448.30   525.24   569.08
                              584.43   587.66   655.58   743.51   782.17
                              793.23   847.99   877.86   947.98   964.26
                              980.52  1049.93  1117.81  1177.23  1178.68
                             1221.57  1252.68  1295.75  1343.00  1352.78
                             1368.90  1369.87  1413.56  1420.47  1436.33
                             1525.03  1533.07  1533.72  1569.28  1645.78
                             1675.78  1679.88  1742.04  1770.96  1782.22
                             1814.88  1817.78  1830.73  1919.29  1959.73
                             2004.53  2046.83  2051.87  2056.05  2085.66
                             2092.53  2118.84  2156.69  2162.33  2185.99
                             2190.09  2197.70  2202.29  2205.57  2213.53
                             2237.97  2283.43  2292.92  2322.47  2384.74
                             4378.89  4383.80  4387.48  4393.17  4461.92
                             4480.69  4482.30  4490.50  4501.53  4555.08
                             4557.88  4586.07  4683.84  4723.83  4780.43
                             5229.83

 Zero-point correction=                           0.276497 (Hartree/Particle)
 Thermal correction to Energy=                    0.294560
 Thermal correction to Enthalpy=                  0.295504
 Thermal correction to Gibbs Free Energy=         0.229340
 Sum of electronic and zero-point Energies=          -1155.309648
 Sum of electronic and thermal Energies=             -1155.291585
 Sum of electronic and thermal Enthalpies=           -1155.290641
 Sum of electronic and thermal Free Energies=        -1155.356805

                     E (Thermal)             CV                S
                      KCal/Mol        Cal/Mol-Kelvin    Cal/Mol-Kelvin
 Total                  184.839             66.813            139.254
 Electronic               0.000              0.000              0.000
 Translational            0.889              2.981             42.613
 Rotational               0.889              2.981             33.838
 Vibrational            183.062             60.851             62.802
 Vibration     1          0.594              1.984              5.781
 Vibration     2          0.595              1.980              5.159
 Vibration     3          0.596              1.974              4.535
 Vibration     4          0.598              1.969              4.162
 Vibration     5          0.601              1.959              3.767
 Vibration     6          0.602              1.955              3.619
 Vibration     7          0.608              1.936              3.158
 Vibration     8          0.609              1.932              3.091
 Vibration     9          0.624              1.885              2.489
 Vibration    10          0.633              1.856              2.247
 Vibration    11          0.640              1.833              2.091
 Vibration    12          0.655              1.787              1.837
 Vibration    13          0.657              1.780              1.806
 Vibration    14          0.663              1.762              1.729
 Vibration    15          0.676              1.722              1.572
 Vibration    16          0.681              1.709              1.528
 Vibration    17          0.686              1.691              1.471
 Vibration    18          0.700              1.652              1.354
 Vibration    19          0.738              1.544              1.100
 Vibration    20          0.762              1.480              0.979
 Vibration    21          0.771              1.457              0.940
 Vibration    22          0.773              1.452              0.932
 Vibration    23          0.814              1.348              0.779
 Vibration    24          0.872              1.213              0.618
 Vibration    25          0.899              1.154              0.558
 Vibration    26          0.907              1.137              0.541
 Vibration    27          0.947              1.054              0.468
 Vibration    28          0.969              1.010              0.433

 Optimization completed.
    -- Stationary point found.
 Normal termination of Gaussian 16 at Fri Dec 11 21:13:00 2020.

 ----------------------------------------------------------------------
 # B3LYP/6-311++G(d,p) empiricaldispersion=gd3bj scf=xqc pop=npa geom=c
 heck
 ----------------------------------------------------------------------

 --------------------------------------
 CID_80887682_JID_8420_Energie_neutraal
 --------------------------------------
 Structure from the checkpoint file:  "JID_8420.chk"
 Charge =  0 Multiplicity = 1

 SCF Done:  E(RB3LYP) =  -1155.81446287     A.U. after   14 cycles
 Normal termination of Gaussian 16 at Fri Dec 11 21:19:38 2020.

 ----------------------------------------------------------------------
 # B3LYP/6-311++G(d,p) empiricaldispersion=gd3bj scf=xqc pop=npa geom=c
 heck
 ----------------------------------------------------------------------

 ------------------------------------
 CID_80887682_JID_8420_Energie_kation
 ------------------------------------
 Structure from the checkpoint file:  "JID_8420.chk"
 Charge =  1 Multiplicity = 2

 SCF Done:  E(UB3LYP) =  -1155.51370647     A.U. after   30 cycles
 Normal termination of Gaussian 16 at Fri Dec 11 21:38:47 2020.
 Gaussian 16:  ES64L-G16RevA.03 25-Dec-2016

 ----------------------------------------------------------------------
 # B3LYP/6-311++G(d,p) empiricaldispersion=gd3bj scf=xqc pop=npa geom=c
 heck
 ----------------------------------------------------------------------

 -----------------------------------
 CID_80887682_JID_8420_Energie_anion
 -----------------------------------
 Structure from the checkpoint file:  "JID_8420.chk"
 Charge = -1 Multiplicity = 2

                         Standard orientation:
 ---------------------------------------------------------------------
 Center     Atomic      Atomic             Coordinates (Angstroms)
 Number     Number       Type             X           Y           Z
 ---------------------------------------------------------------------
      1          6           0       -4.648869   -1.645760    0.000027
      2          6           0       -3.578911   -0.542376    0.000008
      3          6           0       -3.700401    0.308526   -1.268526
      4          6           0       -3.700308    0.308473    1.268581
      5         16           0       -1.982378   -1.518811   -0.000078
      6          6           0       -0.655493   -0.354075   -0.000031
      7          7           0       -0.868119    0.958025   -0.000023
      8          6           0        0.262311    1.707889    0.000046
      9          7           0        1.517299    1.223263    0.000064
     10          6           0        1.574673   -0.101920   -0.000018
     11          7           0        0.547597   -0.955282   -0.000033
     12          7           0        2.843763   -0.696150   -0.000007
     13          6           0        3.099531   -2.048220    0.000092
     14          6           0        4.463396   -2.183072   -0.000015
     15          6           0        4.958104   -0.847935    0.000029
     16          7           0        3.987009    0.050334   -0.000071
     17          7           0        0.088379    3.045195    0.000218
     18          6           0        1.159106    4.024211   -0.000120
     19          1           0       -5.640749   -1.179069    0.000077
     20          1           0       -4.572632   -2.280820    0.888941
     21          1           0       -4.572707   -2.280779   -0.888926
     22          1           0       -4.678006    0.808015   -1.275234
     23          1           0       -2.919987    1.070150   -1.303571
     24          1           0       -3.628734   -0.314139   -2.165775
     25          1           0       -3.628555   -0.314224    2.165800
     26          1           0       -2.919919    1.070123    1.303596
     27          1           0       -4.677925    0.807939    1.275384
     28          1           0        2.287082   -2.756065    0.000150
     29          1           0        5.028663   -3.103412   -0.000030
     30          1           0        5.987940   -0.514576    0.000008
     31          1           0       -0.874540    3.349957   -0.000010
     32          1           0        1.105274    4.659483   -0.891823
     33          1           0        1.105560    4.659767    0.891388
     34          1           0        2.106956    3.486481   -0.000201
 ---------------------------------------------------------------------

 SCF Done:  E(UB3LYP) =  -1155.81585193     A.U. after   33 cycles
 SCF Done:  E(UB3LYP) =  -1155.81585193     a.u. after    1 cycles

 The electronic state is 2-A.
 Alpha  occ. eigenvalues --  -88.72306 -14.24264 -14.21556 -14.17306 -14.15584
 Alpha  occ. eigenvalues --  -14.15045 -14.14346 -10.13804 -10.11685 -10.11219
 Alpha  occ. eigenvalues --  -10.09809 -10.09349 -10.07468 -10.05763 -10.05762
 Alpha  occ. eigenvalues --  -10.04842 -10.04360 -10.02454  -7.80983  -5.77366
 Alpha  occ. eigenvalues --   -5.76952  -5.76411  -0.90762  -0.87541  -0.81905
 Alpha  occ. eigenvalues --   -0.75869  -0.73331  -0.72522  -0.67621  -0.63637
 Alpha  occ. eigenvalues --   -0.61640  -0.59700  -0.59517  -0.58913  -0.52964
 Alpha  occ. eigenvalues --   -0.49761  -0.46215  -0.45477  -0.43133  -0.40851
 Alpha  occ. eigenvalues --   -0.39904  -0.36593  -0.35616  -0.34806  -0.34684
 Alpha  occ. eigenvalues --   -0.34566  -0.33688  -0.32340  -0.30333  -0.30009
 Alpha  occ. eigenvalues --   -0.29797  -0.28849  -0.28410  -0.28327  -0.27042
 Alpha  occ. eigenvalues --   -0.26439  -0.25371  -0.24741  -0.24504  -0.21972
 Alpha  occ. eigenvalues --   -0.21641  -0.19801  -0.19256  -0.14954  -0.12720
 Alpha  occ. eigenvalues --   -0.12135  -0.11647  -0.11338  -0.10961  -0.10250
 Alpha  occ. eigenvalues --    0.05246
 Alpha virt. eigenvalues --    0.06689   0.07648   0.08979   0.09248   0.09387
 Alpha virt. eigenvalues --    0.10024   0.10849   0.10941   0.11159   0.11438
 Alpha virt. eigenvalues --    0.12219   0.12469   0.13092   0.13709   0.13930

  Beta  occ. eigenvalues --  -88.72302 -14.24402 -14.21559 -14.17067 -14.15699
  Beta  occ. eigenvalues --  -14.14729 -14.14176 -10.13795 -10.11429 -10.11220
  Beta  occ. eigenvalues --  -10.09350 -10.09190 -10.07467 -10.05755 -10.05754
  Beta  occ. eigenvalues --  -10.04575 -10.04269 -10.02464  -7.80980  -5.77369
  Beta  occ. eigenvalues --   -5.76957  -5.76385  -0.90491  -0.87262  -0.81736
  Beta  occ. eigenvalues --   -0.75273  -0.73110  -0.72429  -0.67321  -0.63290
  Beta  occ. eigenvalues --   -0.61519  -0.59678  -0.59470  -0.58898  -0.52416
  Beta  occ. eigenvalues --   -0.49570  -0.46018  -0.45368  -0.43052  -0.40601
  Beta  occ. eigenvalues --   -0.39662  -0.36440  -0.35518  -0.34789  -0.34631
  Beta  occ. eigenvalues --   -0.34314  -0.33645  -0.31433  -0.30302  -0.29854
  Beta  occ. eigenvalues --   -0.29607  -0.28796  -0.28249  -0.27889  -0.26941
  Beta  occ. eigenvalues --   -0.26301  -0.25258  -0.24636  -0.24481  -0.21406
  Beta  occ. eigenvalues --   -0.21375  -0.19217  -0.17944  -0.14655  -0.12572
  Beta  occ. eigenvalues --   -0.11633  -0.11085  -0.10569  -0.10192  -0.09697
  Beta virt. eigenvalues --    0.06622   0.07583   0.08907   0.09132   0.09342
  Beta virt. eigenvalues --    0.09968   0.10794   0.10861   0.11103   0.11414
  Beta virt. eigenvalues --    0.11622   0.12402   0.12760   0.13047   0.13658

 Mulliken charges and spin densities:
               1          2
     1  C   -0.432001  -0.019676
     2  C    0.411810   0.058785
     3  C   -0.581601  -0.052854
     4  C   -0.581325  -0.053121
     5  S   -0.141020  -0.006159
     6  C   -0.670011   0.138542
     7  N   -0.210062   0.178726
     8  C    0.381556   0.007845
     9  N   -0.246859   0.085388
    10  C   -0.134685   0.332499
    11  N   -0.040953  -0.067107
    12  N   -0.013177  -0.076443
    13  C   -0.034199   0.148078
    14  C   -0.222838   0.048263
    15  C   -0.309315   0.074008
    16  N    0.009445   0.115590
    17  N   -0.182997   0.001811
    18  C   -0.260888   0.003324
    19  H    0.119550  -0.000152
    20  H    0.134875   0.004336
    21  H    0.134925   0.004284
    22  H    0.102490   0.010590
    23  H    0.145008   0.030404
    24  H    0.131409   0.007872
    25  H    0.131381   0.007917
    26  H    0.144895   0.030496
    27  H    0.102400   0.010678
    28  H    0.172715  -0.014610
    29  H    0.122963   0.001064
    30  H    0.091482  -0.007557
    31  H    0.276566  -0.001793
    32  H    0.111001  -0.000438
    33  H    0.110962  -0.000425
    34  H    0.226497  -0.000163
 Sum of Mulliken charges =  -1.00000   1.00000

 Dipole moment (field-independent basis, Debye):
    X=             -7.2728    Y=              2.5874    Z=             -0.0010  Tot=              7.7194
 Quadrupole moment (field-independent basis, Debye-Ang):
   XX=           -165.4006   YY=           -126.0436   ZZ=           -126.0598
   XY=             -0.1629   XZ=              0.0028   YZ=             -0.0025

 Summary of Natural Population Analysis:

                                       Natural Population
                Natural  -----------------------------------------------
    Atom  No    Charge         Core      Valence    Rydberg      Total
 -----------------------------------------------------------------------
      C    1   -0.28977      0.99962     2.28403    0.00612     3.28977
      C    2   -0.09314      0.99959     2.08054    0.01301     3.09314
      C    3   -0.29440      0.99960     2.28843    0.00637     3.29440
      C    4   -0.29440      0.99960     2.28843    0.00637     3.29440
      S    5    0.12449      4.99947     2.85795    0.01809     7.87551
      C    6    0.19618      0.99960     1.78336    0.02086     2.80382
      N    7   -0.29267      0.99961     2.77937    0.01369     3.79267
      C    8    0.31675      0.99961     1.66540    0.01823     2.68325
      N    9   -0.27107      0.99963     2.76453    0.00691     3.77107
      C   10    0.41128      0.99958     1.57274    0.01640     2.58872
      N   11   -0.32167      0.99964     2.81211    0.00992     3.82167
      N   12   -0.13460      0.99962     2.62073    0.01425     3.63460
      C   13    0.04339      0.99958     1.94669    0.01034     2.95661
      C   14   -0.18185      0.99957     2.17342    0.00885     3.18185
      C   15   -0.00456      0.99967     1.98927    0.01563     3.00456
      N   16   -0.11125      0.99972     2.60059    0.01094     3.61125
      N   17   -0.30713      0.99965     2.79856    0.00893     3.80713
      C   18   -0.18210      0.99966     2.17595    0.00649     3.18210
      H   19    0.09600      0.00000     0.40304    0.00096     0.40400
      H   20    0.10176      0.00000     0.39740    0.00085     0.39824
      H   21    0.10175      0.00000     0.39740    0.00085     0.39825
      H   22    0.08943      0.00000     0.40960    0.00097     0.41057
      H   23    0.11969      0.00000     0.37926    0.00105     0.38031
      H   24    0.09935      0.00000     0.39986    0.00079     0.40065
      H   25    0.09935      0.00000     0.39986    0.00079     0.40065
      H   26    0.11970      0.00000     0.37926    0.00105     0.38030
      H   27    0.08943      0.00000     0.40960    0.00097     0.41057
      H   28    0.10809      0.00000     0.39095    0.00097     0.39191
      H   29    0.09749      0.00000     0.40159    0.00092     0.40251
      H   30    0.08542      0.00000     0.41366    0.00093     0.41458
      H   31    0.18875      0.00000     0.30945    0.00181     0.31125
      H   32    0.08333      0.00000     0.41565    0.00102     0.41667
      H   33    0.08333      0.00000     0.41564    0.00102     0.41667
      H   34    0.12367      0.00000     0.37531    0.00102     0.37633
 =======================================================================
   * Total *    0.00000     21.99301    47.77962    0.22737    70.00000

 Normal termination of Gaussian 16 at Fri Dec 11 21:59:47 2020.
