 Gaussian 16, Revision A.03,

 -----------------------------------------------------------
 # opt freq B3LYP/6-31G(d) empiricaldispersion=gd3bj scf=xqc
 -----------------------------------------------------------

 -----------------------------
 CID_5256698_JID_7406_neutraal
 -----------------------------
 Symbolic Z-matrix:
 Charge =  0 Multiplicity = 1

 SCF Done:  E(RB3LYP) =  -803.513832690     A.U. after   14 cycles
 SCF Done:  E(RB3LYP) =  -803.526141272     A.U. after   13 cycles
 SCF Done:  E(RB3LYP) =  -803.527620861     A.U. after   12 cycles
 SCF Done:  E(RB3LYP) =  -803.527913685     A.U. after   11 cycles
 SCF Done:  E(RB3LYP) =  -803.527992601     A.U. after   11 cycles
 SCF Done:  E(RB3LYP) =  -803.528067182     A.U. after   11 cycles
 SCF Done:  E(RB3LYP) =  -803.528070217     A.U. after    8 cycles
 Optimization completed.
    -- Stationary point found.
 Normal termination of Gaussian 16 at Fri Dec 11 11:56:49 2020.

 --------------------------------------------------------------------
 #N Geom=AllCheck Guess=TCheck SCRF=Check GenChk RB3LYP/6-31G(d) Freq
 --------------------------------------------------------------------

 Structure from the checkpoint file:  "JID_7406.chk"
 -----------------------------
 CID_5256698_JID_7406_neutraal
 -----------------------------
 Charge =  0 Multiplicity = 1

 SCF Done:  E(RB3LYP) =  -803.528070217     A.U. after    1 cycles

  Exact polarizability: 127.247  -3.817 107.320   0.000   0.001 130.062
 Approx polarizability: 180.332   2.851 165.188   0.001   0.004 235.663

                      1                      2                      3
                      A                      A                      A
 Frequencies --     90.8962               138.5907               182.4147
 Red. masses --      7.8693                12.0128                 4.0462
 Frc consts  --      0.0383                 0.1359                 0.0793
 IR Inten    --      0.0868                 6.8333                 0.0200

                      4                      5                      6
                      A                      A                      A
 Frequencies --    190.0327               202.2800               207.0970
 Red. masses --      8.2433                 3.9812                 4.9986
 Frc consts  --      0.1754                 0.0960                 0.1263
 IR Inten    --      2.4985                 4.5794                 1.2996

                      7                      8                      9
                      A                      A                      A
 Frequencies --    294.0315               338.3975               340.8575
 Red. masses --      4.2925                 5.3898                 2.0881
 Frc consts  --      0.2186                 0.3636                 0.1429
 IR Inten    --      1.0252                 5.3855                 0.3622

                     10                     11                     12
                      A                      A                      A
 Frequencies --    363.3008               434.2360               445.8060
 Red. masses --      4.4482                 4.0424                 3.8930
 Frc consts  --      0.3459                 0.4491                 0.4559
 IR Inten    --      0.8060                 2.0826                 0.1766

                     13                     14                     15
                      A                      A                      A
 Frequencies --    486.5020               522.2341               551.2083
 Red. masses --      2.4357                 4.1241                 4.8633
 Frc consts  --      0.3397                 0.6627                 0.8706
 IR Inten    --      3.0763                 3.2989                 5.6354

                     16                     17                     18
                      A                      A                      A
 Frequencies --    623.5643               636.5180               665.3724
 Red. masses --     11.9631                 4.7904                 2.4711
 Frc consts  --      2.7407                 1.1435                 0.6446
 IR Inten    --      0.7111                 3.4819                 1.1646

                     19                     20                     21
                      A                      A                      A
 Frequencies --    704.5923               707.6310               732.4439
 Red. masses --      7.2511                 4.0820                 6.6808
 Frc consts  --      2.1210                 1.2043                 2.1117
 IR Inten    --      4.6724                37.8994                 0.8493

                     22                     23                     24
                      A                      A                      A
 Frequencies --    758.3524               778.4540               809.6017
 Red. masses --      3.2319                 6.5748                 3.8079
 Frc consts  --      1.0951                 2.3475                 1.4705
 IR Inten    --     24.6508                 3.5727                 0.8313

                     25                     26                     27
                      A                      A                      A
 Frequencies --    823.6102               835.3370               850.7904
 Red. masses --      1.4185                 4.5597                 3.4992
 Frc consts  --      0.5669                 1.8746                 1.4923
 IR Inten    --      2.6374                 1.2435                29.0221

                     28                     29                     30
                      A                      A                      A
 Frequencies --    896.1102               904.9943               917.5183
 Red. masses --      2.7235                 2.8160                 2.3159
 Frc consts  --      1.2886                 1.3588                 1.1487
 IR Inten    --      7.9967                 0.1223                 0.2366

                     31                     32                     33
                      A                      A                      A
 Frequencies --    925.6768               926.3994               931.6959
 Red. masses --      2.1820                 3.0407                 2.9901
 Frc consts  --      1.1016                 1.5375                 1.5293
 IR Inten    --      3.6716                 0.3846                36.0560

                     34                     35                     36
                      A                      A                      A
 Frequencies --    943.0041               962.0104               964.9201
 Red. masses --      1.6700                 4.9444                 2.9444
 Frc consts  --      0.8750                 2.6960                 1.6152
 IR Inten    --     15.1920               145.5953                13.3565

                     37                     38                     39
                      A                      A                      A
 Frequencies --    985.1405               989.8240              1016.6162
 Red. masses --      2.5731                 2.1999                 2.4579
 Frc consts  --      1.4713                 1.2699                 1.4967
 IR Inten    --      0.1137                58.8330                 2.0564

                     40                     41                     42
                      A                      A                      A
 Frequencies --   1039.1365              1060.8229              1065.2747
 Red. masses --      2.5191                 3.1239                 3.3596
 Frc consts  --      1.6027                 2.0712                 2.2463
 IR Inten    --      6.5043                41.7060                14.6653

                     43                     44                     45
                      A                      A                      A
 Frequencies --   1078.0829              1103.5279              1123.3596
 Red. masses --      2.0644                 1.6713                 2.4609
 Frc consts  --      1.4137                 1.1992                 1.8297
 IR Inten    --      7.6923                 1.9987                 7.4438

                     46                     47                     48
                      A                      A                      A
 Frequencies --   1148.3734              1168.5612              1194.3003
 Red. masses --      1.8585                 1.2773                 1.3712
 Frc consts  --      1.4440                 1.0276                 1.1523
 IR Inten    --      1.7365                 4.3372                40.2373

                     49                     50                     51
                      A                      A                      A
 Frequencies --   1200.2637              1208.9018              1242.2870
 Red. masses --      2.1572                 3.2685                 2.5934
 Frc consts  --      1.8310                 2.8143                 2.3581
 IR Inten    --      3.6811                28.5613                86.2819

                     52                     53                     54
                      A                      A                      A
 Frequencies --   1255.4849              1260.5398              1268.9404
 Red. masses --      1.3631                 2.3509                 1.2424
 Frc consts  --      1.2659                 2.2008                 1.1787
 IR Inten    --      0.3507                40.6725                 0.2164

                     55                     56                     57
                      A                      A                      A
 Frequencies --   1278.0039              1284.3153              1306.7043
 Red. masses --      1.3789                 1.9232                 1.3602
 Frc consts  --      1.3269                 1.8690                 1.3684
 IR Inten    --      7.3431                43.7096                 0.7542

                     58                     59                     60
                      A                      A                      A
 Frequencies --   1334.4177              1336.7705              1345.9331
 Red. masses --      1.5841                 1.6097                 1.6322
 Frc consts  --      1.6619                 1.6948                 1.7421
 IR Inten    --      7.6334                 4.0299                 9.6116

                     61                     62                     63
                      A                      A                      A
 Frequencies --   1346.0581              1350.1339              1367.3206
 Red. masses --      1.6201                 1.7145                 1.4623
 Frc consts  --      1.7295                 1.8414                 1.6107
 IR Inten    --      1.4574                 0.6276                 3.0308

                     64                     65                     66
                      A                      A                      A
 Frequencies --   1517.8539              1531.9723              1554.3421
 Red. masses --      1.0806                 1.0928                 1.0987
 Frc consts  --      1.4668                 1.5111                 1.5640
 IR Inten    --      1.9936                 6.5917                 7.8663

                     67                     68                     69
                      A                      A                      A
 Frequencies --   1651.2760              1866.6890              1935.0500
 Red. masses --      6.0533                13.1886                13.0100
 Frc consts  --      9.7249                27.0764                28.7020
 IR Inten    --      0.5862               471.3390               133.5663

                     70                     71                     72
                      A                      A                      A
 Frequencies --   3071.5927              3077.4207              3084.3802
 Red. masses --      1.0712                 1.0599                 1.0680
 Frc consts  --      5.9545                 5.9142                 5.9861
 IR Inten    --     17.3507                22.1558                47.2183

                     73                     74                     75
                      A                      A                      A
 Frequencies --   3122.1772              3127.1596              3130.0756
 Red. masses --      1.1075                 1.0865                 1.0893
 Frc consts  --      6.3609                 6.2598                 6.2880
 IR Inten    --     28.5560                34.1320                12.1832

                     76                     77                     78
                      A                      A                      A
 Frequencies --   3145.4303              3156.7954              3173.9886
 Red. masses --      1.0948                 1.0979                 1.0886
 Frc consts  --      6.3816                 6.4460                 6.4614
 IR Inten    --      3.2867                25.3938                23.1074

                     79                     80                     81
                      A                      A                      A
 Frequencies --   3176.5007              3244.9406              3266.7573
 Red. masses --      1.0930                 1.0876                 1.1075
 Frc consts  --      6.4976                 6.7471                 6.9633
 IR Inten    --      7.3329                 0.2644                 2.0601

 - Thermochemistry -
 -------------------
 Temperature   298.150 Kelvin.  Pressure   1.00000 Atm.
 Atom     1 has atomic number  6 and mass  12.00000

 Molecular mass:   232.07356 amu.
 Principal axes and moments of inertia in atomic units:
                           1         2         3
     Eigenvalues --  2494.401562987.946953207.20382
           X            0.99540  -0.09582   0.00000
           Y            0.09582   0.99540  -0.00000
           Z           -0.00000   0.00000   1.00000
 This molecule is an asymmetric top.
 Rotational symmetry number  1.
 Warning -- assumption of classical behavior for rotation
           may cause significant error
 Rotational temperatures (Kelvin)      0.03472     0.02899     0.02701
 Rotational constants (GHZ):           0.72352     0.60401     0.56271
 Zero-point vibrational energy     611770.1 (Joules/Mol)
                                  146.21657 (Kcal/Mol)
 Warning -- explicit consideration of  15 degrees of freedom as
           vibrations may cause significant error
 Vibrational temperatures:    130.78   199.40   262.45   273.41   291.04
          (Kelvin)            297.97   423.05   486.88   490.42   522.71
                              624.77   641.42   699.97   751.38   793.07
                              897.17   915.81   957.32  1013.75  1018.12
                             1053.82  1091.10  1120.02  1164.84  1184.99
                             1201.86  1224.10  1289.30  1302.08  1320.10
                             1331.84  1332.88  1340.50  1356.77  1384.12
                             1388.30  1417.40  1424.14  1462.68  1495.09
                             1526.29  1532.69  1551.12  1587.73  1616.26
                             1652.25  1681.30  1718.33  1726.91  1739.34
                             1787.37  1806.36  1813.64  1825.72  1838.76
                             1847.84  1880.06  1919.93  1923.31  1936.50
                             1936.68  1942.54  1967.27  2183.85  2204.17
                             2236.35  2375.82  2685.75  2784.11  4419.34
                             4427.72  4437.74  4492.12  4499.29  4503.48
                             4525.57  4541.92  4566.66  4570.28  4668.75
                             4700.14

 Zero-point correction=                           0.233011 (Hartree/Particle)
 Thermal correction to Energy=                    0.244383
 Thermal correction to Enthalpy=                  0.245327
 Thermal correction to Gibbs Free Energy=         0.196348
 Sum of electronic and zero-point Energies=           -803.295059
 Sum of electronic and thermal Energies=              -803.283687
 Sum of electronic and thermal Enthalpies=            -803.282743
 Sum of electronic and thermal Free Energies=         -803.331722

                     E (Thermal)             CV                S
                      KCal/Mol        Cal/Mol-Kelvin    Cal/Mol-Kelvin
 Total                  153.353             49.433            103.085
 Electronic               0.000              0.000              0.000
 Translational            0.889              2.981             42.227
 Rotational               0.889              2.981             31.547
 Vibrational            151.575             43.472             29.311
 Vibration     1          0.602              1.956              3.641
 Vibration     2          0.614              1.915              2.823
 Vibration     3          0.630              1.864              2.304
 Vibration     4          0.633              1.854              2.228
 Vibration     5          0.639              1.837              2.112
 Vibration     6          0.641              1.830              2.069
 Vibration     7          0.689              1.685              1.451
 Vibration     8          0.719              1.599              1.220
 Vibration     9          0.720              1.594              1.208
 Vibration    10          0.737              1.548              1.108
 Vibration    11          0.795              1.396              0.845
 Vibration    12          0.805              1.370              0.809
 Vibration    13          0.843              1.280              0.693
 Vibration    14          0.877              1.201              0.605
 Vibration    15          0.907              1.137              0.542

 Optimization completed.
    -- Stationary point found.
 Normal termination of Gaussian 16 at Fri Dec 11 12:10:12 2020.

 ----------------------------------------------------------------------
 # B3LYP/6-311++G(d,p) empiricaldispersion=gd3bj scf=xqc pop=npa geom=c
 heck
 ----------------------------------------------------------------------

 -------------------------------------
 CID_5256698_JID_7406_Energie_neutraal
 -------------------------------------
 Structure from the checkpoint file:  "JID_7406.chk"
 Charge =  0 Multiplicity = 1

 SCF Done:  E(RB3LYP) =  -803.745452672     A.U. after   15 cycles
 Normal termination of Gaussian 16 at Fri Dec 11 12:15:03 2020.

 ----------------------------------------------------------------------
 # B3LYP/6-311++G(d,p) empiricaldispersion=gd3bj scf=xqc pop=npa geom=c
 heck
 ----------------------------------------------------------------------

 -----------------------------------
 CID_5256698_JID_7406_Energie_kation
 -----------------------------------
 Structure from the checkpoint file:  "JID_7406.chk"
 Charge =  1 Multiplicity = 2

 SCF Done:  E(UB3LYP) =  -803.390863423     A.U. after   32 cycles
 Normal termination of Gaussian 16 at Fri Dec 11 12:27:39 2020.
 Gaussian 16:  ES64L-G16RevA.03 25-Dec-2016

 ----------------------------------------------------------------------
 # B3LYP/6-311++G(d,p) empiricaldispersion=gd3bj scf=xqc pop=npa geom=c
 heck
 ----------------------------------------------------------------------

 ----------------------------------
 CID_5256698_JID_7406_Energie_anion
 ----------------------------------
 Structure from the checkpoint file:  "JID_7406.chk"
 Charge = -1 Multiplicity = 2

                         Standard orientation:
 ---------------------------------------------------------------------
 Center     Atomic      Atomic             Coordinates (Angstroms)
 Number     Number       Type             X           Y           Z
 ---------------------------------------------------------------------
      1          6           0        2.559746    0.325278   -0.780739
      2          6           0        2.559767    0.325275    0.780761
      3          6           0        1.416518   -0.652348    1.138202
      4          6           0        1.569920   -1.693550    0.000044
      5          6           0        1.416534   -0.652396   -1.138162
      6          6           0        0.036675   -0.039384   -0.775036
      7          6           0        0.036681   -0.039314    0.775024
      8          6           0       -0.262020    1.473629    1.075990
      9          6           0       -1.712705    1.730183    0.668393
     10          6           0       -1.712744    1.730093   -0.668484
     11          6           0       -0.262078    1.473517   -1.076136
     12          8           0        0.450181    2.106694   -0.000124
     13          6           0       -1.101473   -0.965541    1.151907
     14          8           0       -1.486836   -1.276363    2.243033
     15          8           0       -1.702181   -1.471399    0.000067
     16          6           0       -1.101432   -0.965710   -1.151828
     17          8           0       -1.486829   -1.276606   -2.242921
     18          1           0        3.499852   -0.072729   -1.176776
     19          1           0        2.421194    1.324486   -1.194472
     20          1           0        3.499869   -0.072769    1.176774
     21          1           0        2.421261    1.324486    1.194498
     22          1           0        1.448984   -1.037324    2.159704
     23          1           0        0.805382   -2.477277    0.000056
     24          1           0        2.553204   -2.174976    0.000061
     25          1           0        1.449024   -1.037414   -2.159646
     26          1           0        0.077564    1.846333    2.040658
     27          1           0       -2.554364    1.787112    1.346974
     28          1           0       -2.554442    1.786938   -1.347023
     29          1           0        0.077450    1.846131   -2.040859
 ---------------------------------------------------------------------

 SCF Done:  E(UB3LYP) =  -803.739488227     A.U. after   33 cycles
 SCF Done:  E(UB3LYP) =  -803.739488277     a.u. after    2 cycles

 The electronic state is 2-A.
 Alpha  occ. eigenvalues --  -19.06116 -19.02396 -18.99544 -18.99042 -10.17668
 Alpha  occ. eigenvalues --  -10.17005 -10.13122 -10.13038 -10.08788 -10.08664
 Alpha  occ. eigenvalues --  -10.07713 -10.07516 -10.06437 -10.06212 -10.06118
 Alpha  occ. eigenvalues --  -10.05922 -10.05774  -1.00566  -0.95928  -0.94191
 Alpha  occ. eigenvalues --   -0.90230  -0.77976  -0.70489  -0.66219  -0.65772
 Alpha  occ. eigenvalues --   -0.60327  -0.60096  -0.55192  -0.50018  -0.49817
 Alpha  occ. eigenvalues --   -0.48419  -0.45533  -0.45131  -0.43419  -0.41839
 Alpha  occ. eigenvalues --   -0.39515  -0.38822  -0.35504  -0.34493  -0.34257
 Alpha  occ. eigenvalues --   -0.32396  -0.32073  -0.31174  -0.30086  -0.29995
 Alpha  occ. eigenvalues --   -0.28933  -0.27651  -0.27241  -0.26054  -0.25044
 Alpha  occ. eigenvalues --   -0.24417  -0.24077  -0.23071  -0.22138  -0.21726
 Alpha  occ. eigenvalues --   -0.20528  -0.20417  -0.17876  -0.16240  -0.15039
 Alpha  occ. eigenvalues --   -0.14924   0.04981
 Alpha virt. eigenvalues --    0.06643   0.08349   0.08487   0.09456   0.09519
 Alpha virt. eigenvalues --    0.10142   0.10313   0.11026   0.11530   0.11676
 Alpha virt. eigenvalues --    0.12047   0.12488   0.13834   0.14883   0.15198

  Beta  occ. eigenvalues --  -19.06196 -19.02370 -18.99329 -18.98804 -10.17476
  Beta  occ. eigenvalues --  -10.16758 -10.13113 -10.13026 -10.08793 -10.08673
  Beta  occ. eigenvalues --  -10.07680 -10.07478 -10.06427 -10.06091 -10.05990
  Beta  occ. eigenvalues --  -10.05907 -10.05759  -1.00402  -0.95871  -0.93774
  Beta  occ. eigenvalues --   -0.89965  -0.77918  -0.70316  -0.66087  -0.65622
  Beta  occ. eigenvalues --   -0.60229  -0.60047  -0.54787  -0.49876  -0.49719
  Beta  occ. eigenvalues --   -0.48301  -0.45201  -0.45039  -0.43321  -0.41767
  Beta  occ. eigenvalues --   -0.39335  -0.38644  -0.35187  -0.34222  -0.33933
  Beta  occ. eigenvalues --   -0.32251  -0.31845  -0.30973  -0.30009  -0.29597
  Beta  occ. eigenvalues --   -0.28863  -0.27576  -0.26486  -0.25930  -0.25001
  Beta  occ. eigenvalues --   -0.24382  -0.23905  -0.23004  -0.22020  -0.21671
  Beta  occ. eigenvalues --   -0.20269  -0.19812  -0.17728  -0.16128  -0.14834
  Beta  occ. eigenvalues --   -0.14242
  Beta virt. eigenvalues --    0.07559   0.08520   0.08785   0.09285   0.09650
  Beta virt. eigenvalues --    0.10423   0.10586   0.11083   0.11710   0.11745
  Beta virt. eigenvalues --    0.12226   0.12271   0.12831   0.14005   0.15144

 Mulliken charges and spin densities:
               1          2
     1  C    0.031683  -0.516995
     2  C    0.504026  -1.009784
     3  C   -1.167376   1.328307
     4  C    0.500260  -0.953013
     5  C   -0.457984   0.614698
     6  C    0.434332  -0.255194
     7  C    0.727293  -0.519323
     8  C    0.012055  -0.260296
     9  C   -0.371853   0.141826
    10  C   -0.284397   0.048724
    11  C   -0.142360  -0.098794
    12  O   -0.126833   0.018143
    13  C    0.139364  -0.107466
    14  O   -0.326023   0.096260
    15  O   -0.017331  -0.025577
    16  C   -0.005291   0.028116
    17  O   -0.299712   0.066703
    18  H   -0.315571   0.479021
    19  H    0.154507  -0.008807
    20  H   -0.470376   0.642471
    21  H    0.103852   0.045692
    22  H   -0.045470   0.302212
    23  H    0.238170  -0.054352
    24  H   -0.562999   0.758288
    25  H    0.124957   0.128064
    26  H    0.188841   0.048433
    27  H    0.146078  -0.014717
    28  H    0.086902   0.045702
    29  H    0.201255   0.031661
 Sum of Mulliken charges =  -1.00000   1.00000

 Dipole moment (field-independent basis, Debye):
    X=             -2.2895    Y=              3.8116    Z=             -0.7053  Tot=              4.5019
 Quadrupole moment (field-independent basis, Debye-Ang):
   XX=           -153.7441   YY=           -128.8836   ZZ=           -127.6935
   XY=             -0.3733   XZ=             -3.0642   YZ=              0.7742

 Summary of Natural Population Analysis:

                                       Natural Population
                Natural  -----------------------------------------------
    Atom  No    Charge         Core      Valence    Rydberg      Total
 -----------------------------------------------------------------------
      C    1   -0.19253      0.99963     2.18351    0.00939     3.19253
      C    2   -0.19350      0.99963     2.18420    0.00966     3.19350
      C    3   -0.10127      0.99956     2.08784    0.01387     3.10127
      C    4   -0.19289      0.99962     2.18367    0.00960     3.19289
      C    5   -0.10179      0.99957     2.08849    0.01374     3.10179
      C    6   -0.07910      0.99945     2.06528    0.01437     3.07910
      C    7   -0.07874      0.99945     2.06464    0.01465     3.07874
      C    8    0.05546      0.99953     1.92694    0.01808     2.94454
      C    9   -0.08637      0.99951     2.07785    0.00900     3.08637
      C   10   -0.08517      0.99951     2.07629    0.00937     3.08517
      C   11    0.05483      0.99953     1.92766    0.01798     2.94517
      O   12   -0.29751      0.99991     3.29028    0.00732     4.29751
      C   13    0.44094      0.99954     1.53098    0.02853     2.55906
      O   14   -0.26871      0.99986     3.26298    0.00587     4.26871
      O   15   -0.28786      0.99985     3.28052    0.00749     4.28786
      C   16    0.43775      0.99955     1.53506    0.02765     2.56225
      O   17   -0.27052      0.99986     3.26476    0.00590     4.27052
      H   18    0.10000      0.00000     0.39882    0.00118     0.40000
      H   19    0.10293      0.00000     0.39580    0.00127     0.39707
      H   20    0.10221      0.00000     0.39540    0.00238     0.39779
      H   21    0.10382      0.00000     0.39492    0.00126     0.39618
      H   22    0.10919      0.00000     0.38973    0.00108     0.39081
      H   23    0.10237      0.00000     0.39639    0.00124     0.39763
      H   24    0.10446      0.00000     0.39421    0.00133     0.39554
      H   25    0.10898      0.00000     0.38999    0.00102     0.39102
      H   26    0.10212      0.00000     0.39686    0.00102     0.39788
      H   27    0.10474      0.00000     0.39454    0.00072     0.39526
      H   28    0.10500      0.00000     0.39412    0.00088     0.39500
      H   29    0.10114      0.00000     0.39777    0.00108     0.39886
 =======================================================================
   * Total *   -0.00000     16.99355    43.76951    0.23693    61.00000

 Normal termination of Gaussian 16 at Fri Dec 11 12:52:58 2020.
