 Gaussian 16, Revision A.03,

 -----------------------------------------------------------
 # opt freq B3LYP/6-31G(d) empiricaldispersion=gd3bj scf=xqc
 -----------------------------------------------------------

 -------------------------------
 CID_114220289_JID_8304_neutraal
 -------------------------------
 Symbolic Z-matrix:
 Charge =  0 Multiplicity = 1

 SCF Done:  E(RB3LYP) =  -817.783562019     A.U. after   15 cycles
 SCF Done:  E(RB3LYP) =  -817.792222370     A.U. after   13 cycles
 SCF Done:  E(RB3LYP) =  -817.793939749     A.U. after   13 cycles
 SCF Done:  E(RB3LYP) =  -817.795120563     A.U. after   13 cycles
 SCF Done:  E(RB3LYP) =  -817.796023817     A.U. after   13 cycles
 SCF Done:  E(RB3LYP) =  -817.796820066     A.U. after   13 cycles
 SCF Done:  E(RB3LYP) =  -817.797196098     A.U. after   12 cycles
 SCF Done:  E(RB3LYP) =  -817.796857743     A.U. after   12 cycles
 SCF Done:  E(RB3LYP) =  -817.797691247     A.U. after   13 cycles
 SCF Done:  E(RB3LYP) =  -817.798751715     A.U. after   14 cycles
 SCF Done:  E(RB3LYP) =  -817.804919485     A.U. after   11 cycles
 SCF Done:  E(RB3LYP) =  -817.804920746     A.U. after   10 cycles
 SCF Done:  E(RB3LYP) =  -817.804921549     A.U. after    9 cycles
 SCF Done:  E(RB3LYP) =  -817.804921564     A.U. after    7 cycles
 SCF Done:  E(RB3LYP) =  -817.804921555     A.U. after    7 cycles
 Optimization completed.
    -- Stationary point found.
 Normal termination of Gaussian 16 at Fri Dec 11 20:58:29 2020.

 --------------------------------------------------------------------
 #N Geom=AllCheck Guess=TCheck SCRF=Check GenChk RB3LYP/6-31G(d) Freq
 --------------------------------------------------------------------

 Structure from the checkpoint file:  "JID_8304.chk"
 -------------------------------
 CID_114220289_JID_8304_neutraal
 -------------------------------
 Charge =  0 Multiplicity = 1

 SCF Done:  E(RB3LYP) =  -817.804921555     A.U. after    1 cycles

  Exact polarizability: 213.426   7.264 167.471  -1.872   5.668 106.538
 Approx polarizability: 269.224  12.202 280.335  -5.278  20.030 160.335

                      1                      2                      3
                      A                      A                      A
 Frequencies --     12.8374                46.0999                49.3478
 Red. masses --      4.2057                 1.4898                 1.8237
 Frc consts  --      0.0004                 0.0019                 0.0026
 IR Inten    --      0.6370                 0.3569                 0.0677

                      4                      5                      6
                      A                      A                      A
 Frequencies --     66.0069                72.2838               111.8312
 Red. masses --      4.2058                 4.7699                 4.9034
 Frc consts  --      0.0108                 0.0147                 0.0361
 IR Inten    --      0.3895                 0.4583                 0.1630

                      7                      8                      9
                      A                      A                      A
 Frequencies --    147.5922               160.0952               191.3655
 Red. masses --      4.5795                 3.0332                 4.5330
 Frc consts  --      0.0588                 0.0458                 0.0978
 IR Inten    --      0.2731                 0.7679                 3.6548

                     10                     11                     12
                      A                      A                      A
 Frequencies --    202.5863               213.2857               248.5497
 Red. masses --      4.7309                 4.7860                 1.1389
 Frc consts  --      0.1144                 0.1283                 0.0415
 IR Inten    --      8.3496                 1.0202                 0.2201

                     13                     14                     15
                      A                      A                      A
 Frequencies --    268.3459               295.8297               317.3893
 Red. masses --      2.2156                 2.7664                 2.8672
 Frc consts  --      0.0940                 0.1426                 0.1702
 IR Inten    --      1.7360                 4.5171                 4.6245

                     16                     17                     18
                      A                      A                      A
 Frequencies --    362.9233               376.1953               393.7883
 Red. masses --      2.8176                 2.5607                 3.7180
 Frc consts  --      0.2187                 0.2135                 0.3397
 IR Inten    --      0.2591                 1.0958                18.2891

                     19                     20                     21
                      A                      A                      A
 Frequencies --    401.1065               428.7009               439.7288
 Red. masses --      1.3027                 1.9327                 2.8030
 Frc consts  --      0.1235                 0.2093                 0.3193
 IR Inten    --    293.9390                 2.3730                24.0978

                     22                     23                     24
                      A                      A                      A
 Frequencies --    482.5399               500.9742               512.0427
 Red. masses --      2.0526                 3.5878                 1.8041
 Frc consts  --      0.2816                 0.5305                 0.2787
 IR Inten    --      6.2727                 2.1984                 3.7619

                     25                     26                     27
                      A                      A                      A
 Frequencies --    533.3836               557.6800               579.5191
 Red. masses --      3.1853                 4.4081                 3.2293
 Frc consts  --      0.5339                 0.8077                 0.6390
 IR Inten    --      1.7024                 9.2733                21.5132

                     28                     29                     30
                      A                      A                      A
 Frequencies --    619.5277               629.1878               637.9903
 Red. masses --      4.0889                 4.4951                 4.0009
 Frc consts  --      0.9246                 1.0484                 0.9595
 IR Inten    --     11.7661                 2.8252                11.3660

                     31                     32                     33
                      A                      A                      A
 Frequencies --    722.4863               735.2800               782.0050
 Red. masses --      2.4898                 1.4796                 4.7000
 Frc consts  --      0.7657                 0.4713                 1.6934
 IR Inten    --     32.7948                31.6212                57.1403

                     34                     35                     36
                      A                      A                      A
 Frequencies --    791.9153               814.8086               867.1543
 Red. masses --      2.7772                 5.0537                 2.7415
 Frc consts  --      1.0262                 1.9768                 1.2146
 IR Inten    --      5.7208                 4.9784                 8.0449

                     37                     38                     39
                      A                      A                      A
 Frequencies --    893.2420               895.5274               900.2537
 Red. masses --      1.7905                 1.6408                 2.1150
 Frc consts  --      0.8417                 0.7753                 1.0099
 IR Inten    --      3.9505                11.3185                17.5411

                     40                     41                     42
                      A                      A                      A
 Frequencies --    919.7229               956.6313               993.9354
 Red. masses --      2.4718                 2.0642                 3.1325
 Frc consts  --      1.2319                 1.1130                 1.8233
 IR Inten    --      1.3002                 7.8162                 3.1649

                     43                     44                     45
                      A                      A                      A
 Frequencies --   1023.4620              1030.0759              1037.0147
 Red. masses --      2.8193                 1.8741                 2.2142
 Frc consts  --      1.7399                 1.1716                 1.4029
 IR Inten    --      3.4264                 3.4636                 6.1475

                     46                     47                     48
                      A                      A                      A
 Frequencies --   1053.4359              1068.3977              1073.3488
 Red. masses --      1.8138                 2.0705                 1.6324
 Frc consts  --      1.1859                 1.3925                 1.1080
 IR Inten    --     12.2818                 6.3198                 6.7068

                     49                     50                     51
                      A                      A                      A
 Frequencies --   1086.8930              1114.4549              1128.3243
 Red. masses --      2.2274                 2.0495                 1.5958
 Frc consts  --      1.5503                 1.4998                 1.1970
 IR Inten    --     21.4724                 0.8349                 8.3391

                     52                     53                     54
                      A                      A                      A
 Frequencies --   1142.6750              1168.9614              1184.8472
 Red. masses --      1.5883                 1.3110                 1.9502
 Frc consts  --      1.2218                 1.0555                 1.6131
 IR Inten    --     35.1363                 4.1495                24.3064

                     55                     56                     57
                      A                      A                      A
 Frequencies --   1189.2111              1207.1793              1231.1117
 Red. masses --      1.6276                 2.3059                 1.4266
 Frc consts  --      1.3562                 1.9799                 1.2739
 IR Inten    --     11.7739                10.2699                 9.0728

                     58                     59                     60
                      A                      A                      A
 Frequencies --   1294.0890              1298.4574              1305.3235
 Red. masses --      1.9102                 2.3477                 2.1006
 Frc consts  --      1.8847                 2.3321                 2.1088
 IR Inten    --     90.0436                21.6357                 7.2426

                     61                     62                     63
                      A                      A                      A
 Frequencies --   1327.0056              1338.7110              1343.1747
 Red. masses --      2.3480                 2.1442                 1.3726
 Frc consts  --      2.4360                 2.2640                 1.4590
 IR Inten    --     21.1236                18.8543                 9.1065

                     64                     65                     66
                      A                      A                      A
 Frequencies --   1367.8985              1371.8748              1407.3973
 Red. masses --      1.4003                 1.3116                 1.4810
 Frc consts  --      1.5438                 1.4544                 1.7283
 IR Inten    --     14.1864                 0.6731                16.3621

                     67                     68                     69
                      A                      A                      A
 Frequencies --   1411.0504              1428.3327              1432.7381
 Red. masses --      1.4825                 1.4882                 1.3996
 Frc consts  --      1.7391                 1.7888                 1.6927
 IR Inten    --     11.8523                57.5459                 8.9282

                     70                     71                     72
                      A                      A                      A
 Frequencies --   1447.2636              1483.5701              1487.4384
 Red. masses --      2.6958                 1.2414                 3.2356
 Frc consts  --      3.3269                 1.6098                 4.2177
 IR Inten    --    143.8885                15.3950                85.3979

                     73                     74                     75
                      A                      A                      A
 Frequencies --   1492.0219              1501.4525              1505.6457
 Red. masses --      2.7504                 1.7683                 1.0490
 Frc consts  --      3.6074                 2.3487                 1.4011
 IR Inten    --     11.1067               169.4003                 6.0019

                     76                     77                     78
                      A                      A                      A
 Frequencies --   1513.3744              1516.6378              1517.3899
 Red. masses --      1.0915                 1.1728                 1.1715
 Frc consts  --      1.4728                 1.5894                 1.5893
 IR Inten    --      0.9159                14.7739                54.2989

                     79                     80                     81
                      A                      A                      A
 Frequencies --   1518.9822              1523.8944              1536.8012
 Red. masses --      1.0873                 1.1084                 1.0564
 Frc consts  --      1.4781                 1.5166                 1.4700
 IR Inten    --      3.5131                 4.5064                 3.5553

                     82                     83                     84
                      A                      A                      A
 Frequencies --   1540.2954              1619.7024              1631.4656
 Red. masses --      1.1024                 4.4010                 6.6821
 Frc consts  --      1.5409                 6.8026                10.4790
 IR Inten    --      7.4816               134.7625               238.4471

                     85                     86                     87
                      A                      A                      A
 Frequencies --   1664.0631              1750.8277              2907.1502
 Red. masses --      1.6563                 8.6203                 1.0734
 Frc consts  --      2.7023                15.5690                 5.3449
 IR Inten    --    439.0697               334.3482                52.6746

                     88                     89                     90
                      A                      A                      A
 Frequencies --   2928.5475              2948.9890              3029.3250
 Red. masses --      1.0716                 1.0617                 1.0711
 Frc consts  --      5.4151                 5.4401                 5.7913
 IR Inten    --     47.6030               150.0034                34.3869

                     91                     92                     93
                      A                      A                      A
 Frequencies --   3058.1191              3059.9223              3079.4317
 Red. masses --      1.0617                 1.0365                 1.0815
 Frc consts  --      5.8502                 5.7179                 6.0426
 IR Inten    --     20.4134                13.4241                29.9040

                     94                     95                     96
                      A                      A                      A
 Frequencies --   3082.1080              3087.7196              3098.9560
 Red. masses --      1.0778                 1.0867                 1.1041
 Frc consts  --      6.0324                 6.1042                 6.2473
 IR Inten    --     50.0005                33.8446                37.1592

                     97                     98                     99
                      A                      A                      A
 Frequencies --   3119.2197              3126.0481              3128.0981
 Red. masses --      1.1003                 1.1042                 1.0932
 Frc consts  --      6.3076                 6.3578                 6.3023
 IR Inten    --     10.3508                31.0167                19.8263

                    100                    101                    102
                      A                      A                      A
 Frequencies --   3148.2522              3149.2043              3261.2567
 Red. masses --      1.0861                 1.1030                 1.0922
 Frc consts  --      6.3424                 6.4453                 6.8444
 IR Inten    --     12.8715                15.0295                 1.7055

                    103                    104                    105
                      A                      A                      A
 Frequencies --   3552.9217              3601.7614              3724.1480
 Red. masses --      1.0749                 1.0454                 1.1033
 Frc consts  --      7.9948                 7.9902                 9.0160
 IR Inten    --     83.9993                51.1057                37.1807

 - Thermochemistry -
 -------------------
 Temperature   298.150 Kelvin.  Pressure   1.00000 Atm.
 Atom     1 has atomic number  6 and mass  12.00000

 Molecular mass:   249.15896 amu.
 Principal axes and moments of inertia in atomic units:
                           1         2         3
     Eigenvalues --  1982.653138459.527629607.49901
           X            0.99997   0.00739   0.00117
           Y           -0.00737   0.99982  -0.01752
           Z           -0.00130   0.01751   0.99985
 This molecule is an asymmetric top.
 Rotational symmetry number  1.
 Warning -- assumption of classical behavior for rotation
           may cause significant error
 Rotational temperatures (Kelvin)      0.04369     0.01024     0.00902
 Rotational constants (GHZ):           0.91027     0.21334     0.18785
 Zero-point vibrational energy     834629.5 (Joules/Mol)
                                  199.48123 (Kcal/Mol)
 Warning -- explicit consideration of  28 degrees of freedom as
           vibrations may cause significant error
 Vibrational temperatures:     18.47    66.33    71.00    94.97   104.00
          (Kelvin)            160.90   212.35   230.34   275.33   291.48
                              306.87   357.61   386.09   425.63   456.65
                              522.17   541.26   566.57   577.10   616.81
                              632.67   694.27   720.79   736.72   767.42
                              802.38   833.80   891.36   905.26   917.93
                             1039.50  1057.90  1125.13  1139.39  1172.33
                             1247.64  1285.18  1288.46  1295.26  1323.28
                             1376.38  1430.05  1472.53  1482.05  1492.03
                             1515.66  1537.19  1544.31  1563.80  1603.45
                             1623.41  1644.05  1681.87  1704.73  1711.01
                             1736.86  1771.30  1861.91  1868.19  1878.07
                             1909.27  1926.11  1932.53  1968.10  1973.82
                             2024.93  2030.19  2055.05  2061.39  2082.29
                             2134.53  2140.09  2146.69  2160.26  2166.29
                             2177.41  2182.10  2183.19  2185.48  2192.54
                             2211.11  2216.14  2330.39  2347.32  2394.22
                             2519.05  4182.74  4213.53  4242.94  4358.52
                             4399.95  4402.55  4430.62  4434.47  4442.54
                             4458.71  4487.86  4497.69  4500.64  4529.63
                             4531.00  4692.22  5111.86  5182.13  5358.22

 Zero-point correction=                           0.317894 (Hartree/Particle)
 Thermal correction to Energy=                    0.335210
 Thermal correction to Enthalpy=                  0.336154
 Thermal correction to Gibbs Free Energy=         0.271276
 Sum of electronic and zero-point Energies=           -817.487028
 Sum of electronic and thermal Energies=              -817.469712
 Sum of electronic and thermal Enthalpies=            -817.468767
 Sum of electronic and thermal Free Energies=         -817.533645

                     E (Thermal)             CV                S
                      KCal/Mol        Cal/Mol-Kelvin    Cal/Mol-Kelvin
 Total                  210.347             66.299            136.547
 Electronic               0.000              0.000              0.000
 Translational            0.889              2.981             42.439
 Rotational               0.889              2.981             33.443
 Vibrational            208.570             60.337             60.664
 Vibration     1          0.593              1.987              7.515
 Vibration     2          0.595              1.979              4.978
 Vibration     3          0.595              1.978              4.843
 Vibration     4          0.597              1.970              4.269
 Vibration     5          0.598              1.967              4.090
 Vibration     6          0.607              1.940              3.237
 Vibration     7          0.617              1.905              2.703
 Vibration     8          0.622              1.891              2.549
 Vibration     9          0.634              1.852              2.215
 Vibration    10          0.639              1.836              2.109
 Vibration    11          0.644              1.821              2.015
 Vibration    12          0.662              1.765              1.741
 Vibration    13          0.673              1.731              1.607
 Vibration    14          0.690              1.682              1.440
 Vibration    15          0.704              1.640              1.324
 Vibration    16          0.737              1.549              1.110
 Vibration    17          0.747              1.521              1.054
 Vibration    18          0.761              1.483              0.986
 Vibration    19          0.767              1.468              0.959
 Vibration    20          0.790              1.408              0.863
 Vibration    21          0.800              1.384              0.827
 Vibration    22          0.839              1.289              0.703
 Vibration    23          0.856              1.248              0.656
 Vibration    24          0.867              1.223              0.629
 Vibration    25          0.888              1.176              0.580
 Vibration    26          0.913              1.123              0.528
 Vibration    27          0.936              1.076              0.486
 Vibration    28          0.979              0.991              0.417

 Optimization completed.
    -- Stationary point found.
 Normal termination of Gaussian 16 at Fri Dec 11 21:14:20 2020.

 ----------------------------------------------------------------------
 # B3LYP/6-311++G(d,p) empiricaldispersion=gd3bj scf=xqc pop=npa geom=c
 heck
 ----------------------------------------------------------------------

 ---------------------------------------
 CID_114220289_JID_8304_Energie_neutraal
 ---------------------------------------
 Structure from the checkpoint file:  "JID_8304.chk"
 Charge =  0 Multiplicity = 1

 SCF Done:  E(RB3LYP) =  -818.036232947     A.U. after   15 cycles
 Normal termination of Gaussian 16 at Fri Dec 11 21:20:44 2020.

 ----------------------------------------------------------------------
 # B3LYP/6-311++G(d,p) empiricaldispersion=gd3bj scf=xqc pop=npa geom=c
 heck
 ----------------------------------------------------------------------

 -------------------------------------
 CID_114220289_JID_8304_Energie_kation
 -------------------------------------
 Structure from the checkpoint file:  "JID_8304.chk"
 Charge =  1 Multiplicity = 2

 SCF Done:  E(UB3LYP) =  -817.745221988     A.U. after   32 cycles
 Normal termination of Gaussian 16 at Fri Dec 11 21:39:09 2020.
 Gaussian 16:  ES64L-G16RevA.03 25-Dec-2016

 ----------------------------------------------------------------------
 # B3LYP/6-311++G(d,p) empiricaldispersion=gd3bj scf=xqc pop=npa geom=c
 heck
 ----------------------------------------------------------------------

 ------------------------------------
 CID_114220289_JID_8304_Energie_anion
 ------------------------------------
 Structure from the checkpoint file:  "JID_8304.chk"
 Charge = -1 Multiplicity = 2

                         Standard orientation:
 ---------------------------------------------------------------------
 Center     Atomic      Atomic             Coordinates (Angstroms)
 Number     Number       Type             X           Y           Z
 ---------------------------------------------------------------------
      1          6           0       -5.251872   -1.087598    0.211057
      2          6           0       -3.881182   -0.475604    0.120267
      3          6           0       -2.738214   -1.250025   -0.092054
      4          6           0       -1.516714   -0.578988   -0.138456
      5          7           0       -1.426264    0.748605   -0.011521
      6          6           0       -2.589990    1.404506    0.163163
      7          7           0       -3.812601    0.856822    0.251553
      8          7           0       -2.518828    2.769785    0.227033
      9          6           0       -0.274807   -1.411790   -0.381297
     10          8           0       -0.404609   -2.555487   -0.818132
     11          7           0        0.955364   -0.900274   -0.109722
     12          6           0        1.405872    0.364945    0.471026
     13          6           0        1.685811    1.427694   -0.604319
     14          6           0        2.849137    0.991977   -1.501315
     15          6           0        4.070352    0.593760   -0.668564
     16          7           0        3.721426   -0.426854    0.323384
     17          6           0        2.698123    0.068390    1.241978
     18          6           0        4.894352   -0.913616    1.031874
     19          1           0       -5.211492   -2.177717    0.143753
     20          1           0       -5.729502   -0.804294    1.155180
     21          1           0       -5.887153   -0.706690   -0.596485
     22          1           0       -2.770838   -2.323510   -0.218747
     23          1           0       -3.329257    3.245821    0.594410
     24          1           0       -1.612791    3.170579    0.417719
     25          1           0        1.709994   -1.538013   -0.345346
     26          1           0        0.643856    0.728966    1.158943
     27          1           0        1.941515    2.369296   -0.096674
     28          1           0        0.774486    1.601410   -1.181619
     29          1           0        3.124989    1.796683   -2.192569
     30          1           0        2.539171    0.135070   -2.110673
     31          1           0        4.492356    1.492440   -0.171831
     32          1           0        4.855005    0.186072   -1.315847
     33          1           0        2.510442   -0.698839    2.000967
     34          1           0        3.026210    0.988110    1.766346
     35          1           0        5.410412   -0.121099    1.607569
     36          1           0        4.601890   -1.705771    1.728889
     37          1           0        5.608697   -1.333112    0.315817
 ---------------------------------------------------------------------

 SCF Done:  E(UB3LYP) =  -818.042398081     A.U. after   33 cycles
 SCF Done:  E(UB3LYP) =  -818.042398081     a.u. after    1 cycles

 The electronic state is 2-A.
 Alpha  occ. eigenvalues --  -18.92859 -14.21753 -14.20041 -14.18986 -14.14664
 Alpha  occ. eigenvalues --  -14.14538 -10.12554 -10.11259 -10.10264 -10.10035
 Alpha  occ. eigenvalues --  -10.09629 -10.09449 -10.07031 -10.06512 -10.05799
 Alpha  occ. eigenvalues --  -10.04794 -10.04433 -10.01658  -0.88531  -0.85269
 Alpha  occ. eigenvalues --   -0.84369  -0.78296  -0.76845  -0.73793  -0.69018
 Alpha  occ. eigenvalues --   -0.65112  -0.63696  -0.60285  -0.58739  -0.53314
 Alpha  occ. eigenvalues --   -0.52518  -0.51692  -0.49057  -0.47054  -0.43880
 Alpha  occ. eigenvalues --   -0.40994  -0.39825  -0.38543  -0.37877  -0.36298
 Alpha  occ. eigenvalues --   -0.35534  -0.34511  -0.33771  -0.32383  -0.31984
 Alpha  occ. eigenvalues --   -0.31264  -0.31036  -0.30106  -0.29124  -0.29003
 Alpha  occ. eigenvalues --   -0.28242  -0.27266  -0.26814  -0.25940  -0.25362
 Alpha  occ. eigenvalues --   -0.24724  -0.23571  -0.22241  -0.21856  -0.18514
 Alpha  occ. eigenvalues --   -0.16513  -0.16102  -0.13778  -0.11845  -0.11535
 Alpha  occ. eigenvalues --   -0.10015  -0.09421   0.04360
 Alpha virt. eigenvalues --    0.05717   0.07421   0.07831   0.08483   0.09033
 Alpha virt. eigenvalues --    0.09492   0.10247   0.10698   0.11136   0.11844
 Alpha virt. eigenvalues --    0.11957   0.12106   0.12843   0.13082   0.13292

  Beta  occ. eigenvalues --  -18.92620 -14.21752 -14.20049 -14.18933 -14.14404
  Beta  occ. eigenvalues --  -14.14214 -10.12599 -10.11143 -10.10258 -10.10014
  Beta  occ. eigenvalues --  -10.09622 -10.09451 -10.07030 -10.06307 -10.05796
  Beta  occ. eigenvalues --  -10.04454 -10.04402 -10.01719  -0.88138  -0.84962
  Beta  occ. eigenvalues --   -0.84347  -0.78129  -0.76654  -0.73143  -0.68992
  Beta  occ. eigenvalues --   -0.65064  -0.63359  -0.60258  -0.58441  -0.53271
  Beta  occ. eigenvalues --   -0.52318  -0.51384  -0.48933  -0.46930  -0.43753
  Beta  occ. eigenvalues --   -0.40795  -0.39751  -0.38471  -0.37800  -0.36266
  Beta  occ. eigenvalues --   -0.35482  -0.34341  -0.33687  -0.32261  -0.31862
  Beta  occ. eigenvalues --   -0.31047  -0.30515  -0.30055  -0.29071  -0.28937
  Beta  occ. eigenvalues --   -0.27672  -0.27199  -0.26667  -0.25478  -0.24997
  Beta  occ. eigenvalues --   -0.24543  -0.23393  -0.22018  -0.21825  -0.17875
  Beta  occ. eigenvalues --   -0.16124  -0.14227  -0.13610  -0.11449  -0.10940
  Beta  occ. eigenvalues --   -0.09589  -0.08580
  Beta virt. eigenvalues --    0.06036   0.07412   0.07832   0.08518   0.09023
  Beta virt. eigenvalues --    0.09523   0.10156   0.10257   0.10712   0.11149
  Beta virt. eigenvalues --    0.11887   0.11955   0.12138   0.12810   0.13085

 Mulliken charges and spin densities:
               1          2
     1  C   -0.596272  -0.043476
     2  C   -0.226255   0.128170
     3  C   -0.194718  -0.010294
     4  C   -0.010869   0.311579
     5  N   -0.118159   0.119848
     6  C    0.029918  -0.006815
     7  N   -0.205992   0.168736
     8  N   -0.279698  -0.001631
     9  C    0.097088  -0.011943
    10  O   -0.381311   0.085964
    11  N   -0.199259   0.023933
    12  C    0.003200   0.084051
    13  C   -0.163972  -0.041809
    14  C   -0.582857   0.019370
    15  C   -0.194582  -0.137486
    16  N   -0.045984   0.108560
    17  C   -0.619251  -0.093281
    18  C    0.276129  -0.568956
    19  H    0.125269  -0.000804
    20  H    0.117821   0.018037
    21  H    0.121001   0.020241
    22  H    0.200185   0.004694
    23  H    0.248020  -0.000303
    24  H    0.241485   0.000727
    25  H    0.346213  -0.003402
    26  H    0.280305   0.020049
    27  H    0.101954   0.005397
    28  H    0.215938  -0.001945
    29  H    0.129122   0.018092
    30  H    0.180721  -0.005898
    31  H    0.053462   0.045672
    32  H    0.072098   0.066387
    33  H    0.169789   0.011614
    34  H    0.055494   0.054925
    35  H   -0.183116   0.287340
    36  H   -0.016020   0.143800
    37  H   -0.046900   0.180861
 Sum of Mulliken charges =  -1.00000   1.00000

 Dipole moment (field-independent basis, Debye):
    X=              3.3707    Y=              4.3733    Z=              1.0577  Tot=              5.6219
 Quadrupole moment (field-independent basis, Debye-Ang):
   XX=           -177.9621   YY=           -132.3290   ZZ=           -122.4608
   XY=              2.7731   XZ=             -7.4013   YZ=             -2.3679

 Summary of Natural Population Analysis:

                                       Natural Population
                Natural  -----------------------------------------------
    Atom  No    Charge         Core      Valence    Rydberg      Total
 -----------------------------------------------------------------------
      C    1   -0.29736      0.99964     2.29287    0.00485     3.29736
      C    2    0.15235      0.99957     1.83611    0.01197     2.84765
      C    3   -0.16158      0.99947     2.15445    0.00766     3.16158
      C    4    0.15163      0.99950     1.83614    0.01273     2.84837
      N    5   -0.26000      0.99965     2.74953    0.01082     3.76000
      C    6    0.28584      0.99964     1.69702    0.01749     2.71416
      N    7   -0.25359      0.99963     2.74037    0.01358     3.75359
      N    8   -0.40507      0.99970     2.89588    0.00949     3.90507
      C    9    0.34651      0.99963     1.63294    0.02092     2.65349
      O   10   -0.31544      0.99988     3.30990    0.00565     4.31544
      N   11   -0.32098      0.99966     2.80983    0.01150     3.82098
      C   12   -0.01732      0.99958     2.00363    0.01411     3.01732
      C   13   -0.19259      0.99961     2.18590    0.00709     3.19259
      C   14   -0.19740      0.99963     2.19032    0.00745     3.19740
      C   15   -0.08409      0.99962     2.07221    0.01226     3.08409
      N   16   -0.28666      0.99971     2.77521    0.01174     3.78666
      C   17   -0.08600      0.99960     2.07468    0.01172     3.08600
      C   18   -0.17442      0.99965     2.16645    0.00832     3.17442
      H   19    0.09510      0.00000     0.40410    0.00080     0.40490
      H   20    0.10182      0.00000     0.39708    0.00110     0.39818
      H   21    0.10233      0.00000     0.39661    0.00106     0.39767
      H   22    0.11083      0.00000     0.38806    0.00112     0.38917
      H   23    0.18854      0.00000     0.31024    0.00123     0.31146
      H   24    0.18756      0.00000     0.31122    0.00122     0.31244
      H   25    0.19126      0.00000     0.30462    0.00411     0.30874
      H   26    0.11497      0.00000     0.38337    0.00166     0.38503
      H   27    0.08843      0.00000     0.41045    0.00112     0.41157
      H   28    0.11743      0.00000     0.38160    0.00098     0.38257
      H   29    0.09575      0.00000     0.40328    0.00097     0.40425
      H   30    0.10216      0.00000     0.39651    0.00133     0.39784
      H   31    0.07577      0.00000     0.42246    0.00177     0.42423
      H   32    0.09401      0.00000     0.40487    0.00112     0.40599
      H   33    0.09984      0.00000     0.39895    0.00122     0.40016
      H   34    0.08093      0.00000     0.41750    0.00157     0.41907
      H   35    0.07952      0.00000     0.41866    0.00182     0.42048
      H   36    0.09593      0.00000     0.40306    0.00101     0.40407
      H   37    0.09399      0.00000     0.40497    0.00103     0.40601
 =======================================================================
   * Total *   -0.00000     17.99336    48.78106    0.22557    67.00000

 Normal termination of Gaussian 16 at Fri Dec 11 21:57:59 2020.
