 Gaussian 16, Revision A.03,

 -----------------------------------------------------------
 # opt freq B3LYP/6-31G(d) empiricaldispersion=gd3bj scf=xqc
 -----------------------------------------------------------

 ------------------------------
 CID_83162335_JID_2456_neutraal
 ------------------------------
 Symbolic Z-matrix:
 Charge =  0 Multiplicity = 1

 SCF Done:  E(RB3LYP) =  -524.922367946     A.U. after   13 cycles
 SCF Done:  E(RB3LYP) =  -524.924847136     A.U. after   10 cycles
 SCF Done:  E(RB3LYP) =  -524.924713724     A.U. after   11 cycles
 SCF Done:  E(RB3LYP) =  -524.925379593     A.U. after   11 cycles
 SCF Done:  E(RB3LYP) =  -524.925390898     A.U. after   10 cycles
 SCF Done:  E(RB3LYP) =  -524.925583641     A.U. after   10 cycles
 SCF Done:  E(RB3LYP) =  -524.925694956     A.U. after   10 cycles
 SCF Done:  E(RB3LYP) =  -524.925616266     A.U. after   11 cycles
 SCF Done:  E(RB3LYP) =  -524.926355767     A.U. after   11 cycles
 SCF Done:  E(RB3LYP) =  -524.926255661     A.U. after   11 cycles
 SCF Done:  E(RB3LYP) =  -524.934178075     A.U. after   10 cycles
 SCF Done:  E(RB3LYP) =  -524.934272128     A.U. after    7 cycles
 SCF Done:  E(RB3LYP) =  -524.934317579     A.U. after   10 cycles
 SCF Done:  E(RB3LYP) =  -524.934320702     A.U. after    8 cycles
 SCF Done:  E(RB3LYP) =  -524.934321269     A.U. after    7 cycles
 SCF Done:  E(RB3LYP) =  -524.934321369     A.U. after    6 cycles
 Optimization completed.
    -- Stationary point found.
 Normal termination of Gaussian 16 at Wed Dec  9 17:50:53 2020.

 --------------------------------------------------------------------
 #N Geom=AllCheck Guess=TCheck SCRF=Check GenChk RB3LYP/6-31G(d) Freq
 --------------------------------------------------------------------

 Structure from the checkpoint file:  "JID_2456.chk"
 ------------------------------
 CID_83162335_JID_2456_neutraal
 ------------------------------
 Charge =  0 Multiplicity = 1

 SCF Done:  E(RB3LYP) =  -524.934321369     A.U. after    1 cycles

  Exact polarizability: 138.607  -3.353 108.267  -0.033  -0.320 104.455
 Approx polarizability: 158.752  -4.279 155.589  -0.454  -1.430 155.359

                      1                      2                      3
                      A                      A                      A
 Frequencies --     25.1130                48.9346                56.7022
 Red. masses --      3.1852                 3.1584                 2.6757
 Frc consts  --      0.0012                 0.0045                 0.0051
 IR Inten    --      0.3652                 0.5659                 0.1295

                      4                      5                      6
                      A                      A                      A
 Frequencies --     67.7581                98.2715               127.7311
 Red. masses --      2.6923                 3.2435                 3.2429
 Frc consts  --      0.0073                 0.0185                 0.0312
 IR Inten    --      0.1324                 0.3198                 2.6109

                      7                      8                      9
                      A                      A                      A
 Frequencies --    156.8643               195.9491               209.7178
 Red. masses --      2.3449                 1.8817                 1.9606
 Frc consts  --      0.0340                 0.0426                 0.0508
 IR Inten    --      0.9340                 1.2423                 1.8027

                     10                     11                     12
                      A                      A                      A
 Frequencies --    231.8629               254.7262               260.8995
 Red. masses --      1.0872                 1.3936                 1.3961
 Frc consts  --      0.0344                 0.0533                 0.0560
 IR Inten    --      0.0207                 5.8005                 0.2254

                     13                     14                     15
                      A                      A                      A
 Frequencies --    267.0540               315.4318               330.4374
 Red. masses --      1.1541                 2.1656                 2.3623
 Frc consts  --      0.0485                 0.1270                 0.1520
 IR Inten    --     38.6264                 4.3246                 4.1409

                     16                     17                     18
                      A                      A                      A
 Frequencies --    332.2973               377.4273               416.4806
 Red. masses --      2.0464                 2.1070                 2.3034
 Frc consts  --      0.1331                 0.1768                 0.2354
 IR Inten    --      2.1806                 0.7608                 4.6045

                     19                     20                     21
                      A                      A                      A
 Frequencies --    434.3250               439.1609               487.1123
 Red. masses --      2.1071                 2.8036                 2.6282
 Frc consts  --      0.2342                 0.3186                 0.3674
 IR Inten    --      0.9072                 3.3937                 1.3126

                     22                     23                     24
                      A                      A                      A
 Frequencies --    502.5466               604.1753               750.2486
 Red. masses --      2.4492                 2.0302                 1.8998
 Frc consts  --      0.3644                 0.4366                 0.6300
 IR Inten    --      2.4842                 4.9490                 6.7893

                     25                     26                     27
                      A                      A                      A
 Frequencies --    770.5966               812.6454               835.0800
 Red. masses --      2.8055                 1.1128                 1.7247
 Frc consts  --      0.9816                 0.4330                 0.7086
 IR Inten    --      1.0188                 2.3011                 3.8374

                     28                     29                     30
                      A                      A                      A
 Frequencies --    873.6826               896.4444               906.3445
 Red. masses --      1.8015                 2.3039                 1.7141
 Frc consts  --      0.8102                 1.0908                 0.8296
 IR Inten    --     83.7598                10.9827               100.4066

                     31                     32                     33
                      A                      A                      A
 Frequencies --    941.8628               949.5970               966.2870
 Red. masses --      1.2048                 1.9410                 1.5990
 Frc consts  --      0.6297                 1.0312                 0.8797
 IR Inten    --      0.2359                 5.3242                 8.2329

                     34                     35                     36
                      A                      A                      A
 Frequencies --    982.3542               986.3299              1021.2861
 Red. masses --      1.5018                 1.5835                 2.5875
 Frc consts  --      0.8539                 0.9077                 1.5901
 IR Inten    --      1.3346                 3.4366                12.6065

                     37                     38                     39
                      A                      A                      A
 Frequencies --   1042.7793              1069.2035              1098.8509
 Red. masses --      1.7172                 2.1850                 1.7046
 Frc consts  --      1.1002                 1.4717                 1.2127
 IR Inten    --      1.8090                 8.3406                23.7817

                     40                     41                     42
                      A                      A                      A
 Frequencies --   1105.2893              1127.4708              1152.1098
 Red. masses --      2.1807                 1.4110                 2.2959
 Frc consts  --      1.5696                 1.0568                 1.7955
 IR Inten    --     12.3874                 2.7537                10.0180

                     43                     44                     45
                      A                      A                      A
 Frequencies --   1171.8309              1177.4743              1205.4103
 Red. masses --      2.9174                 2.2122                 1.7936
 Frc consts  --      2.3604                 1.8071                 1.5355
 IR Inten    --    134.4852                 4.1813                55.2314

                     46                     47                     48
                      A                      A                      A
 Frequencies --   1209.2908              1233.6562              1240.4017
 Red. masses --      1.8161                 1.3543                 1.7130
 Frc consts  --      1.5648                 1.2144                 1.5528
 IR Inten    --     25.3449                 2.8106                 3.7660

                     49                     50                     51
                      A                      A                      A
 Frequencies --   1270.5080              1287.0455              1331.2343
 Red. masses --      1.3675                 1.2239                 1.2212
 Frc consts  --      1.3006                 1.1945                 1.2751
 IR Inten    --      2.2131                 0.9891                11.1339

                     52                     53                     54
                      A                      A                      A
 Frequencies --   1342.9397              1352.6507              1371.2858
 Red. masses --      1.1423                 1.2219                 1.3995
 Frc consts  --      1.2138                 1.3172                 1.5505
 IR Inten    --     10.3552                 3.7145                 6.1554

                     55                     56                     57
                      A                      A                      A
 Frequencies --   1388.5546              1399.3986              1410.2110
 Red. masses --      1.3855                 1.3610                 1.2719
 Frc consts  --      1.5739                 1.5704                 1.4903
 IR Inten    --      0.8207                 7.6843                12.3088

                     58                     59                     60
                      A                      A                      A
 Frequencies --   1419.3842              1423.3255              1428.1691
 Red. masses --      1.4265                 1.2429                 1.3473
 Frc consts  --      1.6933                 1.4835                 1.6191
 IR Inten    --      1.7474                 0.7897                 6.1584

                     61                     62                     63
                      A                      A                      A
 Frequencies --   1430.9857              1441.6209              1450.3000
 Red. masses --      1.2893                 1.2982                 1.2394
 Frc consts  --      1.5555                 1.5896                 1.5359
 IR Inten    --      5.7291                32.5567                 3.8282

                     64                     65                     66
                      A                      A                      A
 Frequencies --   1462.0684              1511.3201              1516.1319
 Red. masses --      1.5172                 1.0851                 1.0650
 Frc consts  --      1.9108                 1.4603                 1.4424
 IR Inten    --      1.8937                 4.7584                 0.1642

                     67                     68                     69
                      A                      A                      A
 Frequencies --   1518.3131              1518.9489              1520.0844
 Red. masses --      1.0545                 1.0568                 1.0540
 Frc consts  --      1.4322                 1.4365                 1.4350
 IR Inten    --      0.0518                 4.9872                 1.9829

                     70                     71                     72
                      A                      A                      A
 Frequencies --   1527.7329              1532.9855              1535.9593
 Red. masses --      1.0564                 1.0844                 1.0578
 Frc consts  --      1.4527                 1.5014                 1.4703
 IR Inten    --      7.1682                 5.3682                 1.2448

                     73                     74                     75
                      A                      A                      A
 Frequencies --   1538.3829              1544.8887              1557.3103
 Red. masses --      1.0711                 1.0580                 1.0835
 Frc consts  --      1.4936                 1.4878                 1.5483
 IR Inten    --      1.9767                 7.7843                 7.8221

                     76                     77                     78
                      A                      A                      A
 Frequencies --   1697.6410              2970.4297              2986.2466
 Red. masses --      1.0909                 1.0689                 1.0715
 Frc consts  --      1.8524                 5.5569                 5.6296
 IR Inten    --     24.5333                30.9829                67.8439

                     79                     80                     81
                      A                      A                      A
 Frequencies --   3014.9254              3025.6291              3031.4992
 Red. masses --      1.0610                 1.0799                 1.0724
 Frc consts  --      5.6823                 5.8245                 5.8064
 IR Inten    --     25.2835                 6.4553                21.5746

                     82                     83                     84
                      A                      A                      A
 Frequencies --   3035.5730              3040.5434              3042.2684
 Red. masses --      1.0359                 1.0798                 1.0417
 Frc consts  --      5.6240                 5.8817                 5.6807
 IR Inten    --     33.5056                 2.9125                12.5741

                     85                     86                     87
                      A                      A                      A
 Frequencies --   3044.1000              3053.4626              3054.2397
 Red. masses --      1.0786                 1.0553                 1.0759
 Frc consts  --      5.8886                 5.7969                 5.9133
 IR Inten    --     30.3004                34.7639                71.7453

                     88                     89                     90
                      A                      A                      A
 Frequencies --   3061.2709              3081.5548              3087.7968
 Red. masses --      1.0775                 1.0969                 1.0976
 Frc consts  --      5.9496                 6.1368                 6.1656
 IR Inten    --     73.3973                35.2165                64.6603

                     91                     92                     93
                      A                      A                      A
 Frequencies --   3089.7782              3098.9568              3103.5843
 Red. masses --      1.0929                 1.1014                 1.1015
 Frc consts  --      6.1472                 6.2321                 6.2512
 IR Inten    --     18.3949                21.5077                40.9793

                     94                     95                     96
                      A                      A                      A
 Frequencies --   3109.2206              3119.8843              3122.9374
 Red. masses --      1.1013                 1.1007                 1.1010
 Frc consts  --      6.2726                 6.3127                 6.3267
 IR Inten    --     66.6477                37.7217                39.0370

                     97                     98                     99
                      A                      A                      A
 Frequencies --   3133.8381              3483.1728              3569.1509
 Red. masses --      1.1035                 1.0498                 1.0912
 Frc consts  --      6.3852                 7.5043                 8.1899
 IR Inten    --     39.0602                 1.9881                 0.8683

 - Thermochemistry -
 -------------------
 Temperature   298.150 Kelvin.  Pressure   1.00000 Atm.
 Atom     1 has atomic number  6 and mass  12.00000

 Molecular mass:   173.17796 amu.
 Principal axes and moments of inertia in atomic units:
                           1         2         3
     Eigenvalues --  1023.728364919.147335114.92876
           X            0.99999   0.00077   0.00491
           Y           -0.00088   0.99977   0.02149
           Z           -0.00490  -0.02149   0.99976
 This molecule is an asymmetric top.
 Rotational symmetry number  1.
 Warning -- assumption of classical behavior for rotation
           may cause significant error
 Rotational temperatures (Kelvin)      0.08461     0.01761     0.01693
 Rotational constants (GHZ):           1.76291     0.36688     0.35284
 Zero-point vibrational energy     860455.6 (Joules/Mol)
                                  205.65383 (Kcal/Mol)
 Warning -- explicit consideration of  23 degrees of freedom as
           vibrations may cause significant error
 Vibrational temperatures:     36.13    70.41    81.58    97.49   141.39
          (Kelvin)            183.78   225.69   281.93   301.74   333.60
                              366.49   375.38   384.23   453.84   475.43
                              478.10   543.03   599.22   624.90   631.85
                              700.85   723.05   869.27  1079.44  1108.72
                             1169.22  1201.49  1257.03  1289.78  1304.03
                             1355.13  1366.26  1390.27  1413.39  1419.11
                             1469.40  1500.33  1538.35  1581.00  1590.26
                             1622.18  1657.63  1686.00  1694.12  1734.32
                             1739.90  1774.96  1784.66  1827.98  1851.77
                             1915.35  1932.19  1946.16  1972.97  1997.82
                             2013.42  2028.98  2042.18  2047.85  2054.82
                             2058.87  2074.17  2086.66  2103.59  2174.45
                             2181.38  2184.51  2185.43  2187.06  2198.07
                             2205.62  2209.90  2213.39  2222.75  2240.62
                             2442.53  4273.79  4296.54  4337.81  4353.21
                             4361.65  4367.51  4374.66  4377.15  4379.78
                             4393.25  4394.37  4404.49  4433.67  4442.65
                             4445.50  4458.71  4465.37  4473.47  4488.82
                             4493.21  4508.89  5011.51  5135.21

 Zero-point correction=                           0.327730 (Hartree/Particle)
 Thermal correction to Energy=                    0.343120
 Thermal correction to Enthalpy=                  0.344064
 Thermal correction to Gibbs Free Energy=         0.284608
 Sum of electronic and zero-point Energies=           -524.606591
 Sum of electronic and thermal Energies=              -524.591201
 Sum of electronic and thermal Enthalpies=            -524.590257
 Sum of electronic and thermal Free Energies=         -524.649713

                     E (Thermal)             CV                S
                      KCal/Mol        Cal/Mol-Kelvin    Cal/Mol-Kelvin
 Total                  215.311             56.598            125.136
 Electronic               0.000              0.000              0.000
 Translational            0.889              2.981             41.355
 Rotational               0.889              2.981             31.622
 Vibrational            213.534             50.636             52.160
 Vibration     1          0.593              1.985              6.182
 Vibration     2          0.595              1.978              4.860
 Vibration     3          0.596              1.975              4.569
 Vibration     4          0.598              1.970              4.217
 Vibration     5          0.604              1.950              3.488
 Vibration     6          0.611              1.925              2.980
 Vibration     7          0.621              1.895              2.587
 Vibration     8          0.636              1.846              2.171
 Vibration     9          0.642              1.826              2.046
 Vibration    10          0.653              1.792              1.864
 Vibration    11          0.665              1.755              1.698
 Vibration    12          0.669              1.744              1.656
 Vibration    13          0.672              1.734              1.615
 Vibration    14          0.703              1.644              1.334
 Vibration    15          0.713              1.615              1.258
 Vibration    16          0.714              1.611              1.249
 Vibration    17          0.748              1.518              1.049
 Vibration    18          0.780              1.434              0.904
 Vibration    19          0.795              1.395              0.845
 Vibration    20          0.799              1.385              0.829
 Vibration    21          0.843              1.279              0.691
 Vibration    22          0.858              1.244              0.652
 Vibration    23          0.963              1.023              0.443

 Optimization completed.
    -- Stationary point found.
 Normal termination of Gaussian 16 at Wed Dec  9 18:00:25 2020.

 ----------------------------------------------------------------------
 # B3LYP/6-311++G(d,p) empiricaldispersion=gd3bj scf=xqc pop=npa geom=c
 heck
 ----------------------------------------------------------------------

 --------------------------------------
 CID_83162335_JID_2456_Energie_neutraal
 --------------------------------------
 Structure from the checkpoint file:  "JID_2456.chk"
 Charge =  0 Multiplicity = 1

 SCF Done:  E(RB3LYP) =  -525.093597433     A.U. after   13 cycles
 Normal termination of Gaussian 16 at Wed Dec  9 18:05:20 2020.

 ----------------------------------------------------------------------
 # B3LYP/6-311++G(d,p) empiricaldispersion=gd3bj scf=xqc pop=npa geom=c
 heck
 ----------------------------------------------------------------------

 ------------------------------------
 CID_83162335_JID_2456_Energie_kation
 ------------------------------------
 Structure from the checkpoint file:  "JID_2456.chk"
 Charge =  1 Multiplicity = 2

 SCF Done:  E(UB3LYP) =  -524.772566541     A.U. after   24 cycles
 Normal termination of Gaussian 16 at Wed Dec  9 18:18:11 2020.
 Gaussian 16:  ES64L-G16RevA.03 25-Dec-2016

 ----------------------------------------------------------------------
 # B3LYP/6-311++G(d,p) empiricaldispersion=gd3bj scf=xqc pop=npa geom=c
 heck
 ----------------------------------------------------------------------

 -----------------------------------
 CID_83162335_JID_2456_Energie_anion
 -----------------------------------
 Structure from the checkpoint file:  "JID_2456.chk"
 Charge = -1 Multiplicity = 2

                         Standard orientation:
 ---------------------------------------------------------------------
 Center     Atomic      Atomic             Coordinates (Angstroms)
 Number     Number       Type             X           Y           Z
 ---------------------------------------------------------------------
      1          6           0        4.693733   -0.068581    0.705952
      2          6           0        3.491841   -0.971067    0.436286
      3          8           0        2.536750   -0.399037   -0.443501
      4          6           0        1.768191    0.644314    0.128242
      5          6           0        0.664921    1.035426   -0.854710
      6          6           0       -0.154279   -0.178931   -1.348499
      7          6           0       -0.661525   -1.176177   -0.292591
      8          6           0       -1.661132   -0.658273    0.754492
      9          6           0       -2.930971    0.015930    0.205140
     10          6           0       -3.730899   -0.920348   -0.708355
     11          6           0       -3.803241    0.525525    1.359088
     12          7           0       -0.083014    2.147215   -0.247563
     13          1           0        5.437881   -0.600059    1.310366
     14          1           0        4.408927    0.838458    1.248918
     15          1           0        5.162258    0.229430   -0.237864
     16          1           0        3.819035   -1.894092   -0.053846
     17          1           0        3.004689   -1.252369    1.385362
     18          1           0        1.327101    0.307210    1.083195
     19          1           0        2.376518    1.532098    0.345180
     20          1           0        1.164586    1.456774   -1.736801
     21          1           0       -0.994200    0.200626   -1.946990
     22          1           0        0.484321   -0.741465   -2.039111
     23          1           0       -1.119517   -2.018404   -0.826748
     24          1           0        0.205074   -1.599795    0.228750
     25          1           0       -1.968960   -1.506369    1.384056
     26          1           0       -1.157672    0.038554    1.439561
     27          1           0       -2.625023    0.887258   -0.390593
     28          1           0       -4.020701   -1.832512   -0.170464
     29          1           0       -4.648941   -0.435052   -1.059266
     30          1           0       -3.156090   -1.221596   -1.590179
     31          1           0       -3.250776    1.223326    2.000168
     32          1           0       -4.694215    1.044252    0.986758
     33          1           0       -4.141075   -0.307127    1.989402
     34          1           0       -0.754056    2.513462   -0.920055
     35          1           0       -0.631898    1.812268    0.540871
 ---------------------------------------------------------------------

 SCF Done:  E(UB3LYP) =  -525.077817138     A.U. after   27 cycles

 The electronic state is 2-A.
 Alpha  occ. eigenvalues --  -19.02763 -14.19563 -10.12226 -10.11406 -10.10041
 Alpha  occ. eigenvalues --  -10.07420 -10.06733 -10.06667 -10.06492 -10.06224
 Alpha  occ. eigenvalues --  -10.05934 -10.05829  -0.94143  -0.79267  -0.71748
 Alpha  occ. eigenvalues --   -0.67786  -0.65983  -0.61969  -0.58774  -0.58348
 Alpha  occ. eigenvalues --   -0.52803  -0.51115  -0.47642  -0.44417  -0.40955
 Alpha  occ. eigenvalues --   -0.40371  -0.38102  -0.36982  -0.36049  -0.35228
 Alpha  occ. eigenvalues --   -0.33756  -0.32898  -0.32343  -0.31092  -0.29457
 Alpha  occ. eigenvalues --   -0.28963  -0.28857  -0.28306  -0.27727  -0.26507
 Alpha  occ. eigenvalues --   -0.25536  -0.24583  -0.23675  -0.22532  -0.22208
 Alpha  occ. eigenvalues --   -0.21630  -0.20710  -0.16593  -0.14670   0.04389
 Alpha virt. eigenvalues --    0.05806   0.07191   0.07458   0.08085   0.08553
 Alpha virt. eigenvalues --    0.08798   0.09801   0.09979   0.10341   0.10797
 Alpha virt. eigenvalues --    0.11141   0.11674   0.12370   0.12743   0.13449

  Beta  occ. eigenvalues --  -19.02755 -14.19540 -10.12208 -10.11393 -10.10035
  Beta  occ. eigenvalues --  -10.07408 -10.06699 -10.06652 -10.06483 -10.06214
  Beta  occ. eigenvalues --  -10.05902 -10.05796  -0.94126  -0.79232  -0.71719
  Beta  occ. eigenvalues --   -0.67752  -0.65949  -0.61928  -0.58717  -0.58299
  Beta  occ. eigenvalues --   -0.52748  -0.51054  -0.47592  -0.44365  -0.40923
  Beta  occ. eigenvalues --   -0.40340  -0.38075  -0.36937  -0.36016  -0.35190
  Beta  occ. eigenvalues --   -0.33722  -0.32856  -0.32309  -0.31054  -0.29421
  Beta  occ. eigenvalues --   -0.28926  -0.28824  -0.28274  -0.27696  -0.26476
  Beta  occ. eigenvalues --   -0.25502  -0.24556  -0.23631  -0.22495  -0.22176
  Beta  occ. eigenvalues --   -0.21603  -0.20681  -0.16562  -0.14646
  Beta virt. eigenvalues --    0.06424   0.06896   0.07626   0.07862   0.08604
  Beta virt. eigenvalues --    0.08979   0.09172   0.10226   0.10491   0.10572
  Beta virt. eigenvalues --    0.11142   0.11313   0.12016   0.12670   0.12932

 Mulliken charges and spin densities:
               1          2
     1  C    0.746711  -1.238151
     2  C   -0.301377   0.271792
     3  O   -0.108686   0.051069
     4  C   -0.304422  -0.386916
     5  C    0.937244  -0.985996
     6  C   -0.950614   0.242230
     7  C    0.206849  -0.269922
     8  C    0.548502  -0.849144
     9  C   -1.376948   1.737425
    10  C    0.689001  -1.406511
    11  C    0.693077  -1.275213
    12  N   -0.316553   0.067791
    13  H   -0.560555   0.705701
    14  H   -0.261646   0.400092
    15  H    0.063342   0.079699
    16  H   -0.302758   0.461902
    17  H    0.100223  -0.012259
    18  H    0.028169   0.134520
    19  H    0.255981  -0.075943
    20  H    0.059014   0.126119
    21  H   -0.273109   0.454239
    22  H    0.148214   0.033402
    23  H   -0.015222   0.176933
    24  H    0.042418   0.134785
    25  H   -0.005254   0.159596
    26  H   -0.061423   0.186104
    27  H    0.269788  -0.125488
    28  H   -0.065750   0.204655
    29  H   -0.353380   0.498784
    30  H   -0.068296   0.191626
    31  H   -0.167900   0.292531
    32  H   -0.316981   0.459891
    33  H   -0.085171   0.214848
    34  H   -0.049778   0.295045
    35  H    0.157291   0.044765
 Sum of Mulliken charges =  -1.00000   1.00000

 Dipole moment (field-independent basis, Debye):
    X=              0.3762    Y=             -0.6605    Z=             -0.8249  Tot=              1.1217
 Quadrupole moment (field-independent basis, Debye-Ang):
   XX=           -186.4604   YY=           -117.5626   ZZ=           -114.7879
   XY=              7.7570   XZ=             -8.5782   YZ=             -0.5737

 Summary of Natural Population Analysis:

                                       Natural Population
                Natural  -----------------------------------------------
    Atom  No    Charge         Core      Valence    Rydberg      Total
 -----------------------------------------------------------------------
      C    1   -0.30134      0.99967     2.29685    0.00482     3.30134
      C    2   -0.00834      0.99960     1.99531    0.01343     3.00834
      O    3   -0.30272      0.99988     3.29398    0.00886     4.30272
      C    4   -0.01029      0.99954     1.99966    0.01109     3.01029
      C    5   -0.02129      0.99960     2.00858    0.01311     3.02129
      C    6   -0.19907      0.99960     2.19017    0.00930     3.19907
      C    7   -0.19392      0.99962     2.18597    0.00833     3.19392
      C    8   -0.18689      0.99961     2.17937    0.00791     3.18689
      C    9   -0.12095      0.99961     2.11133    0.01001     3.12095
      C   10   -0.28580      0.99965     2.27961    0.00655     3.28580
      C   11   -0.28198      0.99965     2.27598    0.00636     3.28198
      N   12   -0.42251      0.99977     2.91300    0.00974     3.92251
      H   13    0.10257      0.00000     0.39555    0.00188     0.39743
      H   14    0.09778      0.00000     0.40103    0.00119     0.40222
      H   15    0.09918      0.00000     0.39976    0.00106     0.40082
      H   16    0.08776      0.00000     0.41091    0.00133     0.41224
      H   17    0.07599      0.00000     0.42250    0.00150     0.42401
      H   18    0.07653      0.00000     0.42191    0.00156     0.42347
      H   19    0.08728      0.00000     0.41107    0.00165     0.41272
      H   20    0.09110      0.00000     0.40719    0.00171     0.40890
      H   21    0.09578      0.00000     0.40286    0.00136     0.40422
      H   22    0.10581      0.00000     0.39283    0.00137     0.39419
      H   23    0.09717      0.00000     0.40166    0.00117     0.40283
      H   24    0.10018      0.00000     0.39833    0.00148     0.39982
      H   25    0.09668      0.00000     0.40224    0.00108     0.40332
      H   26    0.09089      0.00000     0.40752    0.00159     0.40911
      H   27    0.09247      0.00000     0.40465    0.00288     0.40753
      H   28    0.09500      0.00000     0.40399    0.00100     0.40500
      H   29    0.10099      0.00000     0.39786    0.00115     0.39901
      H   30    0.09957      0.00000     0.39936    0.00107     0.40043
      H   31    0.09795      0.00000     0.40088    0.00117     0.40205
      H   32    0.10023      0.00000     0.39868    0.00109     0.39977
      H   33    0.09504      0.00000     0.40390    0.00106     0.40496
      H   34    0.17609      0.00000     0.32176    0.00215     0.32391
      H   35    0.17306      0.00000     0.32443    0.00251     0.32694
 =======================================================================
   * Total *    0.00000     11.99580    36.86069    0.14351    49.00000

 Normal termination of Gaussian 16 at Wed Dec  9 18:31:51 2020.
