 Gaussian 16, Revision A.03,

 -----------------------------------------------------------
 # opt freq B3LYP/6-31G(d) empiricaldispersion=gd3bj scf=xqc
 -----------------------------------------------------------

 -------------------------------
 CID_150896369_JID_8314_neutraal
 -------------------------------
 Symbolic Z-matrix:
 Charge =  0 Multiplicity = 1

 SCF Done:  E(RB3LYP) =  -819.145816560     A.U. after   15 cycles
 SCF Done:  E(RB3LYP) =  -819.151474028     A.U. after   14 cycles
 SCF Done:  E(RB3LYP) =  -819.155930944     A.U. after   14 cycles
 SCF Done:  E(RB3LYP) =  -819.156789819     A.U. after   13 cycles
 SCF Done:  E(RB3LYP) =  -819.158648846     A.U. after   14 cycles
 SCF Done:  E(RB3LYP) =  -819.158018757     A.U. after   13 cycles
 SCF Done:  E(RB3LYP) =  -819.159372872     A.U. after   13 cycles
 SCF Done:  E(RB3LYP) =  -819.160464556     A.U. after   12 cycles
 SCF Done:  E(RB3LYP) =  -819.160952222     A.U. after   11 cycles
 SCF Done:  E(RB3LYP) =  -819.161278300     A.U. after   11 cycles
 SCF Done:  E(RB3LYP) =  -819.161459667     A.U. after   11 cycles
 SCF Done:  E(RB3LYP) =  -819.161474548     A.U. after    9 cycles
 SCF Done:  E(RB3LYP) =  -819.161479624     A.U. after    9 cycles
 SCF Done:  E(RB3LYP) =  -819.161482168     A.U. after    8 cycles
 SCF Done:  E(RB3LYP) =  -819.161482653     A.U. after    8 cycles
 SCF Done:  E(RB3LYP) =  -819.161482765     A.U. after    7 cycles
 Optimization completed.
    -- Stationary point found.
 Normal termination of Gaussian 16 at Fri Dec 11 20:03:49 2020.

 --------------------------------------------------------------------
 #N Geom=AllCheck Guess=TCheck SCRF=Check GenChk RB3LYP/6-31G(d) Freq
 --------------------------------------------------------------------

 Structure from the checkpoint file:  "JID_8314.chk"
 -------------------------------
 CID_150896369_JID_8314_neutraal
 -------------------------------
 Charge =  0 Multiplicity = 1

 SCF Done:  E(RB3LYP) =  -819.161482765     A.U. after    1 cycles

  Exact polarizability: 236.217   2.831 190.409  -5.622   8.252  88.081
 Approx polarizability: 344.448   5.130 321.981 -13.987  20.044 137.993

                      1                      2                      3
                      A                      A                      A
 Frequencies --     43.8326                55.6825                78.3218
 Red. masses --      3.9459                 4.0236                 4.4395
 Frc consts  --      0.0045                 0.0074                 0.0160
 IR Inten    --      1.0482                 0.7369                 1.0849

                      4                      5                      6
                      A                      A                      A
 Frequencies --     98.4979               116.2856               123.8849
 Red. masses --      2.9875                 2.0527                 2.0902
 Frc consts  --      0.0171                 0.0164                 0.0189
 IR Inten    --      0.2282                 0.2086                 2.3745

                      7                      8                      9
                      A                      A                      A
 Frequencies --    137.0500               141.0831               167.2882
 Red. masses --      1.6270                 3.1880                 2.0232
 Frc consts  --      0.0180                 0.0374                 0.0334
 IR Inten    --      0.1346                 0.5926                 0.2780

                     10                     11                     12
                      A                      A                      A
 Frequencies --    202.0538               206.4669               217.1411
 Red. masses --      5.1724                 1.0743                 2.7899
 Frc consts  --      0.1244                 0.0270                 0.0775
 IR Inten    --      3.6807                 0.4355                 4.5638

                     13                     14                     15
                      A                      A                      A
 Frequencies --    265.2845               273.5258               287.2830
 Red. masses --      5.5383                 3.3454                 4.2739
 Frc consts  --      0.2296                 0.1475                 0.2078
 IR Inten    --      0.9133                 1.9930                11.2838

                     16                     17                     18
                      A                      A                      A
 Frequencies --    309.3434               320.0077               354.3742
 Red. masses --      4.2593                 3.9884                 4.0401
 Frc consts  --      0.2401                 0.2406                 0.2989
 IR Inten    --      2.4106                 2.7563                 1.0212

                     19                     20                     21
                      A                      A                      A
 Frequencies --    384.9682               461.6761               472.8708
 Red. masses --      4.7303                 4.3819                 5.3564
 Frc consts  --      0.4130                 0.5503                 0.7057
 IR Inten    --      2.8858                 5.4546                 9.8673

                     22                     23                     24
                      A                      A                      A
 Frequencies --    515.8771               542.7725               553.2126
 Red. masses --      3.5770                 3.2725                 4.1739
 Frc consts  --      0.5609                 0.5680                 0.7526
 IR Inten    --     16.1776                 8.2064                 3.0420

                     25                     26                     27
                      A                      A                      A
 Frequencies --    577.7897               580.3612               619.2827
 Red. masses --      2.0924                 2.4796                 1.3285
 Frc consts  --      0.4116                 0.4921                 0.3002
 IR Inten    --    105.7647                12.3866                92.4065

                     28                     29                     30
                      A                      A                      A
 Frequencies --    623.0861               649.4735               657.9323
 Red. masses --      3.1246                 1.7223                 4.0052
 Frc consts  --      0.7147                 0.4280                 1.0215
 IR Inten    --     20.4127                80.5230                21.4419

                     31                     32                     33
                      A                      A                      A
 Frequencies --    674.2422               687.4118               751.1706
 Red. masses --      2.5858                 2.7597                 4.8853
 Frc consts  --      0.6926                 0.7683                 1.6241
 IR Inten    --      2.4102                 1.2854                 3.3380

                     34                     35                     36
                      A                      A                      A
 Frequencies --    777.1517               782.8501               800.3206
 Red. masses --      7.0995                 6.8641                 4.4120
 Frc consts  --      2.5263                 2.4785                 1.6650
 IR Inten    --     10.6591                11.9825                 5.5349

                     37                     38                     39
                      A                      A                      A
 Frequencies --    822.6489               828.3773               917.3349
 Red. masses --      1.2424                 5.2470                 4.2504
 Frc consts  --      0.4954                 2.1214                 2.1073
 IR Inten    --     16.0020                31.5226               110.3499

                     40                     41                     42
                      A                      A                      A
 Frequencies --    926.4937               933.6372               979.8133
 Red. masses --      1.3078                 1.4991                 1.6722
 Frc consts  --      0.6614                 0.7699                 0.9458
 IR Inten    --      0.8574                10.5709                 1.6144

                     43                     44                     45
                      A                      A                      A
 Frequencies --   1010.1494              1064.2191              1072.8718
 Red. masses --      2.7700                 1.9215                 1.4998
 Frc consts  --      1.6653                 1.2822                 1.0171
 IR Inten    --      2.2335                17.2503                 2.4222

                     46                     47                     48
                      A                      A                      A
 Frequencies --   1077.0926              1097.0635              1135.4446
 Red. masses --      1.4828                 6.6489                 1.9613
 Frc consts  --      1.0135                 4.7148                 1.4898
 IR Inten    --      3.5888               191.6711                 2.4202

                     49                     50                     51
                      A                      A                      A
 Frequencies --   1148.7080              1164.8893              1185.7620
 Red. masses --      2.6531                 1.7684                 2.2421
 Frc consts  --      2.0627                 1.4138                 1.8574
 IR Inten    --      8.8224                24.3889                 3.6661

                     52                     53                     54
                      A                      A                      A
 Frequencies --   1190.9375              1225.8325              1251.2385
 Red. masses --      1.2911                 1.5514                 2.6480
 Frc consts  --      1.0789                 1.3735                 2.4426
 IR Inten    --      0.9960                 2.8707                25.3424

                     55                     56                     57
                      A                      A                      A
 Frequencies --   1298.1011              1322.3218              1335.1490
 Red. masses --      1.7737                 2.7496                 3.1051
 Frc consts  --      1.7610                 2.8326                 3.2613
 IR Inten    --      6.8245                 7.2653                35.9850

                     58                     59                     60
                      A                      A                      A
 Frequencies --   1381.7083              1390.9018              1412.2008
 Red. masses --      1.4931                 5.4163                 3.5402
 Frc consts  --      1.6794                 6.1737                 4.1598
 IR Inten    --      5.9486               145.3434                32.8844

                     61                     62                     63
                      A                      A                      A
 Frequencies --   1439.3443              1445.2001              1447.3470
 Red. masses --      2.3406                 1.2560                 1.7549
 Frc consts  --      2.8570                 1.5455                 2.1659
 IR Inten    --     74.8566                 0.0993                21.5305

                     64                     65                     66
                      A                      A                      A
 Frequencies --   1469.3582              1484.5279              1506.7150
 Red. masses --      4.5107                 1.1531                 1.0543
 Frc consts  --      5.7378                 1.4973                 1.4102
 IR Inten    --    112.7727                 3.3824                 4.0378

                     67                     68                     69
                      A                      A                      A
 Frequencies --   1513.2161              1516.4802              1523.7375
 Red. masses --      1.0435                 1.0487                 1.0862
 Frc consts  --      1.4078                 1.4210                 1.4859
 IR Inten    --      6.0561                 8.6807                 3.5063

                     70                     71                     72
                      A                      A                      A
 Frequencies --   1531.4620              1536.7040              1565.2833
 Red. masses --      1.1239                 1.0506                 4.0680
 Frc consts  --      1.5530                 1.4618                 5.8723
 IR Inten    --      6.8489                13.9225                25.8820

                     73                     74                     75
                      A                      A                      A
 Frequencies --   1575.5178              1643.1833              1663.5352
 Red. masses --      6.0072                 5.9791                 5.3205
 Frc consts  --      8.7855                 9.5117                 8.6750
 IR Inten    --     73.0412                 0.8615                10.2218

                     76                     77                     78
                      A                      A                      A
 Frequencies --   1676.5469              1706.1735              1762.1075
 Red. masses --      1.3891                 8.8779                 6.1084
 Frc consts  --      2.3005                15.2268                11.1748
 IR Inten    --    160.5020                50.8994               251.6270

                     79                     80                     81
                      A                      A                      A
 Frequencies --   3032.6777              3041.3823              3053.1540
 Red. masses --      1.0392                 1.0406                 1.0298
 Frc consts  --      5.6315                 5.6712                 5.6557
 IR Inten    --     38.1122                27.2223                83.8301

                     82                     83                     84
                      A                      A                      A
 Frequencies --   3078.6136              3096.7676              3125.2227
 Red. masses --      1.1008                 1.0960                 1.1080
 Frc consts  --      6.1469                 6.1929                 6.3762
 IR Inten    --     21.4507                18.3308                30.9034

                     85                     86                     87
                      A                      A                      A
 Frequencies --   3127.8407              3131.0205              3160.8935
 Red. masses --      1.1017                 1.0986                 1.1050
 Frc consts  --      6.3503                 6.3452                 6.5045
 IR Inten    --     21.9766                17.2831                16.3190

                     88                     89                     90
                      A                      A                      A
 Frequencies --   3177.1542              3180.0407              3193.9880
 Red. masses --      1.0871                 1.0866                 1.0935
 Frc consts  --      6.4652                 6.4744                 6.5723
 IR Inten    --     13.9490                10.3824                32.1688

                     91                     92                     93
                      A                      A                      A
 Frequencies --   3484.8861              3628.6478              3655.3940
 Red. masses --      1.0548                 1.0790                 1.0950
 Frc consts  --      7.5470                 8.3709                 8.6202
 IR Inten    --    183.4616               112.9108                98.7919

 - Thermochemistry -
 -------------------
 Temperature   298.150 Kelvin.  Pressure   1.00000 Atm.
 Atom     1 has atomic number  6 and mass  12.00000

 Molecular mass:   245.11643 amu.
 Principal axes and moments of inertia in atomic units:
                           1         2         3
     Eigenvalues --  2988.633435499.878517908.64054
           X            0.99974  -0.02249   0.00396
           Y            0.02246   0.99971   0.00906
           Z           -0.00416  -0.00897   0.99995
 This molecule is an asymmetric top.
 Rotational symmetry number  1.
 Warning -- assumption of classical behavior for rotation
           may cause significant error
 Rotational temperatures (Kelvin)      0.02898     0.01575     0.01095
 Rotational constants (GHZ):           0.60387     0.32814     0.22820
 Zero-point vibrational energy     704940.7 (Joules/Mol)
                                  168.48486 (Kcal/Mol)
 Warning -- explicit consideration of  27 degrees of freedom as
           vibrations may cause significant error
 Vibrational temperatures:     63.07    80.11   112.69   141.72   167.31
          (Kelvin)            178.24   197.18   202.99   240.69   290.71
                              297.06   312.42   381.69   393.54   413.34
                              445.08   460.42   509.87   553.88   664.25
                              680.36   742.23   780.93   795.95   831.31
                              835.01   891.01   896.48   934.45   946.62
                              970.08   989.03  1080.77  1118.15  1126.35
                             1151.48  1183.61  1191.85  1319.84  1333.02
                             1343.30  1409.73  1453.38  1531.17  1543.62
                             1549.70  1578.43  1633.65  1652.73  1676.02
                             1706.05  1713.49  1763.70  1800.25  1867.68
                             1902.53  1920.98  1987.97  2001.20  2031.84
                             2070.90  2079.32  2082.41  2114.08  2135.90
                             2167.83  2177.18  2181.88  2192.32  2203.43
                             2210.97  2252.09  2266.82  2364.17  2393.46
                             2412.18  2454.80  2535.28  4363.35  4375.87
                             4392.81  4429.44  4455.56  4496.50  4500.27
                             4504.84  4547.82  4571.22  4575.37  4595.44
                             5013.97  5220.81  5259.30

 Zero-point correction=                           0.268498 (Hartree/Particle)
 Thermal correction to Energy=                    0.285642
 Thermal correction to Enthalpy=                  0.286586
 Thermal correction to Gibbs Free Energy=         0.223931
 Sum of electronic and zero-point Energies=           -818.892985
 Sum of electronic and thermal Energies=              -818.875841
 Sum of electronic and thermal Enthalpies=            -818.874896
 Sum of electronic and thermal Free Energies=         -818.937552

                     E (Thermal)             CV                S
                      KCal/Mol        Cal/Mol-Kelvin    Cal/Mol-Kelvin
 Total                  179.243             65.002            131.870
 Electronic               0.000              0.000              0.000
 Translational            0.889              2.981             42.390
 Rotational               0.889              2.981             33.230
 Vibrational            177.466             59.041             56.250
 Vibration     1          0.595              1.980              5.078
 Vibration     2          0.596              1.975              4.605
 Vibration     3          0.600              1.964              3.932
 Vibration     4          0.604              1.950              3.484
 Vibration     5          0.608              1.936              3.161
 Vibration     6          0.610              1.929              3.039
 Vibration     7          0.614              1.916              2.845
 Vibration     8          0.615              1.912              2.789
 Vibration     9          0.624              1.883              2.466
 Vibration    10          0.639              1.837              2.114
 Vibration    11          0.641              1.831              2.075
 Vibration    12          0.646              1.815              1.983
 Vibration    13          0.671              1.737              1.627
 Vibration    14          0.676              1.722              1.574
 Vibration    15          0.684              1.697              1.490
 Vibration    16          0.699              1.656              1.366
 Vibration    17          0.706              1.635              1.310
 Vibration    18          0.730              1.566              1.147
 Vibration    19          0.754              1.502              1.020
 Vibration    20          0.819              1.335              0.761
 Vibration    21          0.830              1.310              0.730
 Vibration    22          0.871              1.215              0.620
 Vibration    23          0.898              1.156              0.559
 Vibration    24          0.909              1.133              0.538
 Vibration    25          0.934              1.079              0.489
 Vibration    26          0.937              1.074              0.485
 Vibration    27          0.979              0.991              0.418

                           ! Non-Optimized Parameters !
 Normal termination of Gaussian 16 at Fri Dec 11 20:16:20 2020.

 ----------------------------------------------------------------------
 # B3LYP/6-311++G(d,p) empiricaldispersion=gd3bj scf=xqc pop=npa geom=c
 heck
 ----------------------------------------------------------------------

 ---------------------------------------
 CID_150896369_JID_8314_Energie_neutraal
 ---------------------------------------
 Structure from the checkpoint file:  "JID_8314.chk"
 Charge =  0 Multiplicity = 1

 SCF Done:  E(RB3LYP) =  -819.390156766     A.U. after   16 cycles
 Normal termination of Gaussian 16 at Fri Dec 11 20:21:41 2020.

 ----------------------------------------------------------------------
 # B3LYP/6-311++G(d,p) empiricaldispersion=gd3bj scf=xqc pop=npa geom=c
 heck
 ----------------------------------------------------------------------

 -------------------------------------
 CID_150896369_JID_8314_Energie_kation
 -------------------------------------
 Structure from the checkpoint file:  "JID_8314.chk"
 Charge =  1 Multiplicity = 2

 SCF Done:  E(UB3LYP) =  -819.115125672     A.U. after   25 cycles
 Normal termination of Gaussian 16 at Fri Dec 11 20:33:03 2020.
 Gaussian 16:  ES64L-G16RevA.03 25-Dec-2016

 ----------------------------------------------------------------------
 # B3LYP/6-311++G(d,p) empiricaldispersion=gd3bj scf=xqc pop=npa geom=c
 heck
 ----------------------------------------------------------------------

 ------------------------------------
 CID_150896369_JID_8314_Energie_anion
 ------------------------------------
 Structure from the checkpoint file:  "JID_8314.chk"
 Charge = -1 Multiplicity = 2

                         Standard orientation:
 ---------------------------------------------------------------------
 Center     Atomic      Atomic             Coordinates (Angstroms)
 Number     Number       Type             X           Y           Z
 ---------------------------------------------------------------------
      1          6           0       -1.080819   -3.168521   -0.513318
      2          6           0       -1.713830   -1.829783   -0.229043
      3          6           0       -0.971849   -0.622226   -0.208681
      4          6           0        0.429380   -0.298452   -0.391013
      5          6           0        0.543099    1.081779   -0.214570
      6          7           0       -0.698669    1.592240    0.073218
      7          6           0       -1.640488    0.596739    0.086523
      8          6           0       -3.017991    0.692561    0.348089
      9          6           0       -3.714592   -0.505848    0.304516
     10          6           0       -3.075735   -1.732967    0.028145
     11          6           0       -3.661446    2.017796    0.655166
     12          6           0        1.589455    2.123890   -0.395242
     13          8           0        1.249071    3.309622   -0.410203
     14          7           0        2.870139    1.708842   -0.580388
     15          6           0        1.427959   -1.282926   -0.807877
     16          7           0        2.589054   -1.579322   -0.345703
     17          8           0        2.951907   -0.766501    0.751924
     18          6           0        4.131575   -1.309032    1.344379
     19          1           0       -1.778801   -3.979971   -0.286475
     20          1           0       -0.173950   -3.323557    0.081845
     21          1           0       -0.794689   -3.269877   -1.568159
     22          1           0       -0.831376    2.593444    0.131006
     23          1           0       -4.784260   -0.500429    0.498167
     24          1           0       -3.673455   -2.640783    0.021776
     25          1           0       -3.218350    2.484027    1.545197
     26          1           0       -3.541350    2.727774   -0.174153
     27          1           0       -4.733112    1.899931    0.838724
     28          1           0        3.150434    0.814749   -0.183787
     29          1           0        3.555096    2.453007   -0.594579
     30          1           0        1.151204   -1.937021   -1.632473
     31          1           0        3.929069   -2.299939    1.763785
     32          1           0        4.940956   -1.381917    0.610157
     33          1           0        4.402789   -0.614800    2.142870
 ---------------------------------------------------------------------

 SCF Done:  E(UB3LYP) =  -819.399004252     A.U. after   26 cycles

 The electronic state is 2-A.
 Alpha  occ. eigenvalues --  -19.04266 -18.93282 -14.21281 -14.20383 -14.17720
 Alpha  occ. eigenvalues --  -10.11393 -10.11280 -10.06864 -10.06825 -10.06041
 Alpha  occ. eigenvalues --  -10.04851 -10.04842 -10.04451 -10.04245 -10.03764
 Alpha  occ. eigenvalues --  -10.03661 -10.03300 -10.02877  -0.96219  -0.88806
 Alpha  occ. eigenvalues --   -0.83761  -0.75743  -0.74480  -0.71744  -0.67175
 Alpha  occ. eigenvalues --   -0.62880  -0.60264  -0.59792  -0.57737  -0.53554
 Alpha  occ. eigenvalues --   -0.50950  -0.48958  -0.46940  -0.43375  -0.42878
 Alpha  occ. eigenvalues --   -0.40342  -0.38350  -0.36578  -0.35228  -0.35036
 Alpha  occ. eigenvalues --   -0.34054  -0.33572  -0.32113  -0.31638  -0.30222
 Alpha  occ. eigenvalues --   -0.29093  -0.29046  -0.28849  -0.28151  -0.27525
 Alpha  occ. eigenvalues --   -0.27434  -0.26085  -0.25226  -0.25039  -0.24069
 Alpha  occ. eigenvalues --   -0.22324  -0.21215  -0.19631  -0.15720  -0.14946
 Alpha  occ. eigenvalues --   -0.13551  -0.12710  -0.11633  -0.09465  -0.07570
 Alpha  occ. eigenvalues --    0.04528
 Alpha virt. eigenvalues --    0.07678   0.08050   0.08748   0.09931   0.10228
 Alpha virt. eigenvalues --    0.10712   0.11122   0.11635   0.12046   0.12306
 Alpha virt. eigenvalues --    0.12533   0.13272   0.13938   0.14127   0.14813

  Beta  occ. eigenvalues --  -19.04231 -18.93028 -14.20943 -14.20245 -14.17636
  Beta  occ. eigenvalues --  -10.11392 -10.11091 -10.06876 -10.06797 -10.06051
  Beta  occ. eigenvalues --  -10.04852 -10.04500 -10.04310 -10.04086 -10.03803
  Beta  occ. eigenvalues --  -10.03622 -10.03299 -10.02775  -0.96024  -0.88336
  Beta  occ. eigenvalues --   -0.83497  -0.75479  -0.74119  -0.71545  -0.66952
  Beta  occ. eigenvalues --   -0.62654  -0.60184  -0.59436  -0.57646  -0.53454
  Beta  occ. eigenvalues --   -0.50288  -0.48692  -0.46833  -0.43142  -0.42712
  Beta  occ. eigenvalues --   -0.40212  -0.38208  -0.36463  -0.35070  -0.34887
  Beta  occ. eigenvalues --   -0.33901  -0.33411  -0.31853  -0.31410  -0.30028
  Beta  occ. eigenvalues --   -0.28997  -0.28697  -0.28394  -0.28050  -0.27277
  Beta  occ. eigenvalues --   -0.27104  -0.25665  -0.25148  -0.24304  -0.23571
  Beta  occ. eigenvalues --   -0.22187  -0.21098  -0.19006  -0.15125  -0.14458
  Beta  occ. eigenvalues --   -0.12747  -0.11855  -0.11265  -0.08671  -0.06222
  Beta virt. eigenvalues --    0.07626   0.07989   0.08701   0.09737   0.09932
  Beta virt. eigenvalues --    0.10188   0.11007   0.11449   0.11793   0.12149
  Beta virt. eigenvalues --    0.12356   0.12893   0.13493   0.13878   0.14255

 Mulliken charges and spin densities:
               1          2
     1  C   -0.461362  -0.008444
     2  C    0.396277   0.090143
     3  C    1.330507  -0.043358
     4  C    1.082433   0.118893
     5  C   -0.557066   0.249318
     6  N    0.028102   0.060249
     7  C   -0.438043  -0.028676
     8  C    0.324213   0.058889
     9  C   -0.409140   0.059575
    10  C   -0.988639   0.014515
    11  C   -0.684046  -0.011220
    12  C   -0.237771   0.088196
    13  O   -0.463590   0.095310
    14  N   -0.448104   0.035484
    15  C   -1.403105   0.030252
    16  N   -0.197328   0.138970
    17  O   -0.018556   0.008655
    18  C   -0.251243  -0.014398
    19  H    0.116731   0.013830
    20  H    0.169730   0.007162
    21  H    0.135948   0.004883
    22  H    0.292341  -0.004802
    23  H    0.086385  -0.002839
    24  H    0.071983   0.000116
    25  H    0.133392   0.015645
    26  H    0.134731   0.012399
    27  H    0.130230   0.000079
    28  H    0.312779  -0.003505
    29  H    0.272223  -0.001904
    30  H    0.171750  -0.002565
    31  H    0.128329  -0.001288
    32  H    0.116677   0.016770
    33  H    0.123233   0.003665
 Sum of Mulliken charges =  -1.00000   1.00000

 Dipole moment (field-independent basis, Debye):
    X=             -0.0562    Y=             -2.4524    Z=              1.7040  Tot=              2.9868
 Quadrupole moment (field-independent basis, Debye-Ang):
   XX=           -130.9546   YY=           -139.8163   ZZ=           -116.6745
   XY=             -5.5654   XZ=              5.9265   YZ=              2.4277

 Summary of Natural Population Analysis:

                                       Natural Population
                Natural  -----------------------------------------------
    Atom  No    Charge         Core      Valence    Rydberg      Total
 -----------------------------------------------------------------------
      C    1   -0.28830      0.99960     2.28383    0.00487     3.28830
      C    2    0.00498      0.99949     1.98652    0.00902     2.99502
      C    3   -0.05940      0.99949     2.04360    0.01631     3.05940
      C    4   -0.02793      0.99949     2.01383    0.01461     3.02793
      C    5    0.17159      0.99952     1.81371    0.01517     2.82841
      N    6   -0.26078      0.99965     2.74750    0.01363     3.76078
      C    7    0.07222      0.99946     1.91568    0.01264     2.92778
      C    8   -0.02357      0.99949     2.01413    0.00995     3.02357
      C    9   -0.10873      0.99954     2.09828    0.01091     3.10873
      C   10   -0.12119      0.99954     2.11210    0.00955     3.12119
      C   11   -0.27979      0.99960     2.27666    0.00353     3.27979
      C   12    0.32900      0.99971     1.64600    0.02529     2.67100
      O   13   -0.32863      0.99988     3.32195    0.00680     4.32863
      N   14   -0.39935      0.99969     2.88954    0.01012     3.89935
      C   15    0.02818      0.99969     1.94948    0.02265     2.97182
      N   16   -0.05781      0.99965     2.54256    0.01560     3.55781
      O   17   -0.23601      0.99989     3.22266    0.01346     4.23601
      C   18   -0.09501      0.99964     2.08620    0.00918     3.09501
      H   19    0.09343      0.00000     0.40539    0.00118     0.40657
      H   20    0.10613      0.00000     0.39269    0.00118     0.39387
      H   21    0.09753      0.00000     0.40115    0.00132     0.40247
      H   22    0.20777      0.00000     0.28963    0.00260     0.29223
      H   23    0.09161      0.00000     0.40781    0.00058     0.40839
      H   24    0.08799      0.00000     0.41028    0.00173     0.41201
      H   25    0.09692      0.00000     0.40115    0.00193     0.40308
      H   26    0.09653      0.00000     0.40155    0.00192     0.40347
      H   27    0.09771      0.00000     0.40178    0.00052     0.40229
      H   28    0.19930      0.00000     0.29712    0.00358     0.30070
      H   29    0.17875      0.00000     0.31811    0.00314     0.32125
      H   30    0.09109      0.00000     0.40742    0.00149     0.40891
      H   31    0.08138      0.00000     0.41735    0.00128     0.41862
      H   32    0.08016      0.00000     0.41744    0.00240     0.41984
      H   33    0.08485      0.00000     0.41432    0.00082     0.41515
 =======================================================================
   * Total *    0.01060     17.99302    46.74739    0.24898    64.98940

 Normal termination of Gaussian 16 at Fri Dec 11 20:44:55 2020.
