 Gaussian 16, Revision A.03,

 -----------------------------------------------------------
 # opt freq B3LYP/6-31G(d) empiricaldispersion=gd3bj scf=xqc
 -----------------------------------------------------------

 ------------------------------
 CID_60905765_JID_3326_neutraal
 ------------------------------
 Symbolic Z-matrix:
 Charge =  0 Multiplicity = 1

 SCF Done:  E(RB3LYP) =  -572.996883242     A.U. after   15 cycles
 SCF Done:  E(RB3LYP) =  -573.019295500     A.U. after   13 cycles
 SCF Done:  E(RB3LYP) =  -573.020279967     A.U. after   13 cycles
 SCF Done:  E(RB3LYP) =  -573.020443014     A.U. after   11 cycles
 SCF Done:  E(RB3LYP) =  -573.020511776     A.U. after   11 cycles
 SCF Done:  E(RB3LYP) =  -573.020550731     A.U. after   11 cycles
 SCF Done:  E(RB3LYP) =  -573.020576247     A.U. after   11 cycles
 SCF Done:  E(RB3LYP) =  -573.020585636     A.U. after   10 cycles
 SCF Done:  E(RB3LYP) =  -573.020586972     A.U. after    9 cycles
 SCF Done:  E(RB3LYP) =  -573.020587256     A.U. after    8 cycles
 SCF Done:  E(RB3LYP) =  -573.020587299     A.U. after    7 cycles
 Optimization completed.
    -- Stationary point found.
 Normal termination of Gaussian 16 at Wed Dec  9 22:53:09 2020.

 --------------------------------------------------------------------
 #N Geom=AllCheck Guess=TCheck SCRF=Check GenChk RB3LYP/6-31G(d) Freq
 --------------------------------------------------------------------

 Structure from the checkpoint file:  "JID_3326.chk"
 ------------------------------
 CID_60905765_JID_3326_neutraal
 ------------------------------
 Charge =  0 Multiplicity = 1

 SCF Done:  E(RB3LYP) =  -573.020587299     A.U. after    1 cycles

  Exact polarizability: 155.507  -3.689 109.503  -9.692  -3.115  78.749
 Approx polarizability: 204.660  -5.483 189.849 -18.388 -11.967 123.266

                      1                      2                      3
                      A                      A                      A
 Frequencies --     30.4815                44.0007                74.9949
 Red. masses --      4.9609                 4.9446                 5.8901
 Frc consts  --      0.0027                 0.0056                 0.0195
 IR Inten    --      0.7918                 0.9363                 0.3190

                      4                      5                      6
                      A                      A                      A
 Frequencies --     77.0736               130.9259               187.0364
 Red. masses --      4.4607                 2.9181                 3.4053
 Frc consts  --      0.0156                 0.0295                 0.0702
 IR Inten    --      4.4048                 9.4253                 5.6499

                      7                      8                      9
                      A                      A                      A
 Frequencies --    222.5039               240.6652               292.7320
 Red. masses --      5.4662                 3.2830                 1.2016
 Frc consts  --      0.1594                 0.1120                 0.0607
 IR Inten    --      3.8807                 0.6871                98.0967

                     10                     11                     12
                      A                      A                      A
 Frequencies --    323.5125               368.2657               388.6696
 Red. masses --      4.4774                 3.3265                 3.8132
 Frc consts  --      0.2761                 0.2658                 0.3394
 IR Inten    --      2.2304                 0.5282                 2.1625

                     13                     14                     15
                      A                      A                      A
 Frequencies --    397.4449               427.4590               470.3116
 Red. masses --      2.7328                 3.0734                 2.8625
 Frc consts  --      0.2543                 0.3309                 0.3730
 IR Inten    --      7.1464                 0.2281                 7.4836

                     16                     17                     18
                      A                      A                      A
 Frequencies --    499.2597               573.3815               623.1753
 Red. masses --      3.9501                 2.4383                 6.9031
 Frc consts  --      0.5801                 0.4723                 1.5795
 IR Inten    --      5.3321                10.5599                 3.4648

                     19                     20                     21
                      A                      A                      A
 Frequencies --    664.1524               711.3382               738.3707
 Red. masses --      6.5515                 3.9000                 3.4965
 Frc consts  --      1.7026                 1.1627                 1.1232
 IR Inten    --      2.4402                 6.6631                 3.8544

                     22                     23                     24
                      A                      A                      A
 Frequencies --    820.3125               831.2565               842.0282
 Red. masses --      1.3275                 4.4663                 1.4656
 Frc consts  --      0.5263                 1.8183                 0.6122
 IR Inten    --     17.4014                 5.4174                30.1079

                     25                     26                     27
                      A                      A                      A
 Frequencies --    873.6573               899.9272               915.4372
 Red. masses --      1.7760                 1.4210                 5.1576
 Frc consts  --      0.7987                 0.6780                 2.5466
 IR Inten    --     64.2338                44.3685                19.0602

                     28                     29                     30
                      A                      A                      A
 Frequencies --    930.8768               949.6212               960.7209
 Red. masses --      2.0777                 1.3328                 1.3049
 Frc consts  --      1.0607                 0.7081                 0.7096
 IR Inten    --      2.5521                 2.0399                 0.3087

                     31                     32                     33
                      A                      A                      A
 Frequencies --   1036.4976              1050.4298              1062.7057
 Red. masses --      2.7362                 1.8981                 1.9598
 Frc consts  --      1.7320                 1.2340                 1.3040
 IR Inten    --      0.6084                 5.1238                11.1904

                     34                     35                     36
                      A                      A                      A
 Frequencies --   1090.1259              1117.5300              1151.9655
 Red. masses --      5.6268                 1.9509                 1.3234
 Frc consts  --      3.9397                 1.4355                 1.0347
 IR Inten    --     75.0055                 6.1902                13.2189

                     37                     38                     39
                      A                      A                      A
 Frequencies --   1177.4391              1217.7120              1227.3900
 Red. masses --      1.3275                 1.1892                 1.3417
 Frc consts  --      1.0843                 1.0389                 1.1908
 IR Inten    --      1.4100                27.6405                 1.7380

                     40                     41                     42
                      A                      A                      A
 Frequencies --   1242.2198              1263.4542              1311.9736
 Red. masses --      2.1433                 2.8502                 1.3347
 Frc consts  --      1.9486                 2.6807                 1.3536
 IR Inten    --      8.7696               216.5848                65.5443

                     43                     44                     45
                      A                      A                      A
 Frequencies --   1351.8381              1357.3519              1373.2802
 Red. masses --      1.2562                 1.6550                 2.0463
 Frc consts  --      1.3526                 1.7965                 2.2737
 IR Inten    --      7.5614                14.7521                 9.7818

                     46                     47                     48
                      A                      A                      A
 Frequencies --   1382.0001              1415.9801              1438.8917
 Red. masses --      1.6138                 1.3054                 1.4037
 Frc consts  --      1.8160                 1.5421                 1.7123
 IR Inten    --     15.8994                 8.0031                18.8498

                     49                     50                     51
                      A                      A                      A
 Frequencies --   1472.1760              1505.1799              1511.1788
 Red. masses --      2.7464                 1.0866                 1.1080
 Frc consts  --      3.5069                 1.4505                 1.4908
 IR Inten    --      1.1714                11.1115                 5.2844

                     52                     53                     54
                      A                      A                      A
 Frequencies --   1538.8237              1563.9856              1642.2400
 Red. masses --      1.0925                 2.4849                 6.5277
 Frc consts  --      1.5242                 3.5812                10.3725
 IR Inten    --      1.9889               119.5882                 8.0889

                     55                     56                     57
                      A                      A                      A
 Frequencies --   1674.5774              1694.2692              2372.4839
 Red. masses --      5.4364                 1.1059                12.5883
 Frc consts  --      8.9819                 1.8703                41.7467
 IR Inten    --     36.1192                34.6329                 0.0742

                     58                     59                     60
                      A                      A                      A
 Frequencies --   2952.0367              3044.1088              3053.1452
 Red. masses --      1.0733                 1.0672                 1.0629
 Frc consts  --      5.5107                 5.8264                 5.8378
 IR Inten    --     74.0264                23.0212                17.6642

                     61                     62                     63
                      A                      A                      A
 Frequencies --   3074.6737              3103.6545              3125.6411
 Red. masses --      1.0873                 1.1030                 1.0960
 Frc consts  --      6.0559                 6.2601                 6.3088
 IR Inten    --     72.5996                21.0080                 5.2378

                     64                     65                     66
                      A                      A                      A
 Frequencies --   3182.8896              3198.4457              3217.6631
 Red. masses --      1.0888                 1.0891                 1.0931
 Frc consts  --      6.4991                 6.5646                 6.6682
 IR Inten    --     14.7381                 8.8109                 6.4428

                     67                     68                     69
                      A                      A                      A
 Frequencies --   3227.4771              3468.0039              3552.5845
 Red. masses --      1.0920                 1.0498                 1.0920
 Frc consts  --      6.7018                 7.4392                 8.1204
 IR Inten    --      9.2703                 2.3268                 0.1458

 - Thermochemistry -
 -------------------
 Temperature   298.150 Kelvin.  Pressure   1.00000 Atm.
 Atom     1 has atomic number  6 and mass  12.00000

 Molecular mass:   176.09496 amu.
 Principal axes and moments of inertia in atomic units:
                           1         2         3
     Eigenvalues --   961.272224922.333095247.21882
           X            0.99996   0.00479  -0.00698
           Y           -0.00449   0.99907   0.04293
           Z            0.00718  -0.04290   0.99905
 This molecule is an asymmetric top.
 Rotational symmetry number  1.
 Warning -- assumption of classical behavior for rotation
           may cause significant error
 Rotational temperatures (Kelvin)      0.09010     0.01760     0.01651
 Rotational constants (GHZ):           1.87745     0.36664     0.34394
 Zero-point vibrational energy     544023.4 (Joules/Mol)
                                  130.02472 (Kcal/Mol)
 Warning -- explicit consideration of  17 degrees of freedom as
           vibrations may cause significant error
 Vibrational temperatures:     43.86    63.31   107.90   110.89   188.37
          (Kelvin)            269.10   320.13   346.26   421.18   465.46
                              529.85   559.21   571.83   615.02   676.67
                              718.32   824.97   896.61   955.57  1023.46
                             1062.35  1180.25  1195.99  1211.49  1257.00
                             1294.79  1317.11  1339.32  1366.29  1382.26
                             1491.29  1511.33  1529.00  1568.45  1607.88
                             1657.42  1694.07  1752.02  1765.94  1787.28
                             1817.83  1887.64  1944.99  1952.93  1975.84
                             1988.39  2037.28  2070.24  2118.13  2165.62
                             2174.25  2214.02  2250.23  2362.82  2409.34
                             2437.68  3413.48  4247.32  4379.79  4392.79
                             4423.77  4465.47  4497.10  4579.47  4601.85
                             4629.50  4643.62  4989.68  5111.38

 Zero-point correction=                           0.207208 (Hartree/Particle)
 Thermal correction to Energy=                    0.219654
 Thermal correction to Enthalpy=                  0.220598
 Thermal correction to Gibbs Free Energy=         0.167008
 Sum of electronic and zero-point Energies=           -572.813380
 Sum of electronic and thermal Energies=              -572.800933
 Sum of electronic and thermal Enthalpies=            -572.799989
 Sum of electronic and thermal Free Energies=         -572.853579

                     E (Thermal)             CV                S
                      KCal/Mol        Cal/Mol-Kelvin    Cal/Mol-Kelvin
 Total                  137.835             46.201            112.789
 Electronic               0.000              0.000              0.000
 Translational            0.889              2.981             41.405
 Rotational               0.889              2.981             31.585
 Vibrational            136.057             40.240             39.799
 Vibration     1          0.594              1.984              5.798
 Vibration     2          0.595              1.980              5.070
 Vibration     3          0.599              1.966              4.018
 Vibration     4          0.599              1.964              3.964
 Vibration     5          0.612              1.922              2.932
 Vibration     6          0.632              1.858              2.257
 Vibration     7          0.648              1.807              1.939
 Vibration     8          0.658              1.778              1.798
 Vibration     9          0.688              1.687              1.458
 Vibration    10          0.708              1.628              1.292
 Vibration    11          0.741              1.537              1.087
 Vibration    12          0.757              1.494              1.005
 Vibration    13          0.764              1.476              0.972
 Vibration    14          0.789              1.410              0.867
 Vibration    15          0.827              1.316              0.737
 Vibration    16          0.855              1.252              0.660
 Vibration    17          0.930              1.089              0.498

 Optimization completed.
    -- Stationary point found.
 Normal termination of Gaussian 16 at Wed Dec  9 22:58:24 2020.

 ----------------------------------------------------------------------
 # B3LYP/6-311++G(d,p) empiricaldispersion=gd3bj scf=xqc pop=npa geom=c
 heck
 ----------------------------------------------------------------------

 --------------------------------------
 CID_60905765_JID_3326_Energie_neutraal
 --------------------------------------
 Structure from the checkpoint file:  "JID_3326.chk"
 Charge =  0 Multiplicity = 1

 SCF Done:  E(RB3LYP) =  -573.185531065     A.U. after   15 cycles
 Normal termination of Gaussian 16 at Wed Dec  9 23:00:22 2020.

 ----------------------------------------------------------------------
 # B3LYP/6-311++G(d,p) empiricaldispersion=gd3bj scf=xqc pop=npa geom=c
 heck
 ----------------------------------------------------------------------

 ------------------------------------
 CID_60905765_JID_3326_Energie_kation
 ------------------------------------
 Structure from the checkpoint file:  "JID_3326.chk"
 Charge =  1 Multiplicity = 2

 SCF Done:  E(UB3LYP) =  -572.882991649     A.U. after   25 cycles
 Normal termination of Gaussian 16 at Wed Dec  9 23:04:46 2020.
 Gaussian 16:  ES64L-G16RevA.03 25-Dec-2016

 ----------------------------------------------------------------------
 # B3LYP/6-311++G(d,p) empiricaldispersion=gd3bj scf=xqc pop=npa geom=c
 heck
 ----------------------------------------------------------------------

 -----------------------------------
 CID_60905765_JID_3326_Energie_anion
 -----------------------------------
 Structure from the checkpoint file:  "JID_3326.chk"
 Charge = -1 Multiplicity = 2

                         Standard orientation:
 ---------------------------------------------------------------------
 Center     Atomic      Atomic             Coordinates (Angstroms)
 Number     Number       Type             X           Y           Z
 ---------------------------------------------------------------------
      1          6           0       -1.084228    1.498680    0.457590
      2          6           0        0.222114    1.751999    0.059613
      3          6           0        1.091601    0.684893   -0.186482
      4          6           0        0.650194   -0.628861   -0.027465
      5          6           0       -0.668849   -0.861323    0.373600
      6          6           0       -1.557303    0.187887    0.622744
      7          6           0       -2.994961   -0.077973    1.003380
      8          6           0       -3.926210   -0.126835   -0.219585
      9          7           0       -3.554204   -1.236713   -1.100023
     10          8           0        2.364408    1.046595   -0.581058
     11          6           0        3.259575    0.026774   -0.963350
     12          6           0        3.785025   -0.745632    0.180602
     13          7           0        4.199602   -1.353585    1.077145
     14          1           0       -1.752104    2.335304    0.648273
     15          1           0        0.590886    2.765006   -0.063989
     16          1           0        1.310656   -1.474144   -0.181072
     17          1           0       -1.009626   -1.885230    0.497764
     18          1           0       -3.071974   -1.035299    1.529969
     19          1           0       -3.351390    0.704869    1.684030
     20          1           0       -4.952538   -0.299668    0.125768
     21          1           0       -3.913715    0.863102   -0.711625
     22          1           0       -4.203384   -1.287790   -1.882957
     23          1           0       -2.636339   -1.049805   -1.501568
     24          1           0        2.800921   -0.666035   -1.681864
     25          1           0        4.093803    0.531358   -1.458008
 ---------------------------------------------------------------------

 SCF Done:  E(UB3LYP) =  -573.175697370     A.U. after   33 cycles
 SCF Done:  E(UB3LYP) =  -573.175697370     a.u. after    1 cycles

 The electronic state is 2-A.
 Alpha  occ. eigenvalues --  -19.07913 -14.23416 -14.19686 -10.18029 -10.14824
 Alpha  occ. eigenvalues --  -10.12958 -10.09843 -10.08709 -10.08676 -10.08593
 Alpha  occ. eigenvalues --  -10.08461 -10.08426 -10.07831  -0.99562  -0.82743
 Alpha  occ. eigenvalues --   -0.79192  -0.76925  -0.70050  -0.66960  -0.65709
 Alpha  occ. eigenvalues --   -0.61152  -0.53439  -0.52867  -0.49157  -0.47007
 Alpha  occ. eigenvalues --   -0.43883  -0.41747  -0.40144  -0.38286  -0.37557
 Alpha  occ. eigenvalues --   -0.36496  -0.34395  -0.33493  -0.31635  -0.30791
 Alpha  occ. eigenvalues --   -0.29825  -0.29111  -0.28187  -0.27336  -0.26228
 Alpha  occ. eigenvalues --   -0.25039  -0.24726  -0.24234  -0.23744  -0.16929
 Alpha  occ. eigenvalues --   -0.15197  -0.13731   0.04001
 Alpha virt. eigenvalues --    0.05570   0.06932   0.07048   0.07663   0.07868
 Alpha virt. eigenvalues --    0.08332   0.08943   0.09126   0.10165   0.10452
 Alpha virt. eigenvalues --    0.11037   0.11453   0.12026   0.12471   0.13207

  Beta  occ. eigenvalues --  -19.07910 -14.23405 -14.19658 -10.17957 -10.14817
  Beta  occ. eigenvalues --  -10.12952 -10.09814 -10.08696 -10.08669 -10.08581
  Beta  occ. eigenvalues --  -10.08445 -10.08418 -10.07823  -0.99550  -0.82712
  Beta  occ. eigenvalues --   -0.79147  -0.76897  -0.69992  -0.66909  -0.65655
  Beta  occ. eigenvalues --   -0.61095  -0.53384  -0.52824  -0.49112  -0.46972
  Beta  occ. eigenvalues --   -0.43787  -0.41696  -0.40095  -0.38246  -0.37505
  Beta  occ. eigenvalues --   -0.36453  -0.34359  -0.33463  -0.31599  -0.30750
  Beta  occ. eigenvalues --   -0.29790  -0.29078  -0.28154  -0.27307  -0.26192
  Beta  occ. eigenvalues --   -0.25013  -0.24695  -0.24197  -0.23707  -0.16882
  Beta  occ. eigenvalues --   -0.15161  -0.13692
  Beta virt. eigenvalues --    0.06232   0.07015   0.07054   0.07656   0.07948
  Beta virt. eigenvalues --    0.08162   0.08833   0.09190   0.09624   0.10578
  Beta virt. eigenvalues --    0.10771   0.11286   0.11708   0.12330   0.12685

 Mulliken charges and spin densities:
               1          2
     1  C   -0.074211  -0.180048
     2  C   -1.039545   0.739465
     3  C   -0.169169  -0.435966
     4  C    1.199811  -1.003385
     5  C   -0.844781   0.450765
     6  C    0.903823  -0.024974
     7  C   -0.126376  -0.301540
     8  C    1.280376  -1.741502
     9  N   -0.552666   0.136243
    10  O   -0.075871   0.045801
    11  C    0.740378  -1.071407
    12  C    0.655801  -0.387795
    13  N   -0.365177   0.025945
    14  H   -0.283436   0.445562
    15  H   -0.162872   0.351176
    16  H   -0.014412   0.192832
    17  H   -0.013655   0.209815
    18  H    0.096159   0.050029
    19  H   -0.083911   0.235713
    20  H   -0.333769   0.479359
    21  H   -0.270054   0.397114
    22  H   -0.065427   0.308604
    23  H    0.128404   0.097531
    24  H   -0.491914   0.704821
    25  H   -1.037505   1.275842
 Sum of Mulliken charges =  -1.00000   1.00000

 Dipole moment (field-independent basis, Debye):
    X=             -1.7766    Y=              0.6578    Z=              2.6599  Tot=              3.2656
 Quadrupole moment (field-independent basis, Debye-Ang):
   XX=           -178.6743   YY=           -110.8005   ZZ=           -113.3271
   XY=              1.1489   XZ=              1.0831   YZ=              0.7216

 Summary of Natural Population Analysis:

                                       Natural Population
                Natural  -----------------------------------------------
    Atom  No    Charge         Core      Valence    Rydberg      Total
 -----------------------------------------------------------------------
      C    1   -0.10546      0.99954     2.09191    0.01401     3.10546
      C    2   -0.11478      0.99952     2.10512    0.01014     3.11478
      C    3    0.15508      0.99936     1.83174    0.01382     2.84492
      C    4   -0.13893      0.99951     2.13038    0.00903     3.13893
      C    5   -0.10402      0.99955     2.09051    0.01397     3.10402
      C    6    0.01080      0.99950     1.98292    0.00678     2.98920
      C    7   -0.21028      0.99961     2.19652    0.01415     3.21028
      C    8   -0.08365      0.99964     2.07263    0.01139     3.08365
      N    9   -0.42607      0.99977     2.91550    0.01079     3.92607
      O   10   -0.26780      0.99986     3.25711    0.01083     4.26780
      C   11   -0.06406      0.99948     2.04982    0.01477     3.06406
      C   12    0.14464      0.99965     1.84028    0.01543     2.85536
      N   13   -0.17348      0.99979     2.66194    0.01175     3.67348
      H   14    0.10147      0.00000     0.39740    0.00113     0.39853
      H   15    0.10727      0.00000     0.39160    0.00113     0.39273
      H   16    0.10736      0.00000     0.39081    0.00183     0.39264
      H   17    0.10459      0.00000     0.39431    0.00110     0.39541
      H   18    0.10229      0.00000     0.39641    0.00130     0.39771
      H   19    0.10222      0.00000     0.39671    0.00106     0.39778
      H   20    0.09032      0.00000     0.40797    0.00171     0.40968
      H   21    0.07857      0.00000     0.41915    0.00228     0.42143
      H   22    0.17623      0.00000     0.32183    0.00195     0.32377
      H   23    0.17610      0.00000     0.32162    0.00228     0.32390
      H   24    0.11123      0.00000     0.38386    0.00491     0.38877
      H   25    0.12045      0.00000     0.37458    0.00497     0.37955
 =======================================================================
   * Total *    0.00009     12.99478    33.82261    0.18252    46.99991

 Normal termination of Gaussian 16 at Wed Dec  9 23:10:32 2020.
