 Gaussian 16, Revision A.03,

 -----------------------------------------------------------
 # opt freq B3LYP/6-31G(d) empiricaldispersion=gd3bj scf=xqc
 -----------------------------------------------------------

 -------------------------------
 CID_115232154_JID_8434_neutraal
 -------------------------------
 Symbolic Z-matrix:
 Charge =  0 Multiplicity = 1

 SCF Done:  E(RB3LYP) =  -769.581010889     A.U. after   16 cycles
 SCF Done:  E(RB3LYP) =  -769.604683337     A.U. after   13 cycles
 SCF Done:  E(RB3LYP) =  -769.606391457     A.U. after   13 cycles
 SCF Done:  E(RB3LYP) =  -769.607603479     A.U. after   14 cycles
 SCF Done:  E(RB3LYP) =  -769.607887443     A.U. after   14 cycles
 SCF Done:  E(RB3LYP) =  -769.609203042     A.U. after   13 cycles
 SCF Done:  E(RB3LYP) =  -769.611046083     A.U. after   13 cycles
 SCF Done:  E(RB3LYP) =  -769.612233693     A.U. after   13 cycles
 SCF Done:  E(RB3LYP) =  -769.611717180     A.U. after   14 cycles
 SCF Done:  E(RB3LYP) =  -769.611759016     A.U. after   13 cycles
 SCF Done:  E(RB3LYP) =  -769.615217152     A.U. after   10 cycles
 SCF Done:  E(RB3LYP) =  -769.615218935     A.U. after    8 cycles
 SCF Done:  E(RB3LYP) =  -769.615219142     A.U. after    8 cycles
 SCF Done:  E(RB3LYP) =  -769.615219318     A.U. after    8 cycles
 SCF Done:  E(RB3LYP) =  -769.615219329     A.U. after    7 cycles
 Optimization completed.
    -- Stationary point found.
 Normal termination of Gaussian 16 at Mon Dec 14 19:13:23 2020.

 --------------------------------------------------------------------
 #N Geom=AllCheck Guess=TCheck SCRF=Check GenChk RB3LYP/6-31G(d) Freq
 --------------------------------------------------------------------

 Structure from the checkpoint file:  "JID_8434.chk"
 -------------------------------
 CID_115232154_JID_8434_neutraal
 -------------------------------
 Charge =  0 Multiplicity = 1

 SCF Done:  E(RB3LYP) =  -769.615219329     A.U. after    1 cycles

  Exact polarizability: 193.378   2.219 182.321 -15.312  -0.619 120.124
 Approx polarizability: 264.367   2.355 294.667 -31.866  -0.230 178.979

                      1                      2                      3
                      A                      A                      A
 Frequencies --     33.1679                42.4060                55.5441
 Red. masses --      5.5362                 4.1057                 4.8265
 Frc consts  --      0.0036                 0.0044                 0.0088
 IR Inten    --      1.9304                 1.9848                 3.3025

                      4                      5                      6
                      A                      A                      A
 Frequencies --     80.3311                98.3266               100.4828
 Red. masses --      4.2963                 3.8684                 3.5395
 Frc consts  --      0.0163                 0.0220                 0.0211
 IR Inten    --      3.1797                 7.8057                 0.4446

                      7                      8                      9
                      A                      A                      A
 Frequencies --    115.2547               138.8873               184.6510
 Red. masses --      3.8424                 3.1595                 1.9498
 Frc consts  --      0.0301                 0.0359                 0.0392
 IR Inten    --      3.1892                 2.6447                 1.8669

                     10                     11                     12
                      A                      A                      A
 Frequencies --    192.8185               219.5203               232.9305
 Red. masses --      3.2866                 2.6221                 2.0359
 Frc consts  --      0.0720                 0.0744                 0.0651
 IR Inten    --      5.4352                 2.1283                 0.0942

                     13                     14                     15
                      A                      A                      A
 Frequencies --    258.6971               275.1538               292.9880
 Red. masses --      1.6355                 2.2034                 1.7668
 Frc consts  --      0.0645                 0.0983                 0.0894
 IR Inten    --      0.3111                 3.5139                 1.2070

                     16                     17                     18
                      A                      A                      A
 Frequencies --    304.8567               317.2405               322.1945
 Red. masses --      2.2354                 2.1295                 2.3694
 Frc consts  --      0.1224                 0.1263                 0.1449
 IR Inten    --      0.9935                 1.2351                 4.4787

                     19                     20                     21
                      A                      A                      A
 Frequencies --    334.7341               347.6227               386.5525
 Red. masses --      1.9930                 2.0400                 3.1122
 Frc consts  --      0.1316                 0.1452                 0.2740
 IR Inten    --      1.2036                 1.4328                 1.1409

                     22                     23                     24
                      A                      A                      A
 Frequencies --    387.3219               421.5985               451.9344
 Red. masses --      2.4478                 2.6025                 3.2237
 Frc consts  --      0.2164                 0.2726                 0.3879
 IR Inten    --      0.6391                 4.0454                 3.3022

                     25                     26                     27
                      A                      A                      A
 Frequencies --    496.4757               516.2064               533.8981
 Red. masses --      3.4578                 3.4106                 3.6322
 Frc consts  --      0.5022                 0.5355                 0.6100
 IR Inten    --      2.3447                 1.2622                12.0814

                     28                     29                     30
                      A                      A                      A
 Frequencies --    553.2161               587.9222               606.3816
 Red. masses --      3.3966                 3.4901                 4.6209
 Frc consts  --      0.6125                 0.7108                 1.0011
 IR Inten    --      0.8017                 3.8435                 2.6889

                     31                     32                     33
                      A                      A                      A
 Frequencies --    629.0454               674.4998               710.1557
 Red. masses --      3.4536                 1.3894                 3.3925
 Frc consts  --      0.8052                 0.3724                 1.0080
 IR Inten    --      2.1092               138.5859                36.3844

                     34                     35                     36
                      A                      A                      A
 Frequencies --    757.0527               761.4376               764.9018
 Red. masses --      3.2673                 1.5168                 1.2759
 Frc consts  --      1.1033                 0.5181                 0.4398
 IR Inten    --      4.6150                 7.1954                48.1841

                     37                     38                     39
                      A                      A                      A
 Frequencies --    813.6048               830.8528               858.4934
 Red. masses --      4.6601                 3.6396                 1.5068
 Frc consts  --      1.8175                 1.4803                 0.6543
 IR Inten    --      5.4988                 6.7073                 1.8506

                     40                     41                     42
                      A                      A                      A
 Frequencies --    870.9482               913.0013               932.1053
 Red. masses --      2.5093                 2.3336                 1.5402
 Frc consts  --      1.1215                 1.1461                 0.7884
 IR Inten    --      4.0375                 3.4127                 2.6591

                     43                     44                     45
                      A                      A                      A
 Frequencies --    939.2552               956.6300               962.0694
 Red. masses --      1.7723                 1.8728                 1.5016
 Frc consts  --      0.9212                 1.0098                 0.8189
 IR Inten    --      2.8184                 0.1469                 1.0887

                     46                     47                     48
                      A                      A                      A
 Frequencies --    968.4787              1015.5837              1045.9767
 Red. masses --      1.2443                 1.5682                 1.5363
 Frc consts  --      0.6876                 0.9530                 0.9903
 IR Inten    --      0.0079                 1.1353                 0.4279

                     49                     50                     51
                      A                      A                      A
 Frequencies --   1052.4286              1065.1164              1071.1599
 Red. masses --      2.0193                 5.6792                 2.4035
 Frc consts  --      1.3178                 3.7961                 1.6248
 IR Inten    --      0.6650                30.7833                 9.7984

                     52                     53                     54
                      A                      A                      A
 Frequencies --   1091.2549              1114.1095              1133.1603
 Red. masses --      3.1500                 2.3883                 2.3928
 Frc consts  --      2.2101                 1.7466                 1.8103
 IR Inten    --     15.3953                24.0832                 6.7974

                     55                     56                     57
                      A                      A                      A
 Frequencies --   1163.3303              1186.6951              1192.1203
 Red. masses --      1.7897                 1.2755                 2.2835
 Frc consts  --      1.4271                 1.0583                 1.9120
 IR Inten    --      5.8671                 1.8932                31.8343

                     58                     59                     60
                      A                      A                      A
 Frequencies --   1196.0804              1205.9673              1226.1514
 Red. masses --      1.6274                 1.2003                 1.4370
 Frc consts  --      1.3717                 1.0285                 1.2729
 IR Inten    --     11.5352                 2.9005                 8.3151

                     61                     62                     63
                      A                      A                      A
 Frequencies --   1233.2099              1236.9228              1259.8591
 Red. masses --      2.2103                 1.3848                 2.0935
 Frc consts  --      1.9805                 1.2483                 1.9578
 IR Inten    --      2.4517                14.6628                 7.3883

                     64                     65                     66
                      A                      A                      A
 Frequencies --   1264.5808              1283.9169              1312.8577
 Red. masses --      1.5814                 3.4102                 1.2576
 Frc consts  --      1.4900                 3.3121                 1.2771
 IR Inten    --      8.0810               171.2904                 3.1922

                     67                     68                     69
                      A                      A                      A
 Frequencies --   1330.7520              1341.5409              1349.0522
 Red. masses --      1.3288                 1.4974                 6.4021
 Frc consts  --      1.3864                 1.5877                 6.8649
 IR Inten    --      0.1464                21.7288                 4.0529

                     70                     71                     72
                      A                      A                      A
 Frequencies --   1371.1835              1388.1428              1415.9681
 Red. masses --      1.3403                 1.3931                 1.2582
 Frc consts  --      1.4847                 1.5816                 1.4863
 IR Inten    --      2.2650                 6.0031                 6.7019

                     73                     74                     75
                      A                      A                      A
 Frequencies --   1420.4045              1426.6123              1453.7165
 Red. masses --      1.2856                 1.2403                 1.2168
 Frc consts  --      1.5282                 1.4873                 1.5151
 IR Inten    --     14.4400                 2.1765                 9.4024

                     76                     77                     78
                      A                      A                      A
 Frequencies --   1488.3655              1496.9993              1508.0574
 Red. masses --      1.6970                 1.0821                 1.2296
 Frc consts  --      2.2149                 1.4288                 1.6475
 IR Inten    --     38.0038                 4.5812                 3.7943

                     79                     80                     81
                      A                      A                      A
 Frequencies --   1510.0422              1515.0938              1519.7325
 Red. masses --      1.1396                 1.1310                 1.0931
 Frc consts  --      1.5310                 1.5297                 1.4875
 IR Inten    --      6.9492                 2.7586                 4.2729

                     82                     83                     84
                      A                      A                      A
 Frequencies --   1526.6763              1527.3040              1531.9952
 Red. masses --      1.0569                 1.0570                 1.3234
 Frc consts  --      1.4513                 1.4528                 1.8300
 IR Inten    --      1.7405                 9.7270                57.3665

                     85                     86                     87
                      A                      A                      A
 Frequencies --   1536.8572              1542.9704              1553.3550
 Red. masses --      1.0523                 1.2759                 1.2653
 Frc consts  --      1.4644                 1.7896                 1.7988
 IR Inten    --     10.0736                27.1818                25.5123

                     88                     89                     90
                      A                      A                      A
 Frequencies --   1557.3911              1565.8075              1641.8041
 Red. masses --      1.0918                 1.1886                 5.6599
 Frc consts  --      1.5602                 1.7170                 8.9887
 IR Inten    --      9.3590                31.8898                 6.5989

                     91                     92                     93
                      A                      A                      A
 Frequencies --   1661.7728              2363.3953              2919.6114
 Red. masses --      5.5526                12.5877                 1.0729
 Frc consts  --      9.0343                41.4257                 5.3883
 IR Inten    --     19.4526                10.8650                75.3109

                     94                     95                     96
                      A                      A                      A
 Frequencies --   3016.2600              3035.1261              3036.2001
 Red. masses --      1.0855                 1.0379                 1.0609
 Frc consts  --      5.8186                 5.6333                 5.7621
 IR Inten    --     44.6700                55.3335                41.8239

                     97                     98                     99
                      A                      A                      A
 Frequencies --   3048.8468              3057.6709              3061.9184
 Red. masses --      1.0430                 1.0372                 1.0605
 Frc consts  --      5.7121                 5.7132                 5.8578
 IR Inten    --     26.8668                32.3472                35.5832

                    100                    101                    102
                      A                      A                      A
 Frequencies --   3072.3235              3083.5003              3099.7486
 Red. masses --      1.0606                 1.1015                 1.1067
 Frc consts  --      5.8982                 6.1707                 6.2653
 IR Inten    --     10.9260                11.5555                32.7348

                    103                    104                    105
                      A                      A                      A
 Frequencies --   3103.8850              3108.8396              3115.7547
 Red. masses --      1.1028                 1.0997                 1.1027
 Frc consts  --      6.2599                 6.2621                 6.3070
 IR Inten    --     30.0883                19.3049                17.2578

                    106                    107                    108
                      A                      A                      A
 Frequencies --   3120.3698              3131.2087              3179.4747
 Red. masses --      1.1014                 1.1031                 1.1006
 Frc consts  --      6.3184                 6.3720                 6.5555
 IR Inten    --     51.8544                28.8887                 2.5266

                    109                    110                    111
                      A                      A                      A
 Frequencies --   3188.0607              3188.6088              3205.3390
 Red. masses --      1.0863                 1.0934                 1.0937
 Frc consts  --      6.5054                 6.5501                 6.6209
 IR Inten    --      5.6625                11.2704                29.9986

                    112                    113                    114
                      A                      A                      A
 Frequencies --   3235.9780              3239.3196              3571.5897
 Red. masses --      1.0902                 1.0909                 1.0752
 Frc consts  --      6.7264                 6.7442                 8.0811
 IR Inten    --     18.8525                 6.5829                61.3655

 - Thermochemistry -
 -------------------
 Temperature   298.150 Kelvin.  Pressure   1.00000 Atm.
 Atom     1 has atomic number  6 and mass  12.00000

 Molecular mass:   246.17321 amu.
 Principal axes and moments of inertia in atomic units:
                           1         2         3
     Eigenvalues --  2808.589275907.916627274.44574
           X            0.99984   0.01755   0.00367
           Y           -0.01750   0.99974  -0.01477
           Z           -0.00392   0.01470   0.99988
 This molecule is an asymmetric top.
 Rotational symmetry number  1.
 Warning -- assumption of classical behavior for rotation
           may cause significant error
 Rotational temperatures (Kelvin)      0.03084     0.01466     0.01191
 Rotational constants (GHZ):           0.64258     0.30548     0.24809
 Zero-point vibrational energy     920807.3 (Joules/Mol)
                                  220.07822 (Kcal/Mol)
 Warning -- explicit consideration of  30 degrees of freedom as
           vibrations may cause significant error
 Vibrational temperatures:     47.72    61.01    79.92   115.58   141.47
          (Kelvin)            144.57   165.83   199.83   265.67   277.42
                              315.84   335.14   372.21   395.89   421.54
                              438.62   456.44   463.57   481.61   500.15
                              556.16   557.27   606.59   650.23   714.32
                              742.71   768.16   795.95   845.89   872.45
                              905.06   970.45  1021.76  1089.23  1095.54
                             1100.52  1170.60  1195.41  1235.18  1253.10
                             1313.61  1341.09  1351.38  1376.38  1384.20
                             1393.42  1461.20  1504.93  1514.21  1532.46
                             1541.16  1570.07  1602.96  1630.36  1673.77
                             1707.39  1715.20  1720.89  1735.12  1764.16
                             1774.31  1779.66  1812.66  1819.45  1847.27
                             1888.91  1914.66  1930.18  1940.99  1972.83
                             1997.23  2037.26  2043.65  2052.58  2091.57
                             2141.43  2153.85  2169.76  2172.61  2179.88
                             2186.56  2196.55  2197.45  2204.20  2211.19
                             2219.99  2234.93  2240.74  2252.85  2362.19
                             2390.92  3400.40  4200.67  4339.73  4366.87
                             4368.41  4386.61  4399.31  4405.42  4420.39
                             4436.47  4459.85  4465.80  4472.93  4482.88
                             4489.52  4505.11  4574.56  4586.91  4587.70
                             4611.77  4655.85  4660.66  5138.72

 Zero-point correction=                           0.350717 (Hartree/Particle)
 Thermal correction to Energy=                    0.369288
 Thermal correction to Enthalpy=                  0.370232
 Thermal correction to Gibbs Free Energy=         0.304338
 Sum of electronic and zero-point Energies=           -769.264502
 Sum of electronic and thermal Energies=              -769.245932
 Sum of electronic and thermal Enthalpies=            -769.244987
 Sum of electronic and thermal Free Energies=         -769.310881

                     E (Thermal)             CV                S
                      KCal/Mol        Cal/Mol-Kelvin    Cal/Mol-Kelvin
 Total                  231.732             71.360            138.685
 Electronic               0.000              0.000              0.000
 Translational            0.889              2.981             42.403
 Rotational               0.889              2.981             33.156
 Vibrational            229.954             65.398             63.126
 Vibration     1          0.594              1.983              5.630
 Vibration     2          0.595              1.980              5.143
 Vibration     3          0.596              1.975              4.610
 Vibration     4          0.600              1.963              3.883
 Vibration     5          0.604              1.950              3.487
 Vibration     6          0.604              1.949              3.445
 Vibration     7          0.608              1.937              3.178
 Vibration     8          0.614              1.914              2.819
 Vibration     9          0.631              1.861              2.281
 Vibration    10          0.635              1.850              2.201
 Vibration    11          0.647              1.811              1.963
 Vibration    12          0.654              1.791              1.856
 Vibration    13          0.668              1.748              1.671
 Vibration    14          0.677              1.719              1.564
 Vibration    15          0.688              1.687              1.457
 Vibration    16          0.696              1.664              1.390
 Vibration    17          0.704              1.641              1.324
 Vibration    18          0.707              1.631              1.299
 Vibration    19          0.716              1.606              1.237
 Vibration    20          0.725              1.580              1.177
 Vibration    21          0.755              1.499              1.013
 Vibration    22          0.756              1.497              1.010
 Vibration    23          0.784              1.423              0.887
 Vibration    24          0.811              1.357              0.790
 Vibration    25          0.852              1.258              0.667
 Vibration    26          0.871              1.214              0.619
 Vibration    27          0.889              1.175              0.579
 Vibration    28          0.909              1.133              0.538
 Vibration    29          0.945              1.058              0.471
 Vibration    30          0.965              1.018              0.439

 Optimization completed.
    -- Stationary point found.
 Normal termination of Gaussian 16 at Mon Dec 14 19:36:23 2020.

 ----------------------------------------------------------------------
 # B3LYP/6-311++G(d,p) empiricaldispersion=gd3bj scf=xqc pop=npa geom=c
 heck
 ----------------------------------------------------------------------

 ---------------------------------------
 CID_115232154_JID_8434_Energie_neutraal
 ---------------------------------------
 Structure from the checkpoint file:  "JID_8434.chk"
 Charge =  0 Multiplicity = 1

 SCF Done:  E(RB3LYP) =  -769.827130357     A.U. after   15 cycles
 Normal termination of Gaussian 16 at Mon Dec 14 19:46:53 2020.

 ----------------------------------------------------------------------
 # B3LYP/6-311++G(d,p) empiricaldispersion=gd3bj scf=xqc pop=npa geom=c
 heck
 ----------------------------------------------------------------------

 -------------------------------------
 CID_115232154_JID_8434_Energie_kation
 -------------------------------------
 Structure from the checkpoint file:  "JID_8434.chk"
 Charge =  1 Multiplicity = 2

 SCF Done:  E(UB3LYP) =  -769.550763103     A.U. after   21 cycles
 Normal termination of Gaussian 16 at Mon Dec 14 20:07:43 2020.
 Gaussian 16:  ES64L-G16RevA.03 25-Dec-2016

 ----------------------------------------------------------------------
 # B3LYP/6-311++G(d,p) empiricaldispersion=gd3bj scf=xqc pop=npa geom=c
 heck
 ----------------------------------------------------------------------

 ------------------------------------
 CID_115232154_JID_8434_Energie_anion
 ------------------------------------
 Structure from the checkpoint file:  "JID_8434.chk"
 Charge = -1 Multiplicity = 2

                         Standard orientation:
 ---------------------------------------------------------------------
 Center     Atomic      Atomic             Coordinates (Angstroms)
 Number     Number       Type             X           Y           Z
 ---------------------------------------------------------------------
      1          6           0       -0.081479   -1.001411    1.928826
      2          6           0        0.582260   -1.457170    0.606365
      3          6           0        1.141003   -2.869257    0.887021
      4          6           0       -0.486290   -1.637879   -0.507148
      5          7           0       -0.994198   -0.394480   -1.056189
      6          6           0       -2.249820   -0.458391   -1.774830
      7          6           0       -3.484517   -0.958924   -0.987223
      8          6           0       -3.608841   -0.330062    0.416912
      9          6           0       -3.453325    1.126895    0.412384
     10          7           0       -3.293568    2.276910    0.394948
     11          6           0        1.697695   -0.490791    0.151588
     12          6           0        2.911629   -0.996921   -0.326136
     13          6           0        3.960307   -0.184768   -0.762215
     14          6           0        3.812726    1.194361   -0.722939
     15          6           0        2.619328    1.744932   -0.257891
     16          6           0        1.571479    0.922592    0.166362
     17          8           0        0.389202    1.456768    0.616432
     18          6           0        0.168679    2.857412    0.500099
     19          1           0       -0.775749   -1.778207    2.271756
     20          1           0       -0.622315   -0.061744    1.836039
     21          1           0        0.677577   -0.865365    2.706948
     22          1           0        0.339345   -3.505550    1.276791
     23          1           0        1.529353   -3.355324   -0.012847
     24          1           0        1.939584   -2.837539    1.635165
     25          1           0       -0.038941   -2.218470   -1.327717
     26          1           0       -1.279108   -2.279744   -0.075017
     27          1           0       -0.976018    0.358186   -0.378302
     28          1           0       -2.459591    0.552085   -2.144007
     29          1           0       -2.126602   -1.097345   -2.659999
     30          1           0       -4.387701   -0.743789   -1.570111
     31          1           0       -3.449119   -2.045108   -0.848345
     32          1           0       -4.576663   -0.579782    0.866047
     33          1           0       -2.835159   -0.734930    1.078245
     34          1           0        3.056158   -2.068976   -0.363328
     35          1           0        4.879510   -0.636235   -1.123197
     36          1           0        4.614062    1.850777   -1.050239
     37          1           0        2.508807    2.821540   -0.229351
     38          1           0        0.300207    3.191945   -0.535854
     39          1           0       -0.866416    3.017672    0.802344
     40          1           0        0.844519    3.421035    1.155157
 ---------------------------------------------------------------------

 SCF Done:  E(UB3LYP) =  -769.816749089     A.U. after   33 cycles
 SCF Done:  E(UB3LYP) =  -769.816749089     a.u. after    1 cycles

 The electronic state is 2-A.
 Alpha  occ. eigenvalues --  -19.06938 -14.22016 -14.19168 -10.15048 -10.13647
 Alpha  occ. eigenvalues --  -10.12178 -10.11616 -10.10425 -10.09966 -10.09590
 Alpha  occ. eigenvalues --  -10.09565 -10.08940 -10.08655 -10.08460 -10.08363
 Alpha  occ. eigenvalues --  -10.08155 -10.06927 -10.06257  -0.98485  -0.82092
 Alpha  occ. eigenvalues --   -0.81108  -0.77160  -0.72603  -0.70439  -0.66915
 Alpha  occ. eigenvalues --   -0.65527  -0.61962  -0.61261  -0.59432  -0.57009
 Alpha  occ. eigenvalues --   -0.53349  -0.50673  -0.50537  -0.47213  -0.44529
 Alpha  occ. eigenvalues --   -0.42132  -0.40822  -0.39861  -0.39056  -0.38787
 Alpha  occ. eigenvalues --   -0.37850  -0.36793  -0.36036  -0.35739  -0.33838
 Alpha  occ. eigenvalues --   -0.33397  -0.32848  -0.32127  -0.30335  -0.29582
 Alpha  occ. eigenvalues --   -0.29339  -0.28725  -0.28360  -0.27771  -0.27757
 Alpha  occ. eigenvalues --   -0.27279  -0.27119  -0.25124  -0.24409  -0.23936
 Alpha  occ. eigenvalues --   -0.23715  -0.23248  -0.22918  -0.22681  -0.16538
 Alpha  occ. eigenvalues --   -0.13971  -0.12143   0.03966
 Alpha virt. eigenvalues --    0.05414   0.06407   0.07060   0.07268   0.07701
 Alpha virt. eigenvalues --    0.08059   0.08426   0.08961   0.09212   0.09501
 Alpha virt. eigenvalues --    0.09863   0.10616   0.11039   0.11222   0.11608

  Beta  occ. eigenvalues --  -19.06935 -14.21997 -14.19167 -10.15048 -10.13639
  Beta  occ. eigenvalues --  -10.12173 -10.11575 -10.10422 -10.09959 -10.09569
  Beta  occ. eigenvalues --  -10.09562 -10.08931 -10.08649 -10.08453 -10.08327
  Beta  occ. eigenvalues --  -10.08147 -10.06906 -10.06238  -0.98479  -0.82061
  Beta  occ. eigenvalues --   -0.81093  -0.77148  -0.72581  -0.70381  -0.66902
  Beta  occ. eigenvalues --   -0.65509  -0.61912  -0.61240  -0.59395  -0.56952
  Beta  occ. eigenvalues --   -0.53324  -0.50654  -0.50479  -0.47183  -0.44506
  Beta  occ. eigenvalues --   -0.42086  -0.40791  -0.39837  -0.39014  -0.38762
  Beta  occ. eigenvalues --   -0.37828  -0.36770  -0.36004  -0.35712  -0.33804
  Beta  occ. eigenvalues --   -0.33376  -0.32822  -0.32084  -0.30307  -0.29548
  Beta  occ. eigenvalues --   -0.29317  -0.28696  -0.28330  -0.27747  -0.27721
  Beta  occ. eigenvalues --   -0.27254  -0.27096  -0.25098  -0.24393  -0.23890
  Beta  occ. eigenvalues --   -0.23682  -0.23227  -0.22883  -0.22658  -0.16530
  Beta  occ. eigenvalues --   -0.13965  -0.12131
  Beta virt. eigenvalues --    0.05713   0.06635   0.06872   0.07159   0.07645
  Beta virt. eigenvalues --    0.08180   0.08468   0.08578   0.09170   0.09469
  Beta virt. eigenvalues --    0.09712   0.10264   0.10794   0.11233   0.11418

 Mulliken charges and spin densities:
               1          2
     1  C    0.450309  -1.041489
     2  C   -0.437245   0.821825
     3  C    0.176623  -0.592969
     4  C   -0.275561  -0.719049
     5  N    0.042962   0.006371
     6  C   -0.469550   0.183468
     7  C    1.359230  -1.690785
     8  C   -0.465382   0.447118
     9  C    0.890387  -0.923521
    10  N   -0.375526   0.054993
    11  C    0.158193   0.406256
    12  C   -0.845930   0.508173
    13  C    0.393399  -0.927818
    14  C    0.161945  -0.488602
    15  C   -0.373082   0.165796
    16  C    0.295416  -0.105849
    17  O   -0.100600  -0.002177
    18  C   -0.104919  -0.184714
    19  H   -0.009463   0.185855
    20  H    0.083396   0.037790
    21  H    0.130017   0.032210
    22  H   -0.380120   0.554547
    23  H   -0.137156   0.244326
    24  H    0.080740   0.077575
    25  H    0.079237   0.096774
    26  H    0.377858  -0.228213
    27  H    0.418820  -0.208845
    28  H    0.064564   0.113277
    29  H   -0.019440   0.143751
    30  H   -0.184534   0.353187
    31  H   -0.570188   0.761571
    32  H   -1.025681   1.290092
    33  H   -0.256860   0.402069
    34  H    0.070820   0.090604
    35  H   -0.251205   0.404135
    36  H   -0.180573   0.334494
    37  H   -0.062821   0.209283
    38  H    0.123994   0.026231
    39  H    0.140279   0.049204
    40  H    0.027644   0.113055
 Sum of Mulliken charges =  -1.00000   1.00000

 Dipole moment (field-independent basis, Debye):
    X=              5.8084    Y=              3.5490    Z=             -0.6043  Tot=              6.8336
 Quadrupole moment (field-independent basis, Debye-Ang):
   XX=           -210.4168   YY=           -162.2447   ZZ=           -144.2525
   XY=             -8.4242   XZ=              8.1697   YZ=              2.2561

 Summary of Natural Population Analysis:

                                       Natural Population
                Natural  -----------------------------------------------
    Atom  No    Charge         Core      Valence    Rydberg      Total
 -----------------------------------------------------------------------
      C    1   -0.28675      0.99962     2.27965    0.00748     3.28675
      C    2   -0.05031      0.99955     2.03854    0.01221     3.05031
      C    3   -0.28425      0.99964     2.27726    0.00736     3.28425
      C    4   -0.07857      0.99957     2.06660    0.01241     3.07857
      N    5   -0.35389      0.99973     2.84322    0.01094     3.85389
      C    6   -0.08649      0.99963     2.07535    0.01151     3.08649
      C    7   -0.19268      0.99963     2.18369    0.00936     3.19268
      C    8   -0.25608      0.99953     2.24456    0.01199     3.25608
      C    9    0.16971      0.99966     1.81360    0.01703     2.83029
      N   10   -0.19941      0.99978     2.68883    0.01080     3.69941
      C   11   -0.02465      0.99945     2.01282    0.01239     3.02465
      C   12   -0.09355      0.99952     2.08517    0.00885     3.09355
      C   13   -0.12774      0.99958     2.11315    0.01501     3.12774
      C   14   -0.06481      0.99957     2.05793    0.00731     3.06481
      C   15   -0.15646      0.99954     2.14174    0.01517     3.15646
      C   16    0.16962      0.99934     1.81871    0.01233     2.83038
      O   17   -0.28327      0.99986     3.27333    0.01008     4.28327
      C   18   -0.10347      0.99959     2.09632    0.00757     3.10347
      H   19    0.09946      0.00000     0.39932    0.00122     0.40054
      H   20    0.10852      0.00000     0.38968    0.00180     0.39148
      H   21    0.10058      0.00000     0.39862    0.00080     0.39942
      H   22    0.10540      0.00000     0.39354    0.00107     0.39460
      H   23    0.09909      0.00000     0.39978    0.00113     0.40091
      H   24    0.10190      0.00000     0.39720    0.00090     0.39810
      H   25    0.09083      0.00000     0.40773    0.00144     0.40917
      H   26    0.08400      0.00000     0.41383    0.00218     0.41600
      H   27    0.18779      0.00000     0.30727    0.00494     0.31221
      H   28    0.09547      0.00000     0.40354    0.00099     0.40453
      H   29    0.09285      0.00000     0.40621    0.00094     0.40715
      H   30    0.10145      0.00000     0.39693    0.00162     0.39855
      H   31    0.10530      0.00000     0.39182    0.00287     0.39470
      H   32    0.12771      0.00000     0.36822    0.00407     0.37229
      H   33    0.12369      0.00000     0.37347    0.00284     0.37631
      H   34    0.10356      0.00000     0.39535    0.00110     0.39644
      H   35    0.10055      0.00000     0.39854    0.00091     0.39945
      H   36    0.09630      0.00000     0.40244    0.00125     0.40370
      H   37    0.10430      0.00000     0.39448    0.00123     0.39570
      H   38    0.08550      0.00000     0.41327    0.00123     0.41450
      H   39    0.10747      0.00000     0.39161    0.00092     0.39253
      H   40    0.08170      0.00000     0.41703    0.00126     0.41830
 =======================================================================
   * Total *    0.00034     17.99278    48.77036    0.23652    66.99966

 Normal termination of Gaussian 16 at Mon Dec 14 20:39:34 2020.
