 Gaussian 16, Revision A.03,

 -----------------------------------------------------------
 # opt freq B3LYP/6-31G(d) empiricaldispersion=gd3bj scf=xqc
 -----------------------------------------------------------

 ------------------------------
 CID_23521600_JID_2791_neutraal
 ------------------------------
 Symbolic Z-matrix:
 Charge =  0 Multiplicity = 1

 SCF Done:  E(RB3LYP) =  -497.840055660     A.U. after   15 cycles
 SCF Done:  E(RB3LYP) =  -497.843042452     A.U. after   12 cycles
 SCF Done:  E(RB3LYP) =  -497.843269681     A.U. after   11 cycles
 SCF Done:  E(RB3LYP) =  -497.843324145     A.U. after   11 cycles
 SCF Done:  E(RB3LYP) =  -497.843356629     A.U. after   10 cycles
 SCF Done:  E(RB3LYP) =  -497.843550271     A.U. after   12 cycles
 SCF Done:  E(RB3LYP) =  -497.843755607     A.U. after   13 cycles
 SCF Done:  E(RB3LYP) =  -497.843904514     A.U. after   11 cycles
 SCF Done:  E(RB3LYP) =  -497.844060672     A.U. after   12 cycles
 SCF Done:  E(RB3LYP) =  -497.844334100     A.U. after   12 cycles
 SCF Done:  E(RB3LYP) =  -497.844513437     A.U. after    9 cycles
 SCF Done:  E(RB3LYP) =  -497.844514647     A.U. after    8 cycles
 SCF Done:  E(RB3LYP) =  -497.844517479     A.U. after    9 cycles
 SCF Done:  E(RB3LYP) =  -497.844518002     A.U. after    8 cycles
 SCF Done:  E(RB3LYP) =  -497.844518119     A.U. after    7 cycles
 Optimization completed.
    -- Stationary point found.
 Normal termination of Gaussian 16 at Wed Dec  9 18:05:22 2020.

 --------------------------------------------------------------------
 #N Geom=AllCheck Guess=TCheck SCRF=Check GenChk RB3LYP/6-31G(d) Freq
 --------------------------------------------------------------------

 Structure from the checkpoint file:  "JID_2791.chk"
 ------------------------------
 CID_23521600_JID_2791_neutraal
 ------------------------------
 Charge =  0 Multiplicity = 1

 SCF Done:  E(RB3LYP) =  -497.844518119     A.U. after    1 cycles

  Exact polarizability: 143.971  14.536 127.284 -12.038   8.962  65.293
 Approx polarizability: 212.693  27.039 225.892 -25.464  26.028 101.265

                      1                      2                      3
                      A                      A                      A
 Frequencies --     47.6446                77.4091               115.5986
 Red. masses --      3.1887                 3.1541                 2.1462
 Frc consts  --      0.0043                 0.0111                 0.0169
 IR Inten    --      1.0347                 0.9394                 3.1667

                      4                      5                      6
                      A                      A                      A
 Frequencies --    195.9048               210.1638               230.6689
 Red. masses --      3.8825                 1.9488                 3.2444
 Frc consts  --      0.0878                 0.0507                 0.1017
 IR Inten    --      6.4129                 1.9671                11.5499

                      7                      8                      9
                      A                      A                      A
 Frequencies --    271.1838               309.0213               362.2674
 Red. masses --      1.5451                 2.1315                 1.6145
 Frc consts  --      0.0669                 0.1199                 0.1248
 IR Inten    --      1.5225                32.1727                46.1974

                     10                     11                     12
                      A                      A                      A
 Frequencies --    438.4135               448.7283               489.8128
 Red. masses --      3.6048                 2.7089                 3.6782
 Frc consts  --      0.4082                 0.3214                 0.5199
 IR Inten    --      4.3099                 6.9040                 5.7757

                     13                     14                     15
                      A                      A                      A
 Frequencies --    563.4983               584.7312               602.4266
 Red. masses --      4.8064                 4.7556                 3.2402
 Frc consts  --      0.8992                 0.9580                 0.6928
 IR Inten    --      3.8493                 1.2049                 0.7976

                     16                     17                     18
                      A                      A                      A
 Frequencies --    655.3346               715.9107               777.4951
 Red. masses --      2.7576                 3.3809                 3.8392
 Frc consts  --      0.6978                 1.0209                 1.3674
 IR Inten    --      0.1764                 0.7698                 2.4638

                     19                     20                     21
                      A                      A                      A
 Frequencies --    785.5544               792.8212               808.6841
 Red. masses --      1.3118                 1.7274                 2.4131
 Frc consts  --      0.4770                 0.6397                 0.9298
 IR Inten    --     50.8782                 7.8440                 0.4716

                     22                     23                     24
                      A                      A                      A
 Frequencies --    826.6336               878.4222               895.7779
 Red. masses --      2.2500                 2.6332                 2.3958
 Frc consts  --      0.9059                 1.1971                 1.1326
 IR Inten    --      5.6415                 0.9240                 1.2754

                     25                     26                     27
                      A                      A                      A
 Frequencies --    908.7635               930.8956               961.6138
 Red. masses --      2.1023                 1.3484                 1.3014
 Frc consts  --      1.0229                 0.6884                 0.7090
 IR Inten    --      3.4319                 0.1241                 0.6661

                     28                     29                     30
                      A                      A                      A
 Frequencies --   1044.1322              1064.1443              1074.7105
 Red. masses --      1.8460                 2.2895                 2.2343
 Frc consts  --      1.1857                 1.5275                 1.5204
 IR Inten    --      3.6256                 1.1899                 2.5111

                     31                     32                     33
                      A                      A                      A
 Frequencies --   1110.7496              1120.1182              1137.7152
 Red. masses --      1.5562                 1.7082                 2.3199
 Frc consts  --      1.1313                 1.2628                 1.7692
 IR Inten    --     31.6795                 7.1420                10.5642

                     34                     35                     36
                      A                      A                      A
 Frequencies --   1156.4055              1240.5449              1253.1576
 Red. masses --      1.3576                 2.3373                 1.7452
 Frc consts  --      1.0696                 2.1193                 1.6147
 IR Inten    --      1.0659                13.9413                 3.7779

                     37                     38                     39
                      A                      A                      A
 Frequencies --   1292.2835              1306.6555              1337.0630
 Red. masses --      1.4280                 1.2412                 2.5615
 Frc consts  --      1.4051                 1.2486                 2.6980
 IR Inten    --      0.9565                 0.8058                15.6578

                     40                     41                     42
                      A                      A                      A
 Frequencies --   1364.4136              1381.7164              1396.2527
 Red. masses --      3.2736                 1.4824                 1.4237
 Frc consts  --      3.5906                 1.6675                 1.6353
 IR Inten    --     15.7581                 4.3640                 7.7278

                     43                     44                     45
                      A                      A                      A
 Frequencies --   1407.0974              1446.0459              1446.5696
 Red. masses --      1.9689                 3.2877                 1.3036
 Frc consts  --      2.2968                 4.0505                 1.6073
 IR Inten    --     11.3588                68.0133                 4.4964

                     46                     47                     48
                      A                      A                      A
 Frequencies --   1470.6562              1509.9454              1516.0899
 Red. masses --      2.2675                 1.0919                 1.0703
 Frc consts  --      2.8895                 1.4668                 1.4494
 IR Inten    --     15.6166                 1.7596                 3.3805

                     49                     50                     51
                      A                      A                      A
 Frequencies --   1528.3569              1536.2154              1542.7641
 Red. masses --      1.0640                 1.0626                 2.8647
 Frc consts  --      1.4643                 1.4776                 4.0173
 IR Inten    --      5.9856                 7.9670                 3.5109

                     52                     53                     54
                      A                      A                      A
 Frequencies --   1606.7364              1615.5302              1675.1759
 Red. masses --      6.0026                 5.9498                 6.2450
 Frc consts  --      9.1302                 9.1493                10.3253
 IR Inten    --      4.2408                10.8116                10.2642

                     55                     56                     57
                      A                      A                      A
 Frequencies --   3027.5172              3042.9634              3052.8285
 Red. masses --      1.0604                 1.0632                 1.0376
 Frc consts  --      5.7263                 5.8005                 5.6976
 IR Inten    --     34.8820                41.9279                22.7554

                     58                     59                     60
                      A                      A                      A
 Frequencies --   3062.0417              3089.9065              3118.1795
 Red. masses --      1.0999                 1.1019                 1.1018
 Frc consts  --      6.0761                 6.1983                 6.3117
 IR Inten    --     46.5500                20.9226                50.1236

                     61                     62                     63
                      A                      A                      A
 Frequencies --   3128.8675              3169.2912              3189.2276
 Red. masses --      1.1021                 1.0887                 1.0896
 Frc consts  --      6.3568                 6.4431                 6.5298
 IR Inten    --     37.5899                27.7450                15.3215

                     64                     65                     66
                      A                      A                      A
 Frequencies --   3213.1939              3264.3159              3669.6680
 Red. masses --      1.0956                 1.0965                 1.0801
 Frc consts  --      6.6645                 6.8840                 8.5696
 IR Inten    --     24.4122                 2.0051                58.4234

 - Thermochemistry -
 -------------------
 Temperature   298.150 Kelvin.  Pressure   1.00000 Atm.
 Atom     1 has atomic number  6 and mass  12.00000

 Molecular mass:   160.10005 amu.
 Principal axes and moments of inertia in atomic units:
                           1         2         3
     Eigenvalues --  1127.110712362.359663115.61108
           X            0.99992  -0.01248   0.00094
           Y            0.01249   0.99988  -0.00908
           Z           -0.00082   0.00909   0.99996
 This molecule is an asymmetric top.
 Rotational symmetry number  1.
 Warning -- assumption of classical behavior for rotation
           may cause significant error
 Rotational temperatures (Kelvin)      0.07685     0.03666     0.02780
 Rotational constants (GHZ):           1.60121     0.76396     0.57926
 Zero-point vibrational energy     535296.7 (Joules/Mol)
                                  127.93899 (Kcal/Mol)
 Warning -- explicit consideration of  15 degrees of freedom as
           vibrations may cause significant error
 Vibrational temperatures:     68.55   111.37   166.32   281.86   302.38
          (Kelvin)            331.88   390.17   444.61   521.22   630.78
                              645.62   704.73   810.75   841.30   866.76
                              942.88  1030.04  1118.64  1130.24  1140.69
                             1163.52  1189.34  1263.85  1288.82  1307.51
                             1339.35  1383.55  1502.27  1531.07  1546.27
                             1598.12  1611.60  1636.92  1663.81  1784.87
                             1803.01  1859.31  1879.99  1923.74  1963.09
                             1987.98  2008.90  2024.50  2080.54  2081.29
                             2115.95  2172.47  2181.32  2198.96  2210.27
                             2219.69  2311.74  2324.39  2410.20  4355.92
                             4378.15  4392.34  4405.60  4445.69  4486.36
                             4501.74  4559.90  4588.59  4623.07  4696.62
                             5279.83

 Zero-point correction=                           0.203884 (Hartree/Particle)
 Thermal correction to Energy=                    0.214365
 Thermal correction to Enthalpy=                  0.215309
 Thermal correction to Gibbs Free Energy=         0.167461
 Sum of electronic and zero-point Energies=           -497.640634
 Sum of electronic and thermal Energies=              -497.630153
 Sum of electronic and thermal Enthalpies=            -497.629209
 Sum of electronic and thermal Free Energies=         -497.677057

                     E (Thermal)             CV                S
                      KCal/Mol        Cal/Mol-Kelvin    Cal/Mol-Kelvin
 Total                  134.516             40.788            100.704
 Electronic               0.000              0.000              0.000
 Translational            0.889              2.981             41.121
 Rotational               0.889              2.981             30.496
 Vibrational            132.739             34.826             29.088
 Vibration     1          0.595              1.978              4.913
 Vibration     2          0.599              1.964              3.956
 Vibration     3          0.608              1.936              3.173
 Vibration     4          0.636              1.846              2.171
 Vibration     5          0.642              1.825              2.042
 Vibration     6          0.652              1.794              1.874
 Vibration     7          0.675              1.726              1.589
 Vibration     8          0.698              1.657              1.368
 Vibration     9          0.736              1.550              1.112
 Vibration    10          0.799              1.386              0.832
 Vibration    11          0.808              1.364              0.800
 Vibration    12          0.846              1.273              0.684
 Vibration    13          0.919              1.110              0.517
 Vibration    14          0.942              1.064              0.477
 Vibration    15          0.961              1.027              0.446

                           ! Non-Optimized Parameters !
 Normal termination of Gaussian 16 at Wed Dec  9 18:11:01 2020.

 ----------------------------------------------------------------------
 # B3LYP/6-311++G(d,p) empiricaldispersion=gd3bj scf=xqc pop=npa geom=c
 heck
 ----------------------------------------------------------------------

 --------------------------------------
 CID_23521600_JID_2791_Energie_neutraal
 --------------------------------------
 Structure from the checkpoint file:  "JID_2791.chk"
 Charge =  0 Multiplicity = 1

 SCF Done:  E(RB3LYP) =  -497.975587182     A.U. after   14 cycles
 Normal termination of Gaussian 16 at Wed Dec  9 18:13:43 2020.

 ----------------------------------------------------------------------
 # B3LYP/6-311++G(d,p) empiricaldispersion=gd3bj scf=xqc pop=npa geom=c
 heck
 ----------------------------------------------------------------------

 ------------------------------------
 CID_23521600_JID_2791_Energie_kation
 ------------------------------------
 Structure from the checkpoint file:  "JID_2791.chk"
 Charge =  1 Multiplicity = 2

 SCF Done:  E(UB3LYP) =  -497.687915096     A.U. after   24 cycles
 Normal termination of Gaussian 16 at Wed Dec  9 18:19:58 2020.
 Gaussian 16:  ES64L-G16RevA.03 25-Dec-2016

 ----------------------------------------------------------------------
 # B3LYP/6-311++G(d,p) empiricaldispersion=gd3bj scf=xqc pop=npa geom=c
 heck
 ----------------------------------------------------------------------

 -----------------------------------
 CID_23521600_JID_2791_Energie_anion
 -----------------------------------
 Structure from the checkpoint file:  "JID_2791.chk"
 Charge = -1 Multiplicity = 2

                         Standard orientation:
 ---------------------------------------------------------------------
 Center     Atomic      Atomic             Coordinates (Angstroms)
 Number     Number       Type             X           Y           Z
 ---------------------------------------------------------------------
      1          6           0        2.477133   -1.407167    1.069483
      2          6           0        3.087849   -0.296510    0.212413
      3          6           0        2.169088    0.176533   -0.933206
      4          6           0        0.847371    0.712101   -0.468242
      5          6           0        0.542001    1.989217   -0.066546
      6          7           0       -0.787592    2.069382    0.327258
      7          6           0       -1.373832    0.833404    0.179480
      8          6           0       -0.368182   -0.047227   -0.319045
      9          7           0       -0.591573   -1.346544   -0.584704
     10          6           0       -1.828673   -1.784364   -0.351853
     11          6           0       -2.879614   -0.985421    0.141590
     12          6           0       -2.662178    0.361019    0.418384
     13          1           0        1.580869   -1.055106    1.590150
     14          1           0        3.190944   -1.759839    1.822754
     15          1           0        2.175705   -2.260187    0.451960
     16          1           0        3.336774    0.564575    0.847887
     17          1           0        4.033045   -0.644359   -0.225938
     18          1           0        2.695528    0.940998   -1.518723
     19          1           0        1.978796   -0.667609   -1.606726
     20          1           0        1.171703    2.867639   -0.029451
     21          1           0       -1.250789    2.907272    0.641227
     22          1           0       -2.012617   -2.835547   -0.566673
     23          1           0       -3.857518   -1.428175    0.302316
     24          1           0       -3.454064    1.000964    0.798589
 ---------------------------------------------------------------------

 SCF Done:  E(UB3LYP) =  -497.964836847     A.U. after   33 cycles
 SCF Done:  E(UB3LYP) =  -497.964836847     a.u. after    1 cycles

 The electronic state is 2-A.
 Alpha  occ. eigenvalues --  -14.23739 -14.18266 -10.09113 -10.08428 -10.08191
 Alpha  occ. eigenvalues --  -10.07633 -10.06657 -10.06361 -10.06123 -10.05958
 Alpha  occ. eigenvalues --  -10.05150 -10.04814  -0.86666  -0.81052  -0.70149
 Alpha  occ. eigenvalues --   -0.67861  -0.64903  -0.61903  -0.57670  -0.52650
 Alpha  occ. eigenvalues --   -0.50041  -0.49199  -0.43876  -0.42259  -0.38296
 Alpha  occ. eigenvalues --   -0.37180  -0.34953  -0.33974  -0.33263  -0.31513
 Alpha  occ. eigenvalues --   -0.30422  -0.29206  -0.28067  -0.27413  -0.25933
 Alpha  occ. eigenvalues --   -0.24950  -0.23972  -0.22831  -0.22417  -0.18195
 Alpha  occ. eigenvalues --   -0.13984  -0.11901  -0.10234   0.04815
 Alpha virt. eigenvalues --    0.07207   0.07280   0.07751   0.08865   0.09336
 Alpha virt. eigenvalues --    0.09827   0.10980   0.11556   0.11844   0.12465
 Alpha virt. eigenvalues --    0.12655   0.13294   0.14577   0.15417   0.15619

  Beta  occ. eigenvalues --  -14.23680 -14.18141 -10.09128 -10.08328 -10.08185
  Beta  occ. eigenvalues --  -10.07610 -10.06537 -10.06356 -10.06117 -10.05942
  Beta  occ. eigenvalues --  -10.05146 -10.04821  -0.86562  -0.80880  -0.70091
  Beta  occ. eigenvalues --   -0.67722  -0.64821  -0.61809  -0.57615  -0.52476
  Beta  occ. eigenvalues --   -0.49934  -0.49157  -0.43795  -0.42137  -0.38215
  Beta  occ. eigenvalues --   -0.37093  -0.34901  -0.33939  -0.33186  -0.31391
  Beta  occ. eigenvalues --   -0.30327  -0.29113  -0.28009  -0.27392  -0.25892
  Beta  occ. eigenvalues --   -0.24693  -0.23876  -0.22811  -0.22395  -0.17760
  Beta  occ. eigenvalues --   -0.13846  -0.11639  -0.09940
  Beta virt. eigenvalues --    0.07203   0.07838   0.08102   0.08792   0.09246
  Beta virt. eigenvalues --    0.09808   0.10187   0.11224   0.11885   0.12055
  Beta virt. eigenvalues --    0.12638   0.13044   0.13147   0.14864   0.15467

 Mulliken charges and spin densities:
               1          2
     1  C   -0.430081  -0.141738
     2  C   -0.107289  -0.166364
     3  C   -0.602203  -0.084640
     4  C    1.410075  -0.375712
     5  C    0.387735  -0.346497
     6  N   -0.241115   0.114380
     7  C    0.862235  -0.569179
     8  C   -0.326440  -0.623095
     9  N    0.002925   0.078564
    10  C   -0.559926   0.342855
    11  C    0.726423  -0.645107
    12  C   -0.324466  -0.336758
    13  H    0.113194   0.050755
    14  H    0.032347   0.081888
    15  H    0.142552  -0.008791
    16  H    0.052217   0.064793
    17  H    0.023060   0.089868
    18  H    0.025268   0.130799
    19  H    0.165817   0.026163
    20  H   -1.133657   1.312670
    21  H   -0.617216   0.953346
    22  H    0.099633   0.043059
    23  H    0.136663   0.009868
    24  H   -0.837750   0.998875
 Sum of Mulliken charges =  -1.00000   1.00000

 Dipole moment (field-independent basis, Debye):
    X=              2.8130    Y=             -7.5891    Z=             -0.6521  Tot=              8.1199
 Quadrupole moment (field-independent basis, Debye-Ang):
   XX=           -114.8884   YY=           -129.8271   ZZ=            -94.2252
   XY=              9.0281   XZ=              3.8696   YZ=             -3.9041

 Summary of Natural Population Analysis:

                                       Natural Population
                Natural  -----------------------------------------------
    Atom  No    Charge         Core      Valence    Rydberg      Total
 -----------------------------------------------------------------------
      C    1   -0.28881      0.99967     2.28435    0.00479     3.28881
      C    2   -0.18367      0.99964     2.17644    0.00759     3.18367
      C    3   -0.19697      0.99960     2.18777    0.00960     3.19697
      C    4   -0.07100      0.99948     2.05853    0.01300     3.07100
      C    5    0.02825      0.99949     1.95939    0.01287     2.97175
      N    6   -0.26885      0.99966     2.75772    0.01147     3.76885
      C    7    0.05785      0.99946     1.92960    0.01309     2.94215
      C    8    0.07505      0.99944     1.91035    0.01516     2.92495
      N    9   -0.22068      0.99968     2.71124    0.00976     3.72068
      C   10    0.01152      0.99960     1.97458    0.01429     2.98848
      C   11   -0.13512      0.99958     2.12516    0.01038     3.13512
      C   12   -0.08052      0.99952     2.07115    0.00985     3.08052
      H   13    0.10342      0.00000     0.39561    0.00097     0.39658
      H   14    0.09108      0.00000     0.40811    0.00081     0.40892
      H   15    0.09996      0.00000     0.39893    0.00111     0.40004
      H   16    0.09188      0.00000     0.40679    0.00133     0.40812
      H   17    0.08812      0.00000     0.41077    0.00111     0.41188
      H   18    0.10030      0.00000     0.39873    0.00096     0.39970
      H   19    0.10351      0.00000     0.39516    0.00133     0.39649
      H   20    0.10104      0.00000     0.39610    0.00286     0.39896
      H   21    0.20878      0.00000     0.25791    0.03332     0.29122
      H   22    0.08267      0.00000     0.41636    0.00097     0.41733
      H   23    0.09795      0.00000     0.40126    0.00079     0.40205
      H   24    0.10426      0.00000     0.39418    0.00156     0.39574
 =======================================================================
   * Total *   -0.00000     11.99482    30.82619    0.17899    43.00000

 Normal termination of Gaussian 16 at Wed Dec  9 18:27:59 2020.
