 Gaussian 16, Revision A.03,

 -----------------------------------------------------------
 # opt freq B3LYP/6-31G(d) empiricaldispersion=gd3bj scf=xqc
 -----------------------------------------------------------

 ------------------------------
 CID_91197191_JID_2675_neutraal
 ------------------------------
 Symbolic Z-matrix:
 Charge =  0 Multiplicity = 1

 SCF Done:  E(RB3LYP) =  -824.624932309     A.U. after   14 cycles
 SCF Done:  E(RB3LYP) =  -824.626879787     A.U. after   12 cycles
 SCF Done:  E(RB3LYP) =  -824.627071625     A.U. after   12 cycles
 SCF Done:  E(RB3LYP) =  -824.627121475     A.U. after   11 cycles
 SCF Done:  E(RB3LYP) =  -824.627133737     A.U. after   10 cycles
 SCF Done:  E(RB3LYP) =  -824.627141034     A.U. after    9 cycles
 SCF Done:  E(RB3LYP) =  -824.627143536     A.U. after    9 cycles
 SCF Done:  E(RB3LYP) =  -824.627146440     A.U. after   10 cycles
 SCF Done:  E(RB3LYP) =  -824.627147291     A.U. after    8 cycles
 SCF Done:  E(RB3LYP) =  -824.627147899     A.U. after    8 cycles
 SCF Done:  E(RB3LYP) =  -824.627147922     A.U. after    7 cycles
 Optimization completed.
    -- Stationary point found.
 Normal termination of Gaussian 16 at Wed Dec  9 17:55:34 2020.

 --------------------------------------------------------------------
 #N Geom=AllCheck Guess=TCheck SCRF=Check GenChk RB3LYP/6-31G(d) Freq
 --------------------------------------------------------------------

 Structure from the checkpoint file:  "JID_2675.chk"
 ------------------------------
 CID_91197191_JID_2675_neutraal
 ------------------------------
 Charge =  0 Multiplicity = 1

 SCF Done:  E(RB3LYP) =  -824.627147922     A.U. after    1 cycles

  Exact polarizability: 183.166  -1.120 138.688  -8.001   1.228  71.689
 Approx polarizability: 277.424  -2.337 219.807 -20.671   2.688 113.227

                      1                      2                      3
                      A                      A                      A
 Frequencies --     44.7905                69.6618               109.9845
 Red. masses --      3.0105                 3.3447                 2.0514
 Frc consts  --      0.0036                 0.0096                 0.0146
 IR Inten    --      1.5403                 0.2963                 0.2845

                      4                      5                      6
                      A                      A                      A
 Frequencies --    147.8847               151.6401               195.1245
 Red. masses --      2.3991                 1.3066                 3.8988
 Frc consts  --      0.0309                 0.0177                 0.0875
 IR Inten    --      0.3793                 0.1008                 1.3135

                      7                      8                      9
                      A                      A                      A
 Frequencies --    209.8015               273.3193               303.5293
 Red. masses --      3.2973                 3.5355                 3.2427
 Frc consts  --      0.0855                 0.1556                 0.1760
 IR Inten    --      1.7201                 3.0275                 0.6852

                     10                     11                     12
                      A                      A                      A
 Frequencies --    390.4186               437.3334               493.9565
 Red. masses --      7.0789                 3.5462                 3.2434
 Frc consts  --      0.6357                 0.3996                 0.4663
 IR Inten    --      0.3093                 0.7249                 0.7129

                     13                     14                     15
                      A                      A                      A
 Frequencies --    511.8151               550.5826               567.2626
 Red. masses --      3.2187                 5.1835                 2.5918
 Frc consts  --      0.4968                 0.9258                 0.4914
 IR Inten    --      0.1717                 5.3369                 1.8888

                     16                     17                     18
                      A                      A                      A
 Frequencies --    606.8468               663.6847               701.4362
 Red. masses --      3.9518                 3.8166                 2.2606
 Frc consts  --      0.8574                 0.9905                 0.6553
 IR Inten    --      1.2824                 1.2365                 1.6080

                     19                     20                     21
                      A                      A                      A
 Frequencies --    703.9079               755.4387               803.0149
 Red. masses --      5.5529                 1.3508                 1.4309
 Frc consts  --      1.6211                 0.4542                 0.5436
 IR Inten    --      0.2683                 8.7544                19.0961

                     22                     23                     24
                      A                      A                      A
 Frequencies --    827.5397               836.2832               880.0321
 Red. masses --      3.1404                 3.2765                 2.9399
 Frc consts  --      1.2671                 1.3501                 1.3415
 IR Inten    --      5.5781                 2.5836                10.7152

                     25                     26                     27
                      A                      A                      A
 Frequencies --    894.9024               920.2892               926.0428
 Red. masses --      1.4664                 1.3772                 1.9092
 Frc consts  --      0.6919                 0.6872                 0.9646
 IR Inten    --     34.5657                 0.2011                 1.0307

                     28                     29                     30
                      A                      A                      A
 Frequencies --    973.0603               988.4796               998.4377
 Red. masses --      1.2872                 1.1920                 2.3638
 Frc consts  --      0.7181                 0.6862                 1.3883
 IR Inten    --      0.6475                 5.0678                 0.5669

                     31                     32                     33
                      A                      A                      A
 Frequencies --   1008.3322              1044.8089              1092.9931
 Red. masses --      1.3129                 1.8861                 2.2728
 Frc consts  --      0.7865                 1.2131                 1.5997
 IR Inten    --     21.2732                 0.5824                 2.2420

                     34                     35                     36
                      A                      A                      A
 Frequencies --   1134.6506              1168.3648              1179.8313
 Red. masses --      3.6189                 1.8237                 1.1858
 Frc consts  --      2.7451                 1.4667                 0.9725
 IR Inten    --      3.4134                 5.9426                 0.3337

                     37                     38                     39
                      A                      A                      A
 Frequencies --   1201.1454              1225.6389              1256.7263
 Red. masses --      1.4682                 1.8052                 1.3133
 Frc consts  --      1.2480                 1.5977                 1.2220
 IR Inten    --      2.1144                 0.1880                 1.0474

                     40                     41                     42
                      A                      A                      A
 Frequencies --   1308.9672              1319.8096              1328.0235
 Red. masses --      1.3804                 2.7467                 1.9199
 Frc consts  --      1.3935                 2.8189                 1.9950
 IR Inten    --      1.2248                 0.5545                 1.8592

                     43                     44                     45
                      A                      A                      A
 Frequencies --   1374.8278              1386.1684              1462.3329
 Red. masses --      3.2984                 1.1952                 1.8765
 Frc consts  --      3.6733                 1.3531                 2.3642
 IR Inten    --     11.2616                 4.8327                 7.9503

                     46                     47                     48
                      A                      A                      A
 Frequencies --   1477.6741              1497.7573              1502.9941
 Red. masses --      1.5604                 1.0571                 1.3084
 Frc consts  --      2.0075                 1.3971                 1.7414
 IR Inten    --      5.0347                 7.2723                 4.5451

                     49                     50                     51
                      A                      A                      A
 Frequencies --   1507.6024              1513.3704              1522.9411
 Red. masses --      1.9044                 1.0631                 1.0930
 Frc consts  --      2.5503                 1.4345                 1.4937
 IR Inten    --      6.2175                 7.2370                 3.8229

                     52                     53                     54
                      A                      A                      A
 Frequencies --   1625.5572              1644.8186              1729.9602
 Red. masses --      6.5332                 6.3844                 5.8219
 Frc consts  --     10.1714                10.1767                10.2657
 IR Inten    --      4.7011                 0.1021                17.7101

                     55                     56                     57
                      A                      A                      A
 Frequencies --   3040.0324              3050.9670              3068.7699
 Red. masses --      1.0712                 1.0674                 1.0291
 Frc consts  --      5.8329                 5.8539                 5.7101
 IR Inten    --     23.7256                23.0563                31.3251

                     58                     59                     60
                      A                      A                      A
 Frequencies --   3103.3646              3113.1426              3156.3966
 Red. masses --      1.0909                 1.0986                 1.1068
 Frc consts  --      6.1903                 6.2734                 6.4969
 IR Inten    --     12.9261                25.4049                11.4935

                     61                     62                     63
                      A                      A                      A
 Frequencies --   3158.8221              3164.1764              3187.8534
 Red. masses --      1.1061                 1.0593                 1.0861
 Frc consts  --      6.5025                 6.2484                 6.5032
 IR Inten    --      8.4891                 7.6729                 4.5905

                     64                     65                     66
                      A                      A                      A
 Frequencies --   3202.4483              3214.9388              3240.8124
 Red. masses --      1.0918                 1.0952                 1.1163
 Frc consts  --      6.5974                 6.6693                 6.9075
 IR Inten    --     13.9751                15.7579                12.8227

 - Thermochemistry -
 -------------------
 Temperature   298.150 Kelvin.  Pressure   1.00000 Atm.
 Atom     1 has atomic number  6 and mass  12.00000

 Molecular mass:   176.06597 amu.
 Principal axes and moments of inertia in atomic units:
                           1         2         3
     Eigenvalues --  1288.863772876.942093876.12656
           X            0.99991  -0.00052   0.01308
           Y            0.00058   0.99999  -0.00402
           Z           -0.01308   0.00403   0.99991
 This molecule is an asymmetric top.
 Rotational symmetry number  1.
 Warning -- assumption of classical behavior for rotation
           may cause significant error
 Rotational temperatures (Kelvin)      0.06720     0.03011     0.02235
 Rotational constants (GHZ):           1.40026     0.62731     0.46560
 Zero-point vibrational energy     521293.8 (Joules/Mol)
                                  124.59221 (Kcal/Mol)
 Warning -- explicit consideration of  16 degrees of freedom as
           vibrations may cause significant error
 Vibrational temperatures:     64.44   100.23   158.24   212.77   218.18
          (Kelvin)            280.74   301.86   393.25   436.71   561.73
                              629.23   710.69   736.39   792.17   816.16
                              873.12   954.89  1009.21  1012.77  1086.91
                             1155.36  1190.64  1203.22  1266.17  1287.57
                             1324.09  1332.37  1400.02  1422.20  1436.53
                             1450.77  1503.25  1572.57  1632.51  1681.02
                             1697.51  1728.18  1763.42  1808.15  1883.31
                             1898.91  1910.73  1978.07  1994.39  2103.97
                             2126.04  2154.94  2162.47  2169.10  2177.40
                             2191.17  2338.81  2366.53  2489.03  4373.93
                             4389.66  4415.28  4465.05  4479.12  4541.35
                             4544.84  4552.54  4586.61  4607.61  4625.58
                             4662.81

 Zero-point correction=                           0.198550 (Hartree/Particle)
 Thermal correction to Energy=                    0.209848
 Thermal correction to Enthalpy=                  0.210792
 Thermal correction to Gibbs Free Energy=         0.160707
 Sum of electronic and zero-point Energies=           -824.428598
 Sum of electronic and thermal Energies=              -824.417300
 Sum of electronic and thermal Enthalpies=            -824.416356
 Sum of electronic and thermal Free Energies=         -824.466441

                     E (Thermal)             CV                S
                      KCal/Mol        Cal/Mol-Kelvin    Cal/Mol-Kelvin
 Total                  131.681             43.158            105.413
 Electronic               0.000              0.000              0.000
 Translational            0.889              2.981             41.404
 Rotational               0.889              2.981             31.042
 Vibrational            129.904             37.197             32.967
 Vibration     1          0.595              1.979              5.035
 Vibration     2          0.598              1.969              4.163
 Vibration     3          0.606              1.941              3.269
 Vibration     4          0.617              1.905              2.699
 Vibration     5          0.619              1.901              2.652
 Vibration     6          0.636              1.847              2.179
 Vibration     7          0.642              1.826              2.045
 Vibration     8          0.676              1.723              1.575
 Vibration     9          0.695              1.667              1.397
 Vibration    10          0.758              1.491              0.999
 Vibration    11          0.798              1.389              0.835
 Vibration    12          0.850              1.263              0.673
 Vibration    13          0.867              1.224              0.629
 Vibration    14          0.906              1.138              0.543
 Vibration    15          0.923              1.102              0.510
 Vibration    16          0.966              1.017              0.438

 Optimization completed.
    -- Stationary point found.
 Normal termination of Gaussian 16 at Wed Dec  9 18:02:20 2020.

 ----------------------------------------------------------------------
 # B3LYP/6-311++G(d,p) empiricaldispersion=gd3bj scf=xqc pop=npa geom=c
 heck
 ----------------------------------------------------------------------

 --------------------------------------
 CID_91197191_JID_2675_Energie_neutraal
 --------------------------------------
 Structure from the checkpoint file:  "JID_2675.chk"
 Charge =  0 Multiplicity = 1

 SCF Done:  E(RB3LYP) =  -824.761710375     A.U. after   15 cycles
 Normal termination of Gaussian 16 at Wed Dec  9 18:04:56 2020.

 ----------------------------------------------------------------------
 # B3LYP/6-311++G(d,p) empiricaldispersion=gd3bj scf=xqc pop=npa geom=c
 heck
 ----------------------------------------------------------------------

 ------------------------------------
 CID_91197191_JID_2675_Energie_kation
 ------------------------------------
 Structure from the checkpoint file:  "JID_2675.chk"
 Charge =  1 Multiplicity = 2

 SCF Done:  E(UB3LYP) =  -824.472941076     A.U. after   25 cycles
 Normal termination of Gaussian 16 at Wed Dec  9 18:10:21 2020.
 Gaussian 16:  ES64L-G16RevA.03 25-Dec-2016

 ----------------------------------------------------------------------
 # B3LYP/6-311++G(d,p) empiricaldispersion=gd3bj scf=xqc pop=npa geom=c
 heck
 ----------------------------------------------------------------------

 -----------------------------------
 CID_91197191_JID_2675_Energie_anion
 -----------------------------------
 Structure from the checkpoint file:  "JID_2675.chk"
 Charge = -1 Multiplicity = 2

                         Standard orientation:
 ---------------------------------------------------------------------
 Center     Atomic      Atomic             Coordinates (Angstroms)
 Number     Number       Type             X           Y           Z
 ---------------------------------------------------------------------
      1          6           0        2.930329   -1.057477    1.143554
      2         16           0        2.653337   -0.300102   -0.502420
      3          6           0        1.075246    0.506409   -0.228975
      4          6           0        1.022814    1.903877   -0.132377
      5          6           0       -0.198352    2.562390    0.043069
      6          6           0       -1.386991    1.840007    0.126239
      7          6           0       -1.342469    0.447129    0.023829
      8          6           0       -0.118242   -0.218900   -0.156684
      9          6           0       -0.326905   -1.713780   -0.228561
     10          6           0       -1.862547   -1.866524   -0.381986
     11          6           0       -2.446909   -0.527549    0.052328
     12          6           0       -3.716767   -0.295262    0.400720
     13          1           0        3.904112   -1.552694    1.100927
     14          1           0        2.164360   -1.801120    1.375590
     15          1           0        2.949576   -0.290204    1.921057
     16          1           0        1.946110    2.470790   -0.196771
     17          1           0       -0.216542    3.646387    0.111820
     18          1           0       -2.335873    2.354038    0.250856
     19          1           0        0.019051   -2.191983    0.697695
     20          1           0        0.239437   -2.170677   -1.045809
     21          1           0       -2.268687   -2.704793    0.191493
     22          1           0       -2.112846   -2.044999   -1.435614
     23          1           0       -4.057516    0.692519    0.698665
     24          1           0       -4.459821   -1.087571    0.401876
 ---------------------------------------------------------------------

 SCF Done:  E(UB3LYP) =  -824.757860014     A.U. after   30 cycles

 The electronic state is 2-A.
 Alpha  occ. eigenvalues --  -88.71279 -10.06816 -10.05301 -10.04854 -10.04684
 Alpha  occ. eigenvalues --  -10.04470 -10.03710 -10.03587 -10.02837 -10.02655
 Alpha  occ. eigenvalues --  -10.02160 -10.01246  -7.79831  -5.76229  -5.75867
 Alpha  occ. eigenvalues --   -5.75215  -0.74070  -0.68664  -0.66030  -0.62080
 Alpha  occ. eigenvalues --   -0.59050  -0.58228  -0.51638  -0.51057  -0.46553
 Alpha  occ. eigenvalues --   -0.44271  -0.39161  -0.35557  -0.34203  -0.33269
 Alpha  occ. eigenvalues --   -0.31801  -0.30958  -0.30384  -0.28908  -0.27155
 Alpha  occ. eigenvalues --   -0.26595  -0.24959  -0.23623  -0.23276  -0.22566
 Alpha  occ. eigenvalues --   -0.21412  -0.19902  -0.18191  -0.15534  -0.12027
 Alpha  occ. eigenvalues --   -0.09911  -0.08838   0.05133
 Alpha virt. eigenvalues --    0.07633   0.08980   0.09461   0.10479   0.10651
 Alpha virt. eigenvalues --    0.11289   0.11645   0.12083   0.12287   0.13240
 Alpha virt. eigenvalues --    0.14048   0.14497   0.15001   0.15252   0.16466

  Beta  occ. eigenvalues --  -88.71276 -10.06720 -10.05158 -10.04848 -10.04698
  Beta  occ. eigenvalues --  -10.04519 -10.03797 -10.03478 -10.02762 -10.02397
  Beta  occ. eigenvalues --  -10.01853 -10.01079  -7.79828  -5.76218  -5.75871
  Beta  occ. eigenvalues --   -5.75210  -0.73819  -0.68371  -0.65792  -0.61859
  Beta  occ. eigenvalues --   -0.58667  -0.58069  -0.51377  -0.50795  -0.46235
  Beta  occ. eigenvalues --   -0.44165  -0.38884  -0.35376  -0.34061  -0.33139
  Beta  occ. eigenvalues --   -0.31608  -0.30837  -0.30293  -0.28782  -0.26982
  Beta  occ. eigenvalues --   -0.26434  -0.24793  -0.23283  -0.23070  -0.22313
  Beta  occ. eigenvalues --   -0.21070  -0.19741  -0.18016  -0.14498  -0.11365
  Beta  occ. eigenvalues --   -0.09631  -0.07612
  Beta virt. eigenvalues --    0.08029   0.08911   0.09374   0.09725   0.10413
  Beta virt. eigenvalues --    0.10866   0.11221   0.12132   0.12246   0.12343
  Beta virt. eigenvalues --    0.13299   0.13976   0.14384   0.15181   0.15436

 Mulliken charges and spin densities:
               1          2
     1  C    0.158932  -0.829286
     2  S   -0.553671   0.177183
     3  C    0.310099   0.125849
     4  C   -0.356334   0.179507
     5  C   -0.334793  -0.058303
     6  C   -0.661194   0.289684
     7  C    0.994603   0.004869
     8  C    0.076363  -0.009850
     9  C   -0.176256   0.060646
    10  C   -0.910210  -0.084339
    11  C    0.695535  -0.007512
    12  C   -0.827397   0.258476
    13  H   -0.295376   0.440986
    14  H   -0.092889   0.241428
    15  H    0.028207   0.142132
    16  H    0.140930  -0.015178
    17  H    0.118213   0.005647
    18  H    0.062101  -0.016817
    19  H    0.127261  -0.038331
    20  H    0.143037   0.010512
    21  H    0.049329   0.094055
    22  H    0.105227   0.049098
    23  H    0.094925  -0.008130
    24  H    0.103358  -0.012325
 Sum of Mulliken charges =  -1.00000   1.00000

 Dipole moment (field-independent basis, Debye):
    X=             -0.4165    Y=              0.3705    Z=             -0.7809  Tot=              0.9595
 Quadrupole moment (field-independent basis, Debye-Ang):
   XX=           -131.4141   YY=            -98.0347   ZZ=            -97.4296
   XY=              5.7120   XZ=             -1.4966   YZ=              3.7948

 Summary of Natural Population Analysis:

                                       Natural Population
                Natural  -----------------------------------------------
    Atom  No    Charge         Core      Valence    Rydberg      Total
 -----------------------------------------------------------------------
      C    1   -0.34055      0.99961     2.33460    0.00634     3.34055
      S    2    0.08657      4.99957     2.89156    0.02230     7.91343
      C    3   -0.07668      0.99932     2.06331    0.01405     3.07668
      C    4   -0.05485      0.99951     2.04597    0.00937     3.05485
      C    5   -0.12353      0.99958     2.11573    0.00822     3.12353
      C    6   -0.03403      0.99953     2.02418    0.01032     3.03403
      C    7   -0.02425      0.99943     2.01577    0.00905     3.02425
      C    8   -0.01217      0.99942     2.00241    0.01034     3.01217
      C    9   -0.19635      0.99961     2.18761    0.00913     3.19635
      C   10   -0.19404      0.99962     2.18782    0.00660     3.19404
      C   11    0.00798      0.99952     1.98310    0.00940     2.99202
      C   12   -0.18122      0.99952     2.17322    0.00849     3.18122
      H   13    0.10160      0.00000     0.39622    0.00218     0.39840
      H   14    0.09803      0.00000     0.40029    0.00167     0.40197
      H   15    0.09881      0.00000     0.39972    0.00147     0.40119
      H   16    0.09316      0.00000     0.40566    0.00118     0.40684
      H   17    0.09104      0.00000     0.40799    0.00097     0.40896
      H   18    0.09148      0.00000     0.40742    0.00110     0.40852
      H   19    0.09735      0.00000     0.40120    0.00145     0.40265
      H   20    0.10302      0.00000     0.39575    0.00123     0.39698
      H   21    0.09694      0.00000     0.40186    0.00120     0.40306
      H   22    0.09819      0.00000     0.40068    0.00113     0.40181
      H   23    0.08868      0.00000     0.41053    0.00080     0.41132
      H   24    0.08481      0.00000     0.41437    0.00082     0.41519
 =======================================================================
   * Total *   -0.00000     15.99423    30.86696    0.13881    47.00000

 Normal termination of Gaussian 16 at Wed Dec  9 18:17:07 2020.
