 Gaussian 16, Revision A.03,

 -----------------------------------------------------------
 # opt freq B3LYP/6-31G(d) empiricaldispersion=gd3bj scf=xqc
 -----------------------------------------------------------

 ------------------------------
 CID_84719378_JID_4479_neutraal
 ------------------------------
 Symbolic Z-matrix:
 Charge =  0 Multiplicity = 1

 SCF Done:  E(RB3LYP) =  -592.481468283     A.U. after   15 cycles
 SCF Done:  E(RB3LYP) =  -592.493990107     A.U. after   12 cycles
 SCF Done:  E(RB3LYP) =  -592.495140377     A.U. after   12 cycles
 SCF Done:  E(RB3LYP) =  -592.495370596     A.U. after   12 cycles
 SCF Done:  E(RB3LYP) =  -592.495484799     A.U. after   12 cycles
 SCF Done:  E(RB3LYP) =  -592.495523719     A.U. after    9 cycles
 SCF Done:  E(RB3LYP) =  -592.495559461     A.U. after   12 cycles
 SCF Done:  E(RB3LYP) =  -592.495573320     A.U. after   10 cycles
 SCF Done:  E(RB3LYP) =  -592.495574917     A.U. after    9 cycles
 SCF Done:  E(RB3LYP) =  -592.495575426     A.U. after    8 cycles
 SCF Done:  E(RB3LYP) =  -592.495575521     A.U. after    7 cycles
 SCF Done:  E(RB3LYP) =  -592.495575565     A.U. after    7 cycles
 Optimization completed.
    -- Stationary point found.
 Normal termination of Gaussian 16 at Thu Dec 10 09:52:45 2020.

 --------------------------------------------------------------------
 #N Geom=AllCheck Guess=TCheck SCRF=Check GenChk RB3LYP/6-31G(d) Freq
 --------------------------------------------------------------------

 Structure from the checkpoint file:  "JID_4479.chk"
 ------------------------------
 CID_84719378_JID_4479_neutraal
 ------------------------------
 Charge =  0 Multiplicity = 1

 SCF Done:  E(RB3LYP) =  -592.495575565     A.U. after    1 cycles

  Exact polarizability: 186.644   8.861 132.440  16.698  -9.143  84.086
 Approx polarizability: 264.348  21.103 241.192  33.267 -26.176 128.309

                      1                      2                      3
                      A                      A                      A
 Frequencies --     29.5733                36.0204                50.2362
 Red. masses --      1.0848                 3.1398                 4.4750
 Frc consts  --      0.0006                 0.0024                 0.0067
 IR Inten    --      0.1411                 0.6700                 0.1368

                      4                      5                      6
                      A                      A                      A
 Frequencies --     86.8791               147.7956               158.6361
 Red. masses --      3.4501                 2.9726                 2.9620
 Frc consts  --      0.0153                 0.0383                 0.0439
 IR Inten    --      1.0485                 4.1302                 7.0445

                      7                      8                      9
                      A                      A                      A
 Frequencies --    219.8540               225.7099               246.5495
 Red. masses --      2.9899                 3.0699                 2.2781
 Frc consts  --      0.0851                 0.0921                 0.0816
 IR Inten    --      7.4240                 2.4531                10.4872

                     10                     11                     12
                      A                      A                      A
 Frequencies --    273.6119               336.9708               345.8422
 Red. masses --      1.6132                 2.4115                 2.3749
 Frc consts  --      0.0712                 0.1613                 0.1674
 IR Inten    --     31.4309                 1.2279                 8.7245

                     13                     14                     15
                      A                      A                      A
 Frequencies --    402.6539               447.7983               459.9097
 Red. masses --      4.0140                 3.0517                 2.7308
 Frc consts  --      0.3834                 0.3605                 0.3403
 IR Inten    --      2.5221                 2.3649                 2.6784

                     16                     17                     18
                      A                      A                      A
 Frequencies --    485.3245               543.6512               597.6061
 Red. masses --      3.6034                 3.8953                 2.3200
 Frc consts  --      0.5001                 0.6783                 0.4882
 IR Inten    --      9.8692                 0.3472                36.7627

                     19                     20                     21
                      A                      A                      A
 Frequencies --    606.5987               641.8267               671.3583
 Red. masses --      4.9047                 3.1394                 2.0083
 Frc consts  --      1.0633                 0.7620                 0.5333
 IR Inten    --      1.1318                 1.3209                24.0332

                     22                     23                     24
                      A                      A                      A
 Frequencies --    685.1132               767.3431               779.8371
 Red. masses --      2.5202                 3.6422                 2.8468
 Frc consts  --      0.6970                 1.2636                 1.0200
 IR Inten    --     29.0346                 1.5543                 6.7143

                     25                     26                     27
                      A                      A                      A
 Frequencies --    793.9776               818.6807               840.9868
 Red. masses --      2.0732                 1.9565                 2.6159
 Frc consts  --      0.7700                 0.7726                 1.0901
 IR Inten    --      5.5835                18.9743                 2.0895

                     28                     29                     30
                      A                      A                      A
 Frequencies --    862.5880               892.8680               904.4895
 Red. masses --      2.5073                 1.4514                 1.5364
 Frc consts  --      1.0992                 0.6817                 0.7406
 IR Inten    --      8.2087                57.7386                85.8668

                     31                     32                     33
                      A                      A                      A
 Frequencies --    952.4777               953.8935               982.6272
 Red. masses --      2.7831                 1.2628                 1.8200
 Frc consts  --      1.4876                 0.6770                 1.0354
 IR Inten    --      5.9351                 0.2505                12.6832

                     34                     35                     36
                      A                      A                      A
 Frequencies --   1008.3682              1027.7357              1069.3659
 Red. masses --      1.5883                 1.7123                 1.4280
 Frc consts  --      0.9516                 1.0656                 0.9621
 IR Inten    --     21.6080                 3.7204                 3.1567

                     37                     38                     39
                      A                      A                      A
 Frequencies --   1078.2355              1104.8190              1136.5238
 Red. masses --      2.2288                 4.3029                 2.0393
 Frc consts  --      1.5267                 3.0945                 1.5520
 IR Inten    --     11.7217                 9.8451                 6.9901

                     40                     41                     42
                      A                      A                      A
 Frequencies --   1160.0715              1163.3126              1193.2752
 Red. masses --      2.2126                 1.3080                 1.3441
 Frc consts  --      1.7543                 1.0429                 1.1276
 IR Inten    --     29.3593                 3.6843                 4.4722

                     43                     44                     45
                      A                      A                      A
 Frequencies --   1201.9020              1223.4214              1283.7296
 Red. masses --      2.9107                 1.2934                 1.6938
 Frc consts  --      2.4773                 1.1406                 1.6446
 IR Inten    --     14.6757                 2.8661                 3.3197

                     46                     47                     48
                      A                      A                      A
 Frequencies --   1291.3050              1313.7510              1361.2607
 Red. masses --      1.4588                 2.2319                 2.1643
 Frc consts  --      1.4332                 2.2696                 2.3629
 IR Inten    --      0.1903                 5.3314                10.1354

                     49                     50                     51
                      A                      A                      A
 Frequencies --   1367.0576              1379.7777              1402.3944
 Red. masses --      1.3126                 1.2987                 1.4181
 Frc consts  --      1.4453                 1.4567                 1.6432
 IR Inten    --      3.3820                 4.8838                14.2871

                     52                     53                     54
                      A                      A                      A
 Frequencies --   1414.4100              1432.7445              1449.9539
 Red. masses --      2.3882                 3.1050                 1.4370
 Frc consts  --      2.8150                 3.7553                 1.7800
 IR Inten    --     12.3828                 7.9790                 9.9946

                     55                     56                     57
                      A                      A                      A
 Frequencies --   1456.1555              1503.7001              1504.1683
 Red. masses --      1.5622                 1.3662                 1.1061
 Frc consts  --      1.9516                 1.8201                 1.4745
 IR Inten    --      2.7132                 1.2914                 6.1729

                     58                     59                     60
                      A                      A                      A
 Frequencies --   1507.9583              1522.8540              1526.6481
 Red. masses --      1.5831                 1.3199                 1.2729
 Frc consts  --      2.1209                 1.8034                 1.7479
 IR Inten    --      8.0209                 4.3304                 9.0328

                     61                     62                     63
                      A                      A                      A
 Frequencies --   1536.4146              1546.4053              1573.3450
 Red. masses --      1.0891                 2.4295                 4.2363
 Frc consts  --      1.5147                 3.4231                 6.1785
 IR Inten    --      4.4195                 4.3096                 6.5889

                     64                     65                     66
                      A                      A                      A
 Frequencies --   1613.0318              1694.8105              1704.3398
 Red. masses --      4.9533                 6.3276                 1.1032
 Frc consts  --      7.5933                10.7086                 1.8881
 IR Inten    --      0.3818                32.5861                25.1087

                     67                     68                     69
                      A                      A                      A
 Frequencies --   2979.5418              3036.1776              3044.2264
 Red. masses --      1.0719                 1.0650                 1.0575
 Frc consts  --      5.6065                 5.7842                 5.7743
 IR Inten    --     61.9900                17.6835                49.3134

                     70                     71                     72
                      A                      A                      A
 Frequencies --   3044.5325              3072.8824              3085.2484
 Red. masses --      1.0429                 1.0905                 1.0985
 Frc consts  --      5.6953                 6.0669                 6.1606
 IR Inten    --     30.9608                47.9334                39.8915

                     73                     74                     75
                      A                      A                      A
 Frequencies --   3097.3915              3099.5752              3119.9469
 Red. masses --      1.0998                 1.1007                 1.1019
 Frc consts  --      6.2168                 6.2307                 6.3198
 IR Inten    --     50.9071                13.5606                14.6851

                     76                     77                     78
                      A                      A                      A
 Frequencies --   3178.5775              3190.2146              3197.2990
 Red. masses --      1.0859                 1.0906                 1.0952
 Frc consts  --      6.4639                 6.5394                 6.5962
 IR Inten    --      5.1808                17.4995                22.2051

                     79                     80                     81
                      A                      A                      A
 Frequencies --   3467.1083              3547.5362              3639.5204
 Red. masses --      1.0501                 1.0914                 1.0808
 Frc consts  --      7.4370                 8.0929                 8.4348
 IR Inten    --      3.4877                 0.2049                85.6456

 - Thermochemistry -
 -------------------
 Temperature   298.150 Kelvin.  Pressure   1.00000 Atm.
 Atom     1 has atomic number  6 and mass  12.00000

 Molecular mass:   189.12660 amu.
 Principal axes and moments of inertia in atomic units:
                           1         2         3
     Eigenvalues --  1209.863444771.525125281.61261
           X            0.99995  -0.00861   0.00458
           Y            0.00862   0.99996  -0.00196
           Z           -0.00456   0.00200   0.99999
 This molecule is an asymmetric top.
 Rotational symmetry number  1.
 Warning -- assumption of classical behavior for rotation
           may cause significant error
 Rotational temperatures (Kelvin)      0.07159     0.01815     0.01640
 Rotational constants (GHZ):           1.49169     0.37823     0.34170
 Zero-point vibrational energy     656763.7 (Joules/Mol)
                                  156.97029 (Kcal/Mol)
 Warning -- explicit consideration of  19 degrees of freedom as
           vibrations may cause significant error
 Vibrational temperatures:     42.55    51.83    72.28   125.00   212.64
          (Kelvin)            228.24   316.32   324.75   354.73   393.67
                              484.83   497.59   579.33   644.28   661.71
                              698.27   782.19   859.82   872.76   923.45
                              965.93   985.73  1104.04  1122.01  1142.36
                             1177.90  1209.99  1241.07  1284.64  1301.36
                             1370.40  1372.44  1413.78  1450.82  1478.68
                             1538.58  1551.34  1589.59  1635.20  1669.08
                             1673.75  1716.86  1729.27  1760.23  1847.00
                             1857.90  1890.19  1958.55  1966.89  1985.19
                             2017.73  2035.02  2061.40  2086.16  2095.08
                             2163.49  2164.16  2169.62  2191.05  2196.51
                             2210.56  2224.93  2263.69  2320.79  2438.45
                             2452.16  4286.90  4368.38  4379.96  4380.40
                             4421.19  4438.98  4456.46  4459.60  4488.91
                             4573.26  4590.01  4600.20  4988.40  5104.11
                             5236.46

 Zero-point correction=                           0.250148 (Hartree/Particle)
 Thermal correction to Energy=                    0.263374
 Thermal correction to Enthalpy=                  0.264318
 Thermal correction to Gibbs Free Energy=         0.208896
 Sum of electronic and zero-point Energies=           -592.245427
 Sum of electronic and thermal Energies=              -592.232202
 Sum of electronic and thermal Enthalpies=            -592.231257
 Sum of electronic and thermal Free Energies=         -592.286679

                     E (Thermal)             CV                S
                      KCal/Mol        Cal/Mol-Kelvin    Cal/Mol-Kelvin
 Total                  165.270             50.235            116.645
 Electronic               0.000              0.000              0.000
 Translational            0.889              2.981             41.618
 Rotational               0.889              2.981             31.789
 Vibrational            163.492             44.273             43.239
 Vibration     1          0.593              1.984              5.858
 Vibration     2          0.594              1.982              5.467
 Vibration     3          0.595              1.978              4.808
 Vibration     4          0.601              1.958              3.729
 Vibration     5          0.617              1.905              2.700
 Vibration     6          0.621              1.893              2.566
 Vibration     7          0.647              1.811              1.960
 Vibration     8          0.650              1.802              1.913
 Vibration     9          0.661              1.768              1.755
 Vibration    10          0.676              1.722              1.573
 Vibration    11          0.718              1.602              1.226
 Vibration    12          0.724              1.584              1.185
 Vibration    13          0.768              1.464              0.953
 Vibration    14          0.807              1.366              0.802
 Vibration    15          0.818              1.339              0.766
 Vibration    16          0.841              1.283              0.696
 Vibration    17          0.899              1.154              0.557
 Vibration    18          0.956              1.037              0.454
 Vibration    19          0.965              1.018              0.438

                           ! Non-Optimized Parameters !
 Normal termination of Gaussian 16 at Thu Dec 10 10:00:28 2020.

 ----------------------------------------------------------------------
 # B3LYP/6-311++G(d,p) empiricaldispersion=gd3bj scf=xqc pop=npa geom=c
 heck
 ----------------------------------------------------------------------

 --------------------------------------
 CID_84719378_JID_4479_Energie_neutraal
 --------------------------------------
 Structure from the checkpoint file:  "JID_4479.chk"
 Charge =  0 Multiplicity = 1

 SCF Done:  E(RB3LYP) =  -592.660788380     A.U. after   15 cycles
 Normal termination of Gaussian 16 at Thu Dec 10 10:03:33 2020.

 ----------------------------------------------------------------------
 # B3LYP/6-311++G(d,p) empiricaldispersion=gd3bj scf=xqc pop=npa geom=c
 heck
 ----------------------------------------------------------------------

 ------------------------------------
 CID_84719378_JID_4479_Energie_kation
 ------------------------------------
 Structure from the checkpoint file:  "JID_4479.chk"
 Charge =  1 Multiplicity = 2

 SCF Done:  E(UB3LYP) =  -592.387059373     A.U. after   24 cycles
 Normal termination of Gaussian 16 at Thu Dec 10 10:10:07 2020.
 Gaussian 16:  ES64L-G16RevA.03 25-Dec-2016

 ----------------------------------------------------------------------
 # B3LYP/6-311++G(d,p) empiricaldispersion=gd3bj scf=xqc pop=npa geom=c
 heck
 ----------------------------------------------------------------------

 -----------------------------------
 CID_84719378_JID_4479_Energie_anion
 -----------------------------------
 Structure from the checkpoint file:  "JID_4479.chk"
 Charge = -1 Multiplicity = 2

                         Standard orientation:
 ---------------------------------------------------------------------
 Center     Atomic      Atomic             Coordinates (Angstroms)
 Number     Number       Type             X           Y           Z
 ---------------------------------------------------------------------
      1          6           0        4.152148   -0.805352    0.815206
      2          6           0        2.976400   -0.051112    0.290281
      3          6           0        1.659293   -0.438661    0.008649
      4          6           0        0.924217   -1.645706    0.107887
      5          6           0       -0.395283   -1.637072   -0.274260
      6          6           0       -1.044096   -0.456160   -0.767722
      7          6           0       -0.339787    0.723666   -0.876749
      8          6           0        1.023957    0.750397   -0.488544
      9          7           0        1.875423    1.796755   -0.514774
     10          7           0        3.023204    1.262981   -0.041074
     11          6           0       -2.510757   -0.521437   -1.130289
     12          6           0       -3.430823   -0.800711    0.076149
     13          6           0       -3.236465    0.174439    1.239806
     14          7           0       -3.460071    1.561578    0.809412
     15          1           0        3.895950   -1.341486    1.735905
     16          1           0        4.510229   -1.548563    0.092088
     17          1           0        4.986851   -0.133694    1.043093
     18          1           0        1.392221   -2.556072    0.473053
     19          1           0       -0.977076   -2.552830   -0.209052
     20          1           0       -0.806945    1.624397   -1.265958
     21          1           0        3.830238    1.866277    0.037512
     22          1           0       -2.812681    0.423179   -1.595703
     23          1           0       -2.673817   -1.305002   -1.882546
     24          1           0       -4.472017   -0.749772   -0.263718
     25          1           0       -3.257045   -1.820232    0.445301
     26          1           0       -3.973895   -0.057471    2.017455
     27          1           0       -2.240244    0.007761    1.683809
     28          1           0       -3.497885    2.164890    1.629445
     29          1           0       -2.646608    1.875669    0.281892
 ---------------------------------------------------------------------

 SCF Done:  E(UB3LYP) =  -592.652259798     A.U. after   33 cycles
 SCF Done:  E(UB3LYP) =  -592.652259798     a.u. after    1 cycles

 The electronic state is 2-A.
 Alpha  occ. eigenvalues --  -14.26354 -14.20010 -14.19740 -10.09573 -10.08995
 Alpha  occ. eigenvalues --  -10.07158 -10.07046 -10.06931 -10.06301 -10.06018
 Alpha  occ. eigenvalues --  -10.05236 -10.04824 -10.04796 -10.04674  -0.92212
 Alpha  occ. eigenvalues --   -0.79065  -0.73792  -0.70599  -0.68643  -0.64440
 Alpha  occ. eigenvalues --   -0.62622  -0.58801  -0.57654  -0.52439  -0.49303
 Alpha  occ. eigenvalues --   -0.45956  -0.45090  -0.40446  -0.39979  -0.37953
 Alpha  occ. eigenvalues --   -0.37540  -0.34743  -0.33783  -0.33351  -0.32526
 Alpha  occ. eigenvalues --   -0.31758  -0.29814  -0.29623  -0.29134  -0.28768
 Alpha  occ. eigenvalues --   -0.26171  -0.25415  -0.24971  -0.23324  -0.22370
 Alpha  occ. eigenvalues --   -0.22236  -0.16881  -0.16453  -0.15349  -0.12545
 Alpha  occ. eigenvalues --   -0.08962   0.04727
 Alpha virt. eigenvalues --    0.06637   0.06865   0.07967   0.08607   0.08931
 Alpha virt. eigenvalues --    0.09723   0.10983   0.11028   0.11164   0.11558
 Alpha virt. eigenvalues --    0.12193   0.12743   0.13641   0.14075   0.14637

  Beta  occ. eigenvalues --  -14.26181 -14.19997 -14.19664 -10.09571 -10.08897
  Beta  occ. eigenvalues --  -10.07155 -10.07071 -10.06933 -10.06248 -10.05975
  Beta  occ. eigenvalues --  -10.05089 -10.04823 -10.04797 -10.04562  -0.91991
  Beta  occ. eigenvalues --   -0.79039  -0.73638  -0.70411  -0.68564  -0.64292
  Beta  occ. eigenvalues --   -0.62435  -0.58667  -0.57572  -0.52232  -0.49258
  Beta  occ. eigenvalues --   -0.45875  -0.44963  -0.40412  -0.39877  -0.37847
  Beta  occ. eigenvalues --   -0.37460  -0.34647  -0.33407  -0.33284  -0.32462
  Beta  occ. eigenvalues --   -0.31664  -0.29758  -0.29550  -0.28928  -0.28711
  Beta  occ. eigenvalues --   -0.26105  -0.25341  -0.24890  -0.23280  -0.22309
  Beta  occ. eigenvalues --   -0.21802  -0.16789  -0.15921  -0.15314  -0.12141
  Beta  occ. eigenvalues --   -0.08274
  Beta virt. eigenvalues --    0.06609   0.07713   0.07970   0.08491   0.08741
  Beta virt. eigenvalues --    0.09388   0.10163   0.11051   0.11132   0.11491
  Beta virt. eigenvalues --    0.11874   0.12369   0.12936   0.13928   0.14179

 Mulliken charges and spin densities:
               1          2
     1  C    3.018769  -3.640451
     2  C   -3.540916   3.806139
     3  C    3.341844  -2.405094
     4  C   -1.347454   0.576256
     5  C   -0.174807  -0.531744
     6  C    0.889849   0.080414
     7  C   -1.076105   0.425462
     8  C   -0.438462   0.134727
     9  N   -0.195495   0.060263
    10  N   -0.048651  -0.013712
    11  C   -0.147071  -0.260100
    12  C   -0.027835   0.032592
    13  C   -0.459545  -0.147026
    14  N   -0.348605  -0.014511
    15  H   -0.435125   0.603500
    16  H    0.063894   0.090156
    17  H   -1.105084   1.264621
    18  H   -0.117504   0.247945
    19  H    0.096422   0.020162
    20  H    0.111529   0.010086
    21  H   -0.124157   0.454761
    22  H    0.174540  -0.004254
    23  H    0.137644   0.000112
    24  H    0.135795  -0.004938
    25  H    0.104466   0.002108
    26  H    0.095007   0.041385
    27  H    0.097619   0.057235
    28  H    0.131772   0.091086
    29  H    0.187666   0.022820
 Sum of Mulliken charges =  -1.00000   1.00000

 Dipole moment (field-independent basis, Debye):
    X=             -9.6530    Y=             -2.0675    Z=             -2.5037  Tot=             10.1845
 Quadrupole moment (field-independent basis, Debye-Ang):
   XX=           -174.8104   YY=           -111.9825   ZZ=           -109.5075
   XY=             -0.6762   XZ=            -16.6746   YZ=              3.6560

 Summary of Natural Population Analysis:

                                       Natural Population
                Natural  -----------------------------------------------
    Atom  No    Charge         Core      Valence    Rydberg      Total
 -----------------------------------------------------------------------
      C    1   -0.30152      0.99964     2.29606    0.00582     3.30152
      C    2    0.10184      0.99952     1.88641    0.01224     2.89816
      C    3   -0.08103      0.99945     2.07175    0.00983     3.08103
      C    4   -0.06128      0.99954     2.05258    0.00917     3.06128
      C    5   -0.11745      0.99953     2.10831    0.00961     3.11745
      C    6   -0.02016      0.99952     2.00939    0.01125     3.02016
      C    7   -0.09412      0.99946     2.08597    0.00869     3.09412
      C    8    0.06398      0.99952     1.92183    0.01467     2.93602
      N    9   -0.16713      0.99971     2.65417    0.01324     3.66713
      N   10   -0.13160      0.99965     2.61886    0.01309     3.63160
      C   11   -0.19662      0.99960     2.18936    0.00766     3.19662
      C   12   -0.18578      0.99963     2.17954    0.00661     3.18578
      C   13   -0.09650      0.99964     2.08369    0.01317     3.09650
      N   14   -0.42888      0.99977     2.91880    0.01031     3.92888
      H   15    0.11156      0.00000     0.38536    0.00308     0.38844
      H   16    0.10301      0.00000     0.39597    0.00102     0.39699
      H   17    0.11046      0.00000     0.38364    0.00590     0.38954
      H   18    0.09718      0.00000     0.40184    0.00097     0.40282
      H   19    0.09092      0.00000     0.40748    0.00160     0.40908
      H   20    0.09484      0.00000     0.40368    0.00148     0.40516
      H   21    0.19746      0.00000     0.29872    0.00382     0.30254
      H   22    0.09839      0.00000     0.40046    0.00115     0.40161
      H   23    0.09884      0.00000     0.40019    0.00097     0.40116
      H   24    0.09400      0.00000     0.40496    0.00104     0.40600
      H   25    0.09462      0.00000     0.40429    0.00109     0.40538
      H   26    0.08611      0.00000     0.41288    0.00100     0.41389
      H   27    0.08902      0.00000     0.40976    0.00122     0.41098
      H   28    0.17235      0.00000     0.32621    0.00144     0.32765
      H   29    0.17749      0.00000     0.32065    0.00186     0.32251
 =======================================================================
   * Total *    0.00000     13.99418    36.83280    0.17301    51.00000

 Normal termination of Gaussian 16 at Thu Dec 10 10:19:49 2020.
