 Gaussian 16, Revision A.03,

 -----------------------------------------------------------
 # opt freq B3LYP/6-31G(d) empiricaldispersion=gd3bj scf=xqc
 -----------------------------------------------------------

 -------------------------------
 CID_137180886_JID_7392_neutraal
 -------------------------------
 Symbolic Z-matrix:
 Charge =  0 Multiplicity = 1

 SCF Done:  E(RB3LYP) =  -1612.59978958     A.U. after   16 cycles
 SCF Done:  E(RB3LYP) =  -1612.58865323     A.U. after   15 cycles
 SCF Done:  E(RB3LYP) =  -1612.60779579     A.U. after   13 cycles
 SCF Done:  E(RB3LYP) =  -1612.60351116     A.U. after   14 cycles
 SCF Done:  E(RB3LYP) =  -1612.61542989     A.U. after   13 cycles
 SCF Done:  E(RB3LYP) =  -1612.61682180     A.U. after   13 cycles
 SCF Done:  E(RB3LYP) =  -1612.61817038     A.U. after   13 cycles
 SCF Done:  E(RB3LYP) =  -1612.61931146     A.U. after   12 cycles
 SCF Done:  E(RB3LYP) =  -1612.62020363     A.U. after   13 cycles
 SCF Done:  E(RB3LYP) =  -1612.62042715     A.U. after   13 cycles
 SCF Done:  E(RB3LYP) =  -1612.62187911     A.U. after   11 cycles
 SCF Done:  E(RB3LYP) =  -1612.62189757     A.U. after   11 cycles
 SCF Done:  E(RB3LYP) =  -1612.62190402     A.U. after   10 cycles
 SCF Done:  E(RB3LYP) =  -1612.62190542     A.U. after    8 cycles
 SCF Done:  E(RB3LYP) =  -1612.62190587     A.U. after    8 cycles
 Optimization completed.
    -- Stationary point found.
 Normal termination of Gaussian 16 at Mon Dec 14 16:45:15 2020.

 --------------------------------------------------------------------
 #N Geom=AllCheck Guess=TCheck SCRF=Check GenChk RB3LYP/6-31G(d) Freq
 --------------------------------------------------------------------

 Structure from the checkpoint file:  "JID_7392.chk"
 -------------------------------
 CID_137180886_JID_7392_neutraal
 -------------------------------
 Charge =  0 Multiplicity = 1

 SCF Done:  E(RB3LYP) =  -1612.62190587     A.U. after    1 cycles

  Exact polarizability: 156.018   9.954 136.272  -8.888   8.883 134.626
 Approx polarizability: 239.590  22.309 231.765  -7.044  21.893 244.362

                      1                      2                      3
                      A                      A                      A
 Frequencies --     39.5188                48.5757                60.6447
 Red. masses --      7.1633                 7.2155                 7.1127
 Frc consts  --      0.0066                 0.0100                 0.0154
 IR Inten    --      0.4552                 1.0702                 0.3073

                      4                      5                      6
                      A                      A                      A
 Frequencies --     82.0197               115.7468               127.6045
 Red. masses --      8.2904                 8.9491                 8.0449
 Frc consts  --      0.0329                 0.0706                 0.0772
 IR Inten    --      0.7574                 0.8005                 0.4293

                      7                      8                      9
                      A                      A                      A
 Frequencies --    143.4278               176.5268               186.2621
 Red. masses --      8.8357                 6.0056                 6.8325
 Frc consts  --      0.1071                 0.1103                 0.1397
 IR Inten    --      0.0804                 6.7712                 1.4711

                     10                     11                     12
                      A                      A                      A
 Frequencies --    210.4456               232.4350               255.0175
 Red. masses --      4.7323                 4.9742                 4.8249
 Frc consts  --      0.1235                 0.1583                 0.1849
 IR Inten    --      8.7640                 8.8824                19.2579

                     13                     14                     15
                      A                      A                      A
 Frequencies --    283.7297               305.3039               314.6707
 Red. masses --      4.4804                 6.4086                 4.3230
 Frc consts  --      0.2125                 0.3519                 0.2522
 IR Inten    --     11.2716                11.2155                15.4080

                     16                     17                     18
                      A                      A                      A
 Frequencies --    336.9946               349.6690               400.5331
 Red. masses --      8.5568                 6.1554                 4.5831
 Frc consts  --      0.5725                 0.4434                 0.4332
 IR Inten    --      3.3957                13.6749                12.8580

                     19                     20                     21
                      A                      A                      A
 Frequencies --    429.7380               447.4903               456.2002
 Red. masses --      6.8712                 3.0378                 2.3148
 Frc consts  --      0.7476                 0.3584                 0.2838
 IR Inten    --     29.4252                24.1036               155.4410

                     22                     23                     24
                      A                      A                      A
 Frequencies --    473.1876               480.5022               515.9825
 Red. masses --      4.0456                 2.2295                 4.5751
 Frc consts  --      0.5337                 0.3033                 0.7177
 IR Inten    --      4.0354                74.4320                 9.9119

                     25                     26                     27
                      A                      A                      A
 Frequencies --    542.7522               574.0427               613.7895
 Red. masses --      4.7809                 6.3398                 5.8213
 Frc consts  --      0.8298                 1.2309                 1.2921
 IR Inten    --      2.4757                 5.0281                 6.2331

                     28                     29                     30
                      A                      A                      A
 Frequencies --    693.5911               699.1513               717.8856
 Red. masses --      4.0838                 1.4507                 5.9873
 Frc consts  --      1.1575                 0.4178                 1.8180
 IR Inten    --     12.3979               339.0110                60.3003

                     31                     32                     33
                      A                      A                      A
 Frequencies --    725.4304               737.6740               759.0357
 Red. masses --      3.8207                 7.0706                 1.6502
 Frc consts  --      1.1846                 2.2669                 0.5602
 IR Inten    --     27.7475                 9.4536                68.9222

                     34                     35                     36
                      A                      A                      A
 Frequencies --    787.9531               790.3750               796.8140
 Red. masses --      5.4064                 2.7458                 3.3095
 Frc consts  --      1.9777                 1.0106                 1.2380
 IR Inten    --     69.2130                20.4193                39.8074

                     37                     38                     39
                      A                      A                      A
 Frequencies --    825.7990               858.1729               883.4124
 Red. masses --      1.4978                 5.0029                 1.4209
 Frc consts  --      0.6018                 2.1708                 0.6533
 IR Inten    --     59.0141                31.5383                 3.6542

                     40                     41                     42
                      A                      A                      A
 Frequencies --    955.5170               987.7069              1025.3642
 Red. masses --      1.3614                 1.2652                 6.8664
 Frc consts  --      0.7323                 0.7272                 4.2534
 IR Inten    --      1.2163                 0.2001               199.3877

                     43                     44                     45
                      A                      A                      A
 Frequencies --   1065.1451              1074.6842              1102.0244
 Red. masses --      2.7109                 4.1860                 3.0105
 Frc consts  --      1.8121                 2.8484                 2.1541
 IR Inten    --     19.3987                80.9541                28.8181

                     46                     47                     48
                      A                      A                      A
 Frequencies --   1120.9466              1143.2689              1155.9614
 Red. masses --      2.0309                 1.7376                 2.0636
 Frc consts  --      1.5035                 1.3381                 1.6246
 IR Inten    --     95.8248                32.7735                 8.4907

                     49                     50                     51
                      A                      A                      A
 Frequencies --   1194.0225              1212.5507              1243.7096
 Red. masses --      1.1090                 1.6170                 1.3622
 Frc consts  --      0.9316                 1.4007                 1.2414
 IR Inten    --      1.0461                73.9150                44.6935

                     52                     53                     54
                      A                      A                      A
 Frequencies --   1249.8332              1286.6212              1328.1601
 Red. masses --      2.4634                 1.9664                 2.5489
 Frc consts  --      2.2672                 1.9179                 2.6491
 IR Inten    --    158.0054                24.4098                64.6179

                     55                     56                     57
                      A                      A                      A
 Frequencies --   1332.2004              1346.0998              1406.3218
 Red. masses --      1.4092                 5.5944                 1.1463
 Frc consts  --      1.4735                 5.9725                 1.3358
 IR Inten    --     48.9621                11.6784                23.7535

                     58                     59                     60
                      A                      A                      A
 Frequencies --   1412.1330              1498.5407              1540.2711
 Red. masses --      1.3270                 2.3458                 2.6259
 Frc consts  --      1.5590                 3.1037                 3.6705
 IR Inten    --     86.3460                12.2089                29.8330

                     61                     62                     63
                      A                      A                      A
 Frequencies --   1635.8417              1663.2453              1690.5433
 Red. masses --      6.2597                 6.0904                 6.3842
 Frc consts  --      9.8694                 9.9267                10.7500
 IR Inten    --      5.1993                16.5671                 9.6846

                     64                     65                     66
                      A                      A                      A
 Frequencies --   3098.3038              3195.6071              3209.8650
 Red. masses --      1.0851                 1.0864                 1.0908
 Frc consts  --      6.1370                 6.5364                 6.6218
 IR Inten    --      1.2094                 3.1628                14.9717

                     67                     68                     69
                      A                      A                      A
 Frequencies --   3221.1013              3228.5577              3297.6436
 Red. masses --      1.0943                 1.0952                 1.0679
 Frc consts  --      6.6896                 6.7258                 6.8423
 IR Inten    --     10.3234                 5.9979                53.4592

                     70                     71                     72
                      A                      A                      A
 Frequencies --   3367.2475              3638.4623              3743.4522
 Red. masses --      1.0659                 1.0659                 1.0676
 Frc consts  --      7.1204                 8.3136                 8.8142
 IR Inten    --    799.9555                45.4957               104.1576

 - Thermochemistry -
 -------------------
 Temperature   298.150 Kelvin.  Pressure   1.00000 Atm.
 Atom     1 has atomic number  6 and mass  12.00000

 Molecular mass:   278.98713 amu.
 Principal axes and moments of inertia in atomic units:
                           1         2         3
     Eigenvalues --  3593.171055079.983755776.33093
           X            0.99967   0.00728  -0.02456
           Y           -0.00637   0.99930   0.03674
           Z            0.02481  -0.03657   0.99902
 This molecule is an asymmetric top.
 Rotational symmetry number  1.
 Warning -- assumption of classical behavior for rotation
           may cause significant error
 Rotational temperatures (Kelvin)      0.02411     0.01705     0.01499
 Rotational constants (GHZ):           0.50227     0.35527     0.31244
 Zero-point vibrational energy     467435.2 (Joules/Mol)
                                  111.71969 (Kcal/Mol)
 Warning -- explicit consideration of  27 degrees of freedom as
           vibrations may cause significant error
 Vibrational temperatures:     56.86    69.89    87.25   118.01   166.53
          (Kelvin)            183.59   206.36   253.98   267.99   302.78
                              334.42   366.91   408.22   439.26   452.74
                              484.86   503.10   576.28   618.30   643.84
                              656.37   680.81   691.34   742.38   780.90
                              825.92   883.11   997.92  1005.92  1032.88
                             1043.73  1061.35  1092.08  1133.69  1137.17
                             1146.44  1188.14  1234.72  1271.03  1374.78
                             1421.09  1475.27  1532.51  1546.23  1585.57
                             1612.79  1644.91  1663.17  1717.93  1744.59
                             1789.42  1798.23  1851.16  1910.93  1916.74
                             1936.74  2023.38  2031.74  2156.07  2216.11
                             2353.61  2393.04  2432.31  4457.77  4597.77
                             4618.28  4634.45  4645.17  4744.57  4844.72
                             5234.94  5385.99

 Zero-point correction=                           0.178037 (Hartree/Particle)
 Thermal correction to Energy=                    0.194687
 Thermal correction to Enthalpy=                  0.195631
 Thermal correction to Gibbs Free Energy=         0.133506
 Sum of electronic and zero-point Energies=          -1612.443869
 Sum of electronic and thermal Energies=             -1612.427219
 Sum of electronic and thermal Enthalpies=           -1612.426275
 Sum of electronic and thermal Free Energies=        -1612.488400

                     E (Thermal)             CV                S
                      KCal/Mol        Cal/Mol-Kelvin    Cal/Mol-Kelvin
 Total                  122.168             62.567            130.754
 Electronic               0.000              0.000              0.000
 Translational            0.889              2.981             42.776
 Rotational               0.889              2.981             33.022
 Vibrational            120.390             56.606             54.956
 Vibration     1          0.594              1.981              5.283
 Vibration     2          0.595              1.978              4.875
 Vibration     3          0.597              1.973              4.436
 Vibration     4          0.600              1.961              3.842
 Vibration     5          0.608              1.936              3.170
 Vibration     6          0.611              1.926              2.982
 Vibration     7          0.616              1.910              2.758
 Vibration     8          0.628              1.871              2.365
 Vibration     9          0.632              1.859              2.265
 Vibration    10          0.643              1.825              2.040
 Vibration    11          0.653              1.791              1.860
 Vibration    12          0.665              1.754              1.696
 Vibration    13          0.682              1.704              1.511
 Vibration    14          0.696              1.664              1.388
 Vibration    15          0.702              1.646              1.338
 Vibration    16          0.718              1.602              1.226
 Vibration    17          0.727              1.576              1.168
 Vibration    18          0.766              1.469              0.961
 Vibration    19          0.791              1.405              0.860
 Vibration    20          0.807              1.366              0.803
 Vibration    21          0.814              1.347              0.777
 Vibration    22          0.830              1.310              0.729
 Vibration    23          0.837              1.293              0.709
 Vibration    24          0.871              1.215              0.619
 Vibration    25          0.898              1.156              0.559
 Vibration    26          0.930              1.087              0.497
 Vibration    27          0.973              1.003              0.427

 Optimization completed.
    -- Stationary point found.
 Normal termination of Gaussian 16 at Mon Dec 14 16:55:42 2020.

 ----------------------------------------------------------------------
 # B3LYP/6-311++G(d,p) empiricaldispersion=gd3bj scf=xqc pop=npa geom=c
 heck
 ----------------------------------------------------------------------

 ---------------------------------------
 CID_137180886_JID_7392_Energie_neutraal
 ---------------------------------------
 Structure from the checkpoint file:  "JID_7392.chk"
 Charge =  0 Multiplicity = 1

 SCF Done:  E(RB3LYP) =  -1612.93815335     A.U. after   17 cycles
 Normal termination of Gaussian 16 at Mon Dec 14 17:00:47 2020.

 ----------------------------------------------------------------------
 # B3LYP/6-311++G(d,p) empiricaldispersion=gd3bj scf=xqc pop=npa geom=c
 heck
 ----------------------------------------------------------------------

 -------------------------------------
 CID_137180886_JID_7392_Energie_kation
 -------------------------------------
 Structure from the checkpoint file:  "JID_7392.chk"
 Charge =  1 Multiplicity = 2

 SCF Done:  E(UB3LYP) =  -1612.61381020     A.U. after   32 cycles
 Normal termination of Gaussian 16 at Mon Dec 14 17:14:02 2020.
 Gaussian 16:  ES64L-G16RevA.03 25-Dec-2016

 ----------------------------------------------------------------------
 # B3LYP/6-311++G(d,p) empiricaldispersion=gd3bj scf=xqc pop=npa geom=c
 heck
 ----------------------------------------------------------------------

 ------------------------------------
 CID_137180886_JID_7392_Energie_anion
 ------------------------------------
 Structure from the checkpoint file:  "JID_7392.chk"
 Charge = -1 Multiplicity = 2

                         Standard orientation:
 ---------------------------------------------------------------------
 Center     Atomic      Atomic             Coordinates (Angstroms)
 Number     Number       Type             X           Y           Z
 ---------------------------------------------------------------------
      1          6           0        3.247719    1.259629   -0.599263
      2          6           0        3.578566    0.145681   -1.373563
      3          6           0        2.772563   -0.990294   -1.345183
      4          6           0        1.630777   -1.011755   -0.545946
      5          6           0        1.289117    0.097398    0.237257
      6          6           0        2.112898    1.231452    0.205963
      7          6           0        0.081798    0.097866    1.109873
      8          7           0        0.108229    0.057636    2.397652
      9          8           0        1.397706   -0.074060    2.900511
     10          6           0       -1.292179    0.254669    0.550171
     11         16           0       -1.398355    1.557820   -0.786408
     12          8           0       -2.867292    1.699287   -0.987712
     13          8           0       -0.841663    2.821919    0.170502
     14         16           0       -2.118394   -1.292639   -0.175727
     15          8           0       -1.487135   -1.485141   -1.532721
     16          8           0       -1.497160   -2.387851    0.878808
     17          8           0        0.848813   -2.156586   -0.512634
     18          1           0        3.872852    2.146819   -0.620386
     19          1           0        4.465425    0.160427   -2.000255
     20          1           0        3.011608   -1.870972   -1.932252
     21          1           0        1.841976    2.091806    0.807677
     22          1           0        1.243329   -0.097540    3.858814
     23          1           0       -1.990123    0.556153    1.338569
     24          1           0       -1.512648    3.003659    0.859846
     25          1           0       -0.514027   -2.429743    0.727515
     26          1           0        0.138275   -2.055372   -1.198818
 ---------------------------------------------------------------------

 SCF Done:  E(UB3LYP) =  -1612.95691146     A.U. after   33 cycles
 SCF Done:  E(UB3LYP) =  -1612.95691146     a.u. after    1 cycles

 The electronic state is 2-A.
 Alpha  occ. eigenvalues --  -88.86337 -88.84950 -19.04532 -19.03208 -19.03162
 Alpha  occ. eigenvalues --  -19.02033 -18.98774 -18.98586 -14.20017 -10.11207
 Alpha  occ. eigenvalues --  -10.09541 -10.06586 -10.06510 -10.06343 -10.06208
 Alpha  occ. eigenvalues --  -10.06072 -10.05974  -7.93658  -7.92378  -5.90089
 Alpha  occ. eigenvalues --   -5.89757  -5.89178  -5.88805  -5.88470  -5.87914
 Alpha  occ. eigenvalues --   -0.96649  -0.96121  -0.95529  -0.92683  -0.89143
 Alpha  occ. eigenvalues --   -0.88028  -0.75403  -0.73018  -0.64968  -0.63880
 Alpha  occ. eigenvalues --   -0.62662  -0.56903  -0.53023  -0.50551  -0.49554
 Alpha  occ. eigenvalues --   -0.45119  -0.43266  -0.40682  -0.40533  -0.38654
 Alpha  occ. eigenvalues --   -0.36800  -0.35768  -0.35474  -0.35069  -0.33545
 Alpha  occ. eigenvalues --   -0.33163  -0.31678  -0.31285  -0.30848  -0.29591
 Alpha  occ. eigenvalues --   -0.28187  -0.26267  -0.25804  -0.25335  -0.25040
 Alpha  occ. eigenvalues --   -0.23818  -0.23430  -0.21375  -0.19341  -0.19249
 Alpha  occ. eigenvalues --   -0.19030  -0.16051  -0.14965  -0.14181  -0.13532
 Alpha  occ. eigenvalues --   -0.13261  -0.11459   0.03829
 Alpha virt. eigenvalues --    0.07657   0.08185   0.09059   0.09586   0.09829
 Alpha virt. eigenvalues --    0.10389   0.11063   0.11165   0.11936   0.12488
 Alpha virt. eigenvalues --    0.13246   0.13783   0.14336   0.14710   0.15262

  Beta  occ. eigenvalues --  -88.86285 -88.84833 -19.04461 -19.03113 -19.03091
  Beta  occ. eigenvalues --  -19.02023 -18.98738 -18.98551 -14.19185 -10.11132
  Beta  occ. eigenvalues --  -10.09481 -10.06474 -10.06439 -10.06315 -10.06231
  Beta  occ. eigenvalues --  -10.06057 -10.05949  -7.93610  -7.92268  -5.90009
  Beta  occ. eigenvalues --   -5.89650  -5.89143  -5.88719  -5.88204  -5.87782
  Beta  occ. eigenvalues --   -0.96481  -0.95949  -0.94964  -0.92617  -0.89021
  Beta  occ. eigenvalues --   -0.87916  -0.75020  -0.72629  -0.64479  -0.63684
  Beta  occ. eigenvalues --   -0.62549  -0.56564  -0.52526  -0.50367  -0.49450
  Beta  occ. eigenvalues --   -0.44782  -0.43118  -0.40365  -0.40336  -0.38428
  Beta  occ. eigenvalues --   -0.36563  -0.35612  -0.35229  -0.34653  -0.33350
  Beta  occ. eigenvalues --   -0.32982  -0.31505  -0.31070  -0.30723  -0.29412
  Beta  occ. eigenvalues --   -0.26789  -0.25828  -0.25481  -0.25202  -0.24925
  Beta  occ. eigenvalues --   -0.23689  -0.23250  -0.21224  -0.19207  -0.19036
  Beta  occ. eigenvalues --   -0.18786  -0.15530  -0.14287  -0.13713  -0.13163
  Beta  occ. eigenvalues --   -0.12896  -0.09965
  Beta virt. eigenvalues --    0.07694   0.08302   0.08949   0.09397   0.09776
  Beta virt. eigenvalues --    0.10118   0.10840   0.11132   0.11242   0.12539
  Beta virt. eigenvalues --    0.12880   0.13712   0.14375   0.14397   0.14770

 Mulliken charges and spin densities:
               1          2
     1  C   -0.459728  -0.001115
     2  C   -0.313350   0.053529
     3  C   -0.093033   0.039061
     4  C   -0.726829  -0.054552
     5  C    1.139488   0.014401
     6  C   -0.456339  -0.022197
     7  C   -0.026861  -0.026039
     8  N   -0.261411   0.359509
     9  O   -0.098824   0.017280
    10  C   -0.742499   0.431009
    11  S    0.265370   0.071073
    12  O   -0.438850   0.017104
    13  O   -0.213016  -0.010665
    14  S    0.500557  -0.008763
    15  O   -0.481683  -0.008614
    16  O   -0.248809  -0.052848
    17  O   -0.536441   0.020613
    18  H    0.133951   0.000086
    19  H    0.123652  -0.003861
    20  H    0.157905   0.000112
    21  H    0.164670   0.018706
    22  H    0.250963   0.006922
    23  H    0.334234   0.022560
    24  H    0.235541   0.050282
    25  H    0.381991   0.054589
    26  H    0.409352   0.011820
 Sum of Mulliken charges =  -1.00000   1.00000

 Dipole moment (field-independent basis, Debye):
    X=              3.1441    Y=              1.4112    Z=              1.4344  Tot=              3.7329
 Quadrupole moment (field-independent basis, Debye-Ang):
   XX=           -144.0453   YY=           -134.3566   ZZ=           -125.9889
   XY=             -0.3997   XZ=             -8.9690   YZ=              5.2715

 Summary of Natural Population Analysis:

                                       Natural Population
                Natural  -----------------------------------------------
    Atom  No    Charge         Core      Valence    Rydberg      Total
 -----------------------------------------------------------------------
      C    1   -0.11335      0.99957     2.10501    0.00877     3.11335
      C    2   -0.09131      0.99958     2.08288    0.00885     3.09131
      C    3   -0.12683      0.99951     2.11884    0.00848     3.12683
      C    4    0.16612      0.99932     1.81836    0.01620     2.83388
      C    5   -0.05366      0.99942     2.03908    0.01516     3.05366
      C    6   -0.07337      0.99953     2.06545    0.00838     3.07337
      C    7    0.05477      0.99950     1.91938    0.02635     2.94523
      N    8    0.04065      0.99958     2.44386    0.01591     3.45935
      O    9   -0.27776      0.99990     3.27097    0.00689     4.27776
      C   10   -0.28435      0.99947     2.26441    0.02047     3.28435
      S   11    0.74763      4.99944     2.19230    0.06062     7.25237
      O   12   -0.47122      0.99993     3.46435    0.00695     4.47122
      O   13   -0.43486      0.99992     3.42680    0.00814     4.43486
      S   14    0.75651      4.99947     2.18150    0.06252     7.24349
      O   15   -0.48878      0.99992     3.48174    0.00712     4.48878
      O   16   -0.44042      0.99992     3.43316    0.00734     4.44042
      O   17   -0.38680      0.99987     3.37962    0.00731     4.38680
      H   18    0.09459      0.00000     0.40445    0.00097     0.40541
      H   19    0.09270      0.00000     0.40628    0.00101     0.40730
      H   20    0.10096      0.00000     0.39805    0.00099     0.39904
      H   21    0.10599      0.00000     0.39266    0.00135     0.39401
      H   22    0.22620      0.00000     0.27071    0.00309     0.27380
      H   23    0.11650      0.00000     0.38070    0.00280     0.38350
      H   24    0.23136      0.00000     0.26461    0.00404     0.26864
      H   25    0.25304      0.00000     0.24253    0.00443     0.24696
      H   26    0.25569      0.00000     0.24056    0.00376     0.24431
 =======================================================================
   * Total *    0.00000     24.99385    46.68827    0.31788    72.00000

 Normal termination of Gaussian 16 at Mon Dec 14 17:28:11 2020.
