 Gaussian 16, Revision A.03,

 -----------------------------------------------------------
 # opt freq B3LYP/6-31G(d) empiricaldispersion=gd3bj scf=xqc
 -----------------------------------------------------------

 ------------------------------
 CID_45492737_JID_9936_neutraal
 ------------------------------
 Symbolic Z-matrix:
 Charge =  0 Multiplicity = 1

 SCF Done:  E(RB3LYP) =  -840.007167714     A.U. after   15 cycles
 SCF Done:  E(RB3LYP) =  -840.013375495     A.U. after   13 cycles
 SCF Done:  E(RB3LYP) =  -840.014153859     A.U. after   12 cycles
 SCF Done:  E(RB3LYP) =  -840.014578424     A.U. after   12 cycles
 SCF Done:  E(RB3LYP) =  -840.014841147     A.U. after   12 cycles
 SCF Done:  E(RB3LYP) =  -840.014993987     A.U. after   11 cycles
 SCF Done:  E(RB3LYP) =  -840.015058643     A.U. after   10 cycles
 SCF Done:  E(RB3LYP) =  -840.015089743     A.U. after   10 cycles
 SCF Done:  E(RB3LYP) =  -840.015104075     A.U. after   10 cycles
 SCF Done:  E(RB3LYP) =  -840.015118362     A.U. after   10 cycles
 SCF Done:  E(RB3LYP) =  -840.015129523     A.U. after    8 cycles
 SCF Done:  E(RB3LYP) =  -840.015129656     A.U. after    7 cycles
 SCF Done:  E(RB3LYP) =  -840.015129752     A.U. after    7 cycles
 SCF Done:  E(RB3LYP) =  -840.015129883     A.U. after    8 cycles
 SCF Done:  E(RB3LYP) =  -840.015129955     A.U. after    7 cycles
 Optimization completed.
    -- Stationary point found.
 Normal termination of Gaussian 16 at Sat Dec 12 10:17:02 2020.

 --------------------------------------------------------------------
 #N Geom=AllCheck Guess=TCheck SCRF=Check GenChk RB3LYP/6-31G(d) Freq
 --------------------------------------------------------------------

 Structure from the checkpoint file:  "JID_9936.chk"
 ------------------------------
 CID_45492737_JID_9936_neutraal
 ------------------------------
 Charge =  0 Multiplicity = 1

 SCF Done:  E(RB3LYP) =  -840.015129955     A.U. after    1 cycles

  Exact polarizability: 196.322  37.121 181.688  -4.371  -3.492 123.442
 Approx polarizability: 304.457  73.038 290.457 -29.072 -16.084 222.384

                      1                      2                      3
                      A                      A                      A
 Frequencies --     19.3550                30.5463                47.4266
 Red. masses --      4.2591                 4.3781                 4.8397
 Frc consts  --      0.0009                 0.0024                 0.0064
 IR Inten    --      0.3231                 1.5870                 0.0830

                      4                      5                      6
                      A                      A                      A
 Frequencies --     75.0310                92.7341               126.0555
 Red. masses --      4.2325                 4.9215                 4.8374
 Frc consts  --      0.0140                 0.0249                 0.0453
 IR Inten    --      5.0731                 0.9208                 5.1306

                      7                      8                      9
                      A                      A                      A
 Frequencies --    147.9538               158.3334               186.2165
 Red. masses --      1.7879                 5.9278                 1.8291
 Frc consts  --      0.0231                 0.0876                 0.0374
 IR Inten    --      0.8066                 0.7084                 2.3230

                     10                     11                     12
                      A                      A                      A
 Frequencies --    198.4307               230.9289               266.8982
 Red. masses --      4.5207                 5.8162                 5.2491
 Frc consts  --      0.1049                 0.1827                 0.2203
 IR Inten    --      1.9480                 0.8296                 1.6588

                     13                     14                     15
                      A                      A                      A
 Frequencies --    287.0176               366.9742               381.5181
 Red. masses --      4.0699                 2.5922                 6.4130
 Frc consts  --      0.1975                 0.2057                 0.5500
 IR Inten    --      0.2306                 0.9784                 2.2236

                     16                     17                     18
                      A                      A                      A
 Frequencies --    391.4299               416.9948               465.0853
 Red. masses --      3.5814                 2.9912                 3.3836
 Frc consts  --      0.3233                 0.3064                 0.4312
 IR Inten    --      9.9665                 0.1972                 1.7177

                     19                     20                     21
                      A                      A                      A
 Frequencies --    481.9586               546.8550               582.3493
 Red. masses --      3.8671                 2.2717                 2.9496
 Frc consts  --      0.5292                 0.4003                 0.5894
 IR Inten    --      0.6188                35.3872                18.0592

                     22                     23                     24
                      A                      A                      A
 Frequencies --    584.8242               587.2994               625.1034
 Red. masses --      2.8029                 4.2750                 6.0538
 Frc consts  --      0.5648                 0.8688                 1.3937
 IR Inten    --     58.7679                 7.0046                12.7714

                     25                     26                     27
                      A                      A                      A
 Frequencies --    637.5490               666.5024               699.4948
 Red. masses --      6.1559                 3.7931                 4.4230
 Frc consts  --      1.4742                 0.9928                 1.2751
 IR Inten    --      0.2670                23.6789                 2.6055

                     28                     29                     30
                      A                      A                      A
 Frequencies --    712.8100               717.9914               735.9801
 Red. masses --      1.6103                 1.5267                 3.8205
 Frc consts  --      0.4821                 0.4637                 1.2193
 IR Inten    --     26.7473                43.9648                27.2615

                     31                     32                     33
                      A                      A                      A
 Frequencies --    756.7762               774.7273               788.8384
 Red. masses --      3.8911                 2.7345                 4.3357
 Frc consts  --      1.3130                 0.9670                 1.5896
 IR Inten    --     45.8738                 6.5539                 6.2495

                     34                     35                     36
                      A                      A                      A
 Frequencies --    805.1217               817.5185               828.1071
 Red. masses --      1.6368                 1.2614                 4.0619
 Frc consts  --      0.6251                 0.4967                 1.6412
 IR Inten    --      8.6522                 6.2691                 0.7846

                     37                     38                     39
                      A                      A                      A
 Frequencies --    836.8328               863.4109               924.5459
 Red. masses --      4.0515                 1.2491                 4.6551
 Frc consts  --      1.6716                 0.5486                 2.3444
 IR Inten    --      5.3489                 0.9034                12.9070

                     40                     41                     42
                      A                      A                      A
 Frequencies --    933.4433               972.2794               988.4108
 Red. masses --      1.4464                 1.3532                 1.9142
 Frc consts  --      0.7425                 0.7537                 1.1018
 IR Inten    --      5.5373                 1.2184                 7.5054

                     43                     44                     45
                      A                      A                      A
 Frequencies --    998.1926              1023.5926              1038.8542
 Red. masses --      1.2984                 5.9814                 2.1065
 Frc consts  --      0.7623                 3.6924                 1.3394
 IR Inten    --      3.5560                 0.2469                22.2785

                     46                     47                     48
                      A                      A                      A
 Frequencies --   1061.5968              1066.4734              1116.4004
 Red. masses --      2.2446                 2.3407                 2.3987
 Frc consts  --      1.4904                 1.5685                 1.7614
 IR Inten    --      2.2404                36.9352                 6.4989

                     49                     50                     51
                      A                      A                      A
 Frequencies --   1124.4220              1156.0049              1161.3293
 Red. masses --      1.8642                 1.4233                 1.4109
 Frc consts  --      1.3887                 1.1206                 1.1211
 IR Inten    --      1.7818                 6.4083                44.7456

                     52                     53                     54
                      A                      A                      A
 Frequencies --   1173.4722              1194.1864              1199.6583
 Red. masses --      2.0472                 1.1003                 2.3842
 Frc consts  --      1.6610                 0.9245                 2.0217
 IR Inten    --     26.9516                 0.0697                22.9800

                     55                     56                     57
                      A                      A                      A
 Frequencies --   1217.4811              1222.9643              1236.5410
 Red. masses --      1.2016                 2.3381                 2.7753
 Frc consts  --      1.0494                 2.0604                 2.5002
 IR Inten    --      4.1362                 8.0599                 4.2671

                     58                     59                     60
                      A                      A                      A
 Frequencies --   1262.2895              1341.8994              1352.5105
 Red. masses --      1.4939                 3.0058                 2.2789
 Frc consts  --      1.4025                 3.1889                 2.4562
 IR Inten    --     22.3143                90.6489                12.6564

                     61                     62                     63
                      A                      A                      A
 Frequencies --   1369.0968              1376.9761              1397.8689
 Red. masses --      2.9632                 1.4700                 1.7096
 Frc consts  --      3.2725                 1.6422                 1.9683
 IR Inten    --     17.5351                48.7816                82.5204

                     64                     65                     66
                      A                      A                      A
 Frequencies --   1426.5254              1469.0425              1475.8058
 Red. masses --      2.3056                 3.1960                 1.8721
 Frc consts  --      2.7643                 4.0637                 2.4023
 IR Inten    --     31.7459               107.0709                70.2048

                     67                     68                     69
                      A                      A                      A
 Frequencies --   1498.2616              1500.1312              1509.9968
 Red. masses --      1.8084                 1.6218                 3.4189
 Frc consts  --      2.3918                 2.1504                 4.5929
 IR Inten    --      5.2037               111.8179                30.4091

                     70                     71                     72
                      A                      A                      A
 Frequencies --   1516.6587              1520.3772              1539.1238
 Red. masses --      1.3894                 1.1906                 2.8311
 Frc consts  --      1.8830                 1.6215                 3.9514
 IR Inten    --     55.4614                 1.3809                53.9479

                     73                     74                     75
                      A                      A                      A
 Frequencies --   1550.2411              1554.8920              1574.8013
 Red. masses --      2.1778                 1.2072                 5.7802
 Frc consts  --      3.0837                 1.7196                 8.4458
 IR Inten    --      9.1049                73.8037                10.7297

                     76                     77                     78
                      A                      A                      A
 Frequencies --   1613.6441              1649.2774              1668.6036
 Red. masses --      7.6222                 5.5241                 5.5122
 Frc consts  --     11.6935                 8.8532                 9.0423
 IR Inten    --     23.1342                 1.5298                 3.3340

                     79                     80                     81
                      A                      A                      A
 Frequencies --   1730.8137              3037.2270              3088.9351
 Red. masses --      6.6430                 1.0449                 1.0688
 Frc consts  --     11.7251                 5.6790                 6.0085
 IR Inten    --    312.7864                61.1045                23.4997

                     82                     83                     84
                      A                      A                      A
 Frequencies --   3101.9380              3157.7122              3177.3281
 Red. masses --      1.0946                 1.1010                 1.0856
 Frc consts  --      6.2054                 6.4684                 6.4572
 IR Inten    --     30.5477                10.3018                 4.0748

                     85                     86                     87
                      A                      A                      A
 Frequencies --   3181.7449              3185.0878              3195.6006
 Red. masses --      1.0966                 1.0879                 1.0921
 Frc consts  --      6.5409                 6.5023                 6.5706
 IR Inten    --      2.4278                 3.3954                28.9860

                     88                     89                     90
                      A                      A                      A
 Frequencies --   3207.1504              3217.6209              3272.7074
 Red. masses --      1.0960                 1.0945                 1.0921
 Frc consts  --      6.6420                 6.6763                 6.8917
 IR Inten    --     25.4859                 6.4207                 2.7377

                     91                     92                     93
                      A                      A                      A
 Frequencies --   3291.2956              3302.6160              3604.7065
 Red. masses --      1.0961                 1.1026                 1.0757
 Frc consts  --      6.9955                 7.0857                 8.2355
 IR Inten    --      1.4459                 0.2044                37.0319

 - Thermochemistry -
 -------------------
 Temperature   298.150 Kelvin.  Pressure   1.00000 Atm.
 Atom     1 has atomic number  6 and mass  12.00000

 Molecular mass:   254.10553 amu.
 Principal axes and moments of inertia in atomic units:
                           1         2         3
     Eigenvalues --  3696.143095382.058897458.82854
           X            0.99996   0.00601   0.00610
           Y           -0.00617   0.99961   0.02738
           Z           -0.00593  -0.02741   0.99961
 This molecule is an asymmetric top.
 Rotational symmetry number  1.
 Warning -- assumption of classical behavior for rotation
           may cause significant error
 Rotational temperatures (Kelvin)      0.02343     0.01609     0.01161
 Rotational constants (GHZ):           0.48828     0.33533     0.24196
 Zero-point vibrational energy     697837.6 (Joules/Mol)
                                  166.78719 (Kcal/Mol)
 Warning -- explicit consideration of  23 degrees of freedom as
           vibrations may cause significant error
 Vibrational temperatures:     27.85    43.95    68.24   107.95   133.42
          (Kelvin)            181.37   212.87   227.81   267.92   285.50
                              332.26   384.01   412.95   527.99   548.92
                              563.18   599.96   669.15   693.43   786.80
                              837.87   841.43   844.99   899.38   917.29
                              958.95  1006.42  1025.57  1033.03  1058.91
                             1088.83  1114.66  1134.96  1158.39  1176.23
                             1191.46  1204.02  1242.26  1330.22  1343.02
                             1398.89  1422.10  1436.18  1472.72  1494.68
                             1527.40  1534.42  1606.25  1617.79  1663.23
                             1670.89  1688.36  1718.17  1726.04  1751.68
                             1759.57  1779.11  1816.15  1930.69  1945.96
                             1969.82  1981.16  2011.22  2052.45  2113.62
                             2123.36  2155.66  2158.35  2172.55  2182.13
                             2187.48  2214.46  2230.45  2237.14  2265.79
                             2321.67  2372.94  2400.75  2490.25  4369.89
                             4444.29  4463.00  4543.24  4571.47  4577.82
                             4582.63  4597.76  4614.37  4629.44  4708.70
                             4735.44  4751.73  5186.37

 Zero-point correction=                           0.265792 (Hartree/Particle)
 Thermal correction to Energy=                    0.281856
 Thermal correction to Enthalpy=                  0.282800
 Thermal correction to Gibbs Free Energy=         0.220305
 Sum of electronic and zero-point Energies=           -839.749338
 Sum of electronic and thermal Energies=              -839.733274
 Sum of electronic and thermal Enthalpies=            -839.732330
 Sum of electronic and thermal Free Energies=         -839.794825

                     E (Thermal)             CV                S
                      KCal/Mol        Cal/Mol-Kelvin    Cal/Mol-Kelvin
 Total                  176.867             61.940            131.531
 Electronic               0.000              0.000              0.000
 Translational            0.889              2.981             42.498
 Rotational               0.889              2.981             33.361
 Vibrational            175.090             55.978             55.672
 Vibration     1          0.593              1.986              6.699
 Vibration     2          0.594              1.984              5.794
 Vibration     3          0.595              1.979              4.922
 Vibration     4          0.599              1.966              4.017
 Vibration     5          0.602              1.954              3.602
 Vibration     6          0.611              1.927              3.005
 Vibration     7          0.617              1.905              2.698
 Vibration     8          0.621              1.893              2.570
 Vibration     9          0.632              1.859              2.265
 Vibration    10          0.637              1.842              2.148
 Vibration    11          0.653              1.794              1.872
 Vibration    12          0.672              1.734              1.616
 Vibration    13          0.684              1.698              1.491
 Vibration    14          0.740              1.540              1.092
 Vibration    15          0.751              1.510              1.033
 Vibration    16          0.759              1.488              0.995
 Vibration    17          0.780              1.433              0.902
 Vibration    18          0.823              1.328              0.751
 Vibration    19          0.838              1.290              0.705
 Vibration    20          0.902              1.147              0.551
 Vibration    21          0.939              1.069              0.481
 Vibration    22          0.942              1.064              0.477
 Vibration    23          0.944              1.059              0.472

                           ! Non-Optimized Parameters !
 Normal termination of Gaussian 16 at Sat Dec 12 10:35:19 2020.

 ----------------------------------------------------------------------
 # B3LYP/6-311++G(d,p) empiricaldispersion=gd3bj scf=xqc pop=npa geom=c
 heck
 ----------------------------------------------------------------------

 --------------------------------------
 CID_45492737_JID_9936_Energie_neutraal
 --------------------------------------
 Structure from the checkpoint file:  "JID_9936.chk"
 Charge =  0 Multiplicity = 1

 SCF Done:  E(RB3LYP) =  -840.240473168     A.U. after   16 cycles
 Normal termination of Gaussian 16 at Sat Dec 12 10:43:20 2020.

 ----------------------------------------------------------------------
 # B3LYP/6-311++G(d,p) empiricaldispersion=gd3bj scf=xqc pop=npa geom=c
 heck
 ----------------------------------------------------------------------

 ------------------------------------
 CID_45492737_JID_9936_Energie_kation
 ------------------------------------
 Structure from the checkpoint file:  "JID_9936.chk"
 Charge =  1 Multiplicity = 2

 SCF Done:  E(UB3LYP) =  -839.964501698     A.U. after   26 cycles
 Normal termination of Gaussian 16 at Sat Dec 12 11:02:07 2020.
 Gaussian 16:  ES64L-G16RevA.03 25-Dec-2016

 ----------------------------------------------------------------------
 # B3LYP/6-311++G(d,p) empiricaldispersion=gd3bj scf=xqc pop=npa geom=c
 heck
 ----------------------------------------------------------------------

 -----------------------------------
 CID_45492737_JID_9936_Energie_anion
 -----------------------------------
 Structure from the checkpoint file:  "JID_9936.chk"
 Charge = -1 Multiplicity = 2

                         Standard orientation:
 ---------------------------------------------------------------------
 Center     Atomic      Atomic             Coordinates (Angstroms)
 Number     Number       Type             X           Y           Z
 ---------------------------------------------------------------------
      1          6           0        0.122448    3.184637    1.702372
      2          7           0        0.387787    3.175482    0.272963
      3          6           0        0.170988    2.168927   -0.633216
      4          8           0        0.769585    2.171922   -1.715233
      5          6           0       -0.812973    1.130636   -0.281326
      6          6           0       -1.973338    1.229269    0.501030
      7          6           0       -2.590968   -0.026709    0.392379
      8          6           0       -1.826974   -0.853756   -0.419203
      9          7           0       -0.747526   -0.141250   -0.862259
     10          6           0        0.396652   -0.718476   -1.576354
     11          6           0        1.549575   -1.025881   -0.644325
     12          6           0        2.698170   -0.228388   -0.649018
     13          6           0        3.746719   -0.498731    0.232220
     14          6           0        3.653859   -1.564001    1.127705
     15          6           0        2.506355   -2.360729    1.140816
     16          6           0        1.462010   -2.092484    0.258426
     17          6           0       -2.487636   -2.122617   -0.469293
     18          6           0       -3.602801   -1.954859    0.306233
     19          8           0       -3.698553   -0.688897    0.844591
     20          1           0       -0.014823    2.163796    2.063616
     21          1           0       -0.772349    3.766958    1.958703
     22          1           0        0.976990    3.626113    2.224755
     23          1           0        1.044546    3.857180   -0.084762
     24          1           0       -2.318779    2.112649    1.015128
     25          1           0        0.026659   -1.632075   -2.051192
     26          1           0        0.698043   -0.014997   -2.349899
     27          1           0        2.753799    0.613785   -1.331480
     28          1           0        4.635915    0.125729    0.219217
     29          1           0        4.470438   -1.774382    1.812901
     30          1           0        2.427896   -3.192020    1.836098
     31          1           0        0.566651   -2.709496    0.273971
     32          1           0       -2.207799   -3.025371   -0.992727
     33          1           0       -4.409794   -2.622727    0.565204
 ---------------------------------------------------------------------

 SCF Done:  E(UB3LYP) =  -840.232180850     A.U. after   33 cycles
 SCF Done:  E(UB3LYP) =  -840.232189069     a.u. after    3 cycles

 The electronic state is 2-A.
 Alpha  occ. eigenvalues --  -19.07146 -18.95137 -14.24235 -14.20880 -10.13828
 Alpha  occ. eigenvalues --  -10.10864 -10.10423 -10.09640 -10.08969 -10.08034
 Alpha  occ. eigenvalues --  -10.07944 -10.07891 -10.07836 -10.07649 -10.07593
 Alpha  occ. eigenvalues --  -10.07564 -10.07089 -10.06996 -10.05078  -0.99291
 Alpha  occ. eigenvalues --   -0.90734  -0.86757  -0.79422  -0.76051  -0.70375
 Alpha  occ. eigenvalues --   -0.68399  -0.65119  -0.64844  -0.61576  -0.58894
 Alpha  occ. eigenvalues --   -0.57921  -0.53070  -0.50986  -0.49644  -0.47585
 Alpha  occ. eigenvalues --   -0.46516  -0.42935  -0.42110  -0.40111  -0.37794
 Alpha  occ. eigenvalues --   -0.37092  -0.36752  -0.36271  -0.35660  -0.34697
 Alpha  occ. eigenvalues --   -0.33341  -0.32581  -0.32564  -0.31726  -0.31653
 Alpha  occ. eigenvalues --   -0.29626  -0.29122  -0.27968  -0.27686  -0.27415
 Alpha  occ. eigenvalues --   -0.26414  -0.26063  -0.24757  -0.23819  -0.23300
 Alpha  occ. eigenvalues --   -0.17688  -0.15760  -0.15540  -0.13860  -0.13044
 Alpha  occ. eigenvalues --   -0.11956  -0.09133   0.04729
 Alpha virt. eigenvalues --    0.06327   0.07076   0.07409   0.07904   0.08476
 Alpha virt. eigenvalues --    0.08560   0.09015   0.09671   0.10063   0.10334
 Alpha virt. eigenvalues --    0.11100   0.12049   0.12257   0.12780   0.13092

  Beta  occ. eigenvalues --  -19.07080 -18.94970 -14.24109 -14.20835 -10.13675
  Beta  occ. eigenvalues --  -10.10648 -10.10430 -10.09691 -10.08937 -10.07986
  Beta  occ. eigenvalues --  -10.07907 -10.07827 -10.07806 -10.07640 -10.07570
  Beta  occ. eigenvalues --  -10.07563 -10.07107 -10.06989 -10.04962  -0.99163
  Beta  occ. eigenvalues --   -0.90426  -0.86567  -0.79256  -0.76009  -0.70280
  Beta  occ. eigenvalues --   -0.68222  -0.65009  -0.64822  -0.61269  -0.58784
  Beta  occ. eigenvalues --   -0.57839  -0.52722  -0.50964  -0.49554  -0.47471
  Beta  occ. eigenvalues --   -0.46453  -0.42768  -0.42033  -0.40015  -0.37670
  Beta  occ. eigenvalues --   -0.36994  -0.36574  -0.36139  -0.35566  -0.34450
  Beta  occ. eigenvalues --   -0.33162  -0.32533  -0.32414  -0.31623  -0.31505
  Beta  occ. eigenvalues --   -0.29582  -0.29003  -0.27844  -0.27305  -0.27284
  Beta  occ. eigenvalues --   -0.26309  -0.25672  -0.24695  -0.23771  -0.22983
  Beta  occ. eigenvalues --   -0.17171  -0.15717  -0.15357  -0.13629  -0.12556
  Beta  occ. eigenvalues --   -0.11371  -0.08244
  Beta virt. eigenvalues --    0.06696   0.07399   0.07771   0.07991   0.08290
  Beta virt. eigenvalues --    0.08686   0.08983   0.09063   0.09916   0.10341
  Beta virt. eigenvalues --    0.10686   0.11132   0.12160   0.12529   0.13058

 Mulliken charges and spin densities:
               1          2
     1  C    0.475545  -0.859638
     2  N   -0.235773   0.075656
     3  C   -1.083846   0.571307
     4  O   -0.389119   0.062122
     5  C    0.762055  -0.610812
     6  C   -0.235997   0.281376
     7  C   -0.288357  -0.337291
     8  C    0.531705   0.151037
     9  N    0.345521   0.054511
    10  C   -0.566424  -0.244131
    11  C    1.402715  -0.051764
    12  C   -0.936285   0.649688
    13  C    0.018898  -0.405255
    14  C    0.170381  -0.494000
    15  C   -0.210222  -0.227013
    16  C   -0.337735   0.107142
    17  C   -0.384073  -0.174125
    18  C   -0.125576   0.248621
    19  O   -0.132741   0.009904
    20  H    0.124769   0.039587
    21  H    0.041540   0.103399
    22  H   -0.655177   0.793323
    23  H    0.007571   0.298730
    24  H    0.080885   0.082791
    25  H    0.137253   0.001649
    26  H    0.246706  -0.000049
    27  H    0.217021  -0.016678
    28  H   -0.063836   0.234309
    29  H   -0.341155   0.484940
    30  H   -0.014135   0.174235
    31  H    0.162342  -0.013590
    32  H    0.133624  -0.000153
    33  H    0.141920   0.010172
 Sum of Mulliken charges =  -1.00000   1.00000

 Dipole moment (field-independent basis, Debye):
    X=             -2.2689    Y=             -5.2553    Z=             -1.6235  Tot=              5.9500
 Quadrupole moment (field-independent basis, Debye-Ang):
   XX=           -163.6862   YY=           -152.9451   ZZ=           -139.1793
   XY=             -0.9614   XZ=             -7.4186   YZ=              1.2051

 Summary of Natural Population Analysis:

                                       Natural Population
                Natural  -----------------------------------------------
    Atom  No    Charge         Core      Valence    Rydberg      Total
 -----------------------------------------------------------------------
      C    1   -0.18059      0.99965     2.17240    0.00854     3.18059
      N    2   -0.31376      0.99969     2.80360    0.01048     3.81376
      C    3    0.34092      0.99960     1.63725    0.02223     2.65908
      O    4   -0.33041      0.99988     3.32511    0.00542     4.33041
      C    5    0.05163      0.99951     1.93693    0.01193     2.94837
      C    6   -0.12958      0.99949     2.12254    0.00755     3.12958
      C    7    0.11039      0.99927     1.87682    0.01352     2.88961
      C    8    0.05300      0.99941     1.93754    0.01004     2.94700
      N    9   -0.17973      0.99959     2.67070    0.00943     3.67973
      C   10   -0.09131      0.99958     2.08213    0.00960     3.09131
      C   11   -0.01695      0.99949     2.00797    0.00948     3.01695
      C   12   -0.09600      0.99951     2.08708    0.00941     3.09600
      C   13   -0.10178      0.99957     2.09201    0.01021     3.10178
      C   14   -0.10291      0.99956     2.09339    0.00995     3.10291
      C   15   -0.10280      0.99957     2.09302    0.01021     3.10280
      C   16   -0.09926      0.99951     2.09070    0.00904     3.09926
      C   17   -0.17707      0.99954     2.17029    0.00724     3.17707
      C   18    0.09955      0.99954     1.88676    0.01414     2.90045
      O   19   -0.23510      0.99986     3.22789    0.00735     4.23510
      H   20    0.10513      0.00000     0.39363    0.00124     0.39487
      H   21    0.08415      0.00000     0.41476    0.00110     0.41585
      H   22    0.09717      0.00000     0.40044    0.00240     0.40283
      H   23    0.18962      0.00000     0.30764    0.00274     0.31038
      H   24    0.10648      0.00000     0.39247    0.00105     0.39352
      H   25    0.09670      0.00000     0.40229    0.00101     0.40330
      H   26    0.12153      0.00000     0.37748    0.00100     0.37847
      H   27    0.11316      0.00000     0.38531    0.00153     0.38684
      H   28    0.09957      0.00000     0.39961    0.00082     0.40043
      H   29    0.09911      0.00000     0.39988    0.00101     0.40089
      H   30    0.09808      0.00000     0.40111    0.00080     0.40192
      H   31    0.10021      0.00000     0.39789    0.00190     0.39979
      H   32    0.10538      0.00000     0.39379    0.00083     0.39462
      H   33    0.08548      0.00000     0.41360    0.00091     0.41452
 =======================================================================
   * Total *    0.00000     18.99182    47.79404    0.21414    67.00000

 Normal termination of Gaussian 16 at Sat Dec 12 12:17:33 2020.
