 Gaussian 16, Revision A.03,

 -----------------------------------------------------------
 # opt freq B3LYP/6-31G(d) empiricaldispersion=gd3bj scf=xqc
 -----------------------------------------------------------

 ------------------------------
 CID_87747373_JID_4034_neutraal
 ------------------------------
 Symbolic Z-matrix:
 Charge =  0 Multiplicity = 1

 SCF Done:  E(RB3LYP) =  -637.061975789     A.U. after   15 cycles
 SCF Done:  E(RB3LYP) =  -637.065225945     A.U. after   13 cycles
 SCF Done:  E(RB3LYP) =  -637.065967316     A.U. after   13 cycles
 SCF Done:  E(RB3LYP) =  -637.068340751     A.U. after   13 cycles
 SCF Done:  E(RB3LYP) =  -637.068804199     A.U. after   12 cycles
 SCF Done:  E(RB3LYP) =  -637.069267546     A.U. after   13 cycles
 SCF Done:  E(RB3LYP) =  -637.069838672     A.U. after   12 cycles
 SCF Done:  E(RB3LYP) =  -637.070245162     A.U. after   13 cycles
 SCF Done:  E(RB3LYP) =  -637.070536591     A.U. after   13 cycles
 SCF Done:  E(RB3LYP) =  -637.070935981     A.U. after   13 cycles
 SCF Done:  E(RB3LYP) =  -637.071555997     A.U. after    9 cycles
 SCF Done:  E(RB3LYP) =  -637.071556835     A.U. after    9 cycles
 SCF Done:  E(RB3LYP) =  -637.071557305     A.U. after    8 cycles
 SCF Done:  E(RB3LYP) =  -637.071557560     A.U. after    8 cycles
 SCF Done:  E(RB3LYP) =  -637.071557579     A.U. after    6 cycles
 Optimization completed.
    -- Stationary point found.
 Normal termination of Gaussian 16 at Thu Dec 10 09:25:06 2020.

 --------------------------------------------------------------------
 #N Geom=AllCheck Guess=TCheck SCRF=Check GenChk RB3LYP/6-31G(d) Freq
 --------------------------------------------------------------------

 Structure from the checkpoint file:  "JID_4034.chk"
 ------------------------------
 CID_87747373_JID_4034_neutraal
 ------------------------------
 Charge =  0 Multiplicity = 1

 SCF Done:  E(RB3LYP) =  -637.071557579     A.U. after    1 cycles

  Exact polarizability: 166.850  -9.002 131.611   0.986   3.480  99.940
 Approx polarizability: 208.366 -18.249 192.371   5.345  10.049 145.844

                      1                      2                      3
                      A                      A                      A
 Frequencies --     25.9945                33.5760                62.4873
 Red. masses --      3.3060                 4.3170                 3.7995
 Frc consts  --      0.0013                 0.0029                 0.0087
 IR Inten    --      1.2255                 0.3947                 0.5267

                      4                      5                      6
                      A                      A                      A
 Frequencies --     70.9686                94.4585               108.1457
 Red. masses --      2.8686                 3.6620                 2.6620
 Frc consts  --      0.0085                 0.0193                 0.0183
 IR Inten    --      0.9764                 0.5371                 0.6910

                      7                      8                      9
                      A                      A                      A
 Frequencies --    111.5992               138.2789               149.2712
 Red. masses --      2.7411                 2.6669                 1.9108
 Frc consts  --      0.0201                 0.0300                 0.0251
 IR Inten    --      0.2179                 0.3920                 0.2434

                     10                     11                     12
                      A                      A                      A
 Frequencies --    175.5271               206.1973               233.5909
 Red. masses --      1.3917                 2.3800                 1.0850
 Frc consts  --      0.0253                 0.0596                 0.0349
 IR Inten    --      0.4419                 2.4155                 0.0998

                     13                     14                     15
                      A                      A                      A
 Frequencies --    253.4072               274.6716               294.2026
 Red. masses --      2.5370                 1.3105                 2.4391
 Frc consts  --      0.0960                 0.0583                 0.1244
 IR Inten    --      0.5829                 0.2502                16.1393

                     16                     17                     18
                      A                      A                      A
 Frequencies --    308.9508               335.7944               359.8342
 Red. masses --      1.6354                 2.5385                 3.2066
 Frc consts  --      0.0920                 0.1686                 0.2446
 IR Inten    --     25.2885                50.8582                 2.8974

                     19                     20                     21
                      A                      A                      A
 Frequencies --    383.1192               396.1362               426.6923
 Red. masses --      2.3172                 2.5620                 2.4388
 Frc consts  --      0.2004                 0.2369                 0.2616
 IR Inten    --      1.6756                17.9739                 2.5870

                     22                     23                     24
                      A                      A                      A
 Frequencies --    454.3908               478.6966               533.6966
 Red. masses --      3.0751                 2.4794                 2.7733
 Frc consts  --      0.3741                 0.3347                 0.4654
 IR Inten    --      2.8625                 2.4673                 9.6977

                     25                     26                     27
                      A                      A                      A
 Frequencies --    609.0476               692.9346               752.4947
 Red. masses --      3.6238                 3.2360                 2.1036
 Frc consts  --      0.7920                 0.9155                 0.7018
 IR Inten    --      1.4390                 6.6278                 1.1647

                     28                     29                     30
                      A                      A                      A
 Frequencies --    781.6676               799.1289               814.5343
 Red. masses --      6.4080                 1.9070                 1.3092
 Frc consts  --      2.3068                 0.7175                 0.5118
 IR Inten    --     10.9939                 0.6704                 6.6144

                     31                     32                     33
                      A                      A                      A
 Frequencies --    821.5314               868.1084               891.8239
 Red. masses --      1.8184                 2.3850                 1.8926
 Frc consts  --      0.7231                 1.0590                 0.8869
 IR Inten    --      6.4721                11.8126                23.7966

                     34                     35                     36
                      A                      A                      A
 Frequencies --    907.2976               925.3295               966.5147
 Red. masses --      1.4928                 1.6293                 2.2044
 Frc consts  --      0.7240                 0.8219                 1.2132
 IR Inten    --    120.0105                 8.0767                 5.0648

                     37                     38                     39
                      A                      A                      A
 Frequencies --    976.1203              1034.6869              1037.8315
 Red. masses --      2.1114                 1.9302                 1.8414
 Frc consts  --      1.1853                 1.2175                 1.1685
 IR Inten    --      1.2277                28.2419                 3.5395

                     40                     41                     42
                      A                      A                      A
 Frequencies --   1062.2549              1067.6213              1082.0485
 Red. masses --      1.9848                 1.5840                 2.0573
 Frc consts  --      1.3196                 1.0637                 1.4192
 IR Inten    --     13.2600                15.2509                 5.3505

                     43                     44                     45
                      A                      A                      A
 Frequencies --   1085.3724              1088.6568              1124.1866
 Red. masses --      2.2138                 1.5290                 1.7500
 Frc consts  --      1.5365                 1.0677                 1.3031
 IR Inten    --      6.8084                 4.8943                37.7795

                     46                     47                     48
                      A                      A                      A
 Frequencies --   1134.8064              1141.9691              1179.5573
 Red. masses --      2.1064                 2.9572                 2.1809
 Frc consts  --      1.5983                 2.2721                 1.7878
 IR Inten    --      2.9681               147.6609                39.7524

                     49                     50                     51
                      A                      A                      A
 Frequencies --   1235.6927              1238.0955              1263.7679
 Red. masses --      1.1904                 2.8037                 1.6190
 Frc consts  --      1.0709                 2.5321                 1.5235
 IR Inten    --      2.7624               148.9835               138.2662

                     52                     53                     54
                      A                      A                      A
 Frequencies --   1290.2554              1303.8620              1314.8516
 Red. masses --      1.2626                 1.3273                 2.2247
 Frc consts  --      1.2385                 1.3295                 2.2660
 IR Inten    --     19.5893                 9.9169               197.5646

                     55                     56                     57
                      A                      A                      A
 Frequencies --   1325.1965              1364.0238              1369.6016
 Red. masses --      1.2400                 1.2075                 1.3989
 Frc consts  --      1.2831                 1.3237                 1.5460
 IR Inten    --      0.6896                29.8914                 2.2044

                     58                     59                     60
                      A                      A                      A
 Frequencies --   1383.3608              1395.0420              1415.6534
 Red. masses --      1.3526                 1.3967                 1.3172
 Frc consts  --      1.5250                 1.6015                 1.5553
 IR Inten    --      3.0039                 6.8006                13.0886

                     61                     62                     63
                      A                      A                      A
 Frequencies --   1427.5531              1443.1587              1447.7146
 Red. masses --      1.2142                 1.2683                 1.2341
 Frc consts  --      1.4579                 1.5563                 1.5239
 IR Inten    --      2.7258                 4.8006                 4.3141

                     64                     65                     66
                      A                      A                      A
 Frequencies --   1461.4974              1508.1923              1510.1185
 Red. masses --      1.4208                 1.0751                 1.0987
 Frc consts  --      1.7881                 1.4408                 1.4762
 IR Inten    --      8.0050                 5.4184                 9.9626

                     67                     68                     69
                      A                      A                      A
 Frequencies --   1517.3654              1518.8505              1521.2798
 Red. masses --      1.0679                 1.0554                 1.0628
 Frc consts  --      1.4487                 1.4344                 1.4491
 IR Inten    --      2.1557                 7.7198                 3.2656

                     70                     71                     72
                      A                      A                      A
 Frequencies --   1527.9539              1530.0072              1538.1251
 Red. masses --      1.0535                 1.0483                 1.0791
 Frc consts  --      1.4491                 1.4458                 1.5041
 IR Inten    --      2.4715                 2.2142                 5.8615

                     73                     74                     75
                      A                      A                      A
 Frequencies --   1538.4962              1539.4626              1547.7533
 Red. masses --      1.0680                 1.0729                 1.0873
 Frc consts  --      1.4894                 1.4981                 1.5347
 IR Inten    --      0.9090                 7.1057                 8.4200

                     76                     77                     78
                      A                      A                      A
 Frequencies --   1680.4965              1691.1833              1768.4194
 Red. masses --      2.0532                 1.8420                 7.5438
 Frc consts  --      3.4164                 3.1039                13.8999
 IR Inten    --    124.3606                44.3912               132.1339

                     79                     80                     81
                      A                      A                      A
 Frequencies --   2953.1743              3043.3820              3046.9424
 Red. masses --      1.0739                 1.0621                 1.0374
 Frc consts  --      5.5180                 5.7961                 5.6744
 IR Inten    --     72.0174                27.8430                18.5170

                     82                     83                     84
                      A                      A                      A
 Frequencies --   3049.2714              3051.0661              3051.4159
 Red. masses --      1.0608                 1.0422                 1.0842
 Frc consts  --      5.8115                 5.7161                 5.9478
 IR Inten    --     10.9710                58.8046                36.2300

                     85                     86                     87
                      A                      A                      A
 Frequencies --   3060.8889              3063.0793              3080.2229
 Red. masses --      1.0596                 1.0500                 1.0984
 Frc consts  --      5.8489                 5.8045                 6.1401
 IR Inten    --     40.8742                12.6057                15.8608

                     88                     89                     90
                      A                      A                      A
 Frequencies --   3091.3957              3096.3629              3110.6523
 Red. masses --      1.1022                 1.0589                 1.0992
 Frc consts  --      6.2059                 5.9815                 6.2663
 IR Inten    --     35.9252                36.3016                11.9734

                     91                     92                     93
                      A                      A                      A
 Frequencies --   3111.2414              3114.1824              3121.1414
 Red. masses --      1.1011                 1.1016                 1.1027
 Frc consts  --      6.2796                 6.2946                 6.3288
 IR Inten    --     30.3935                49.5197                50.4193

                     94                     95                     96
                      A                      A                      A
 Frequencies --   3146.3725              3153.2857              3158.5160
 Red. masses --      1.0981                 1.1096                 1.0958
 Frc consts  --      6.4051                 6.5006                 6.4411
 IR Inten    --     19.5816                18.7127                11.9372

                     97                     98                     99
                      A                      A                      A
 Frequencies --   3165.4568              3477.3624              3570.4168
 Red. masses --      1.0974                 1.0495                 1.0931
 Frc consts  --      6.4789                 7.4774                 8.2104
 IR Inten    --     24.7138                32.5628                21.1284

 - Thermochemistry -
 -------------------
 Temperature   298.150 Kelvin.  Pressure   1.00000 Atm.
 Atom     1 has atomic number  6 and mass  12.00000

 Molecular mass:   199.15723 amu.
 Principal axes and moments of inertia in atomic units:
                           1         2         3
     Eigenvalues --  1539.339315187.615655995.55089
           X            0.99998  -0.00027  -0.00652
           Y            0.00026   1.00000  -0.00276
           Z            0.00652   0.00276   0.99997
 This molecule is an asymmetric top.
 Rotational symmetry number  1.
 Warning -- assumption of classical behavior for rotation
           may cause significant error
 Rotational temperatures (Kelvin)      0.05627     0.01670     0.01445
 Rotational constants (GHZ):           1.17241     0.34789     0.30101
 Zero-point vibrational energy     825950.1 (Joules/Mol)
                                  197.40681 (Kcal/Mol)
 Warning -- explicit consideration of  25 degrees of freedom as
           vibrations may cause significant error
 Vibrational temperatures:     37.40    48.31    89.91   102.11   135.90
          (Kelvin)            155.60   160.57   198.95   214.77   252.54
                              296.67   336.09   364.60   395.19   423.29
                              444.51   483.13   517.72   551.22   569.95
                              613.92   653.77   688.74   767.87   876.28
                              996.98  1082.67  1124.65  1149.77  1171.93
                             1182.00  1249.01  1283.14  1305.40  1331.34
                             1390.60  1404.42  1488.68  1493.21  1528.35
                             1536.07  1556.83  1561.61  1566.33  1617.45
                             1632.73  1643.04  1697.12  1777.89  1781.34
                             1818.28  1856.39  1875.97  1891.78  1906.66
                             1962.53  1970.55  1990.35  2007.15  2036.81
                             2053.93  2076.38  2082.94  2102.77  2169.95
                             2172.72  2183.15  2185.29  2188.78  2198.38
                             2201.34  2213.02  2213.55  2214.94  2226.87
                             2417.86  2433.24  2544.36  4248.96  4378.75
                             4383.87  4387.22  4389.80  4390.31  4403.94
                             4407.09  4431.75  4447.83  4454.98  4475.53
                             4476.38  4480.61  4490.63  4526.93  4536.87
                             4544.40  4554.39  5003.15  5137.03

 Zero-point correction=                           0.314588 (Hartree/Particle)
 Thermal correction to Energy=                    0.331509
 Thermal correction to Enthalpy=                  0.332453
 Thermal correction to Gibbs Free Energy=         0.269097
 Sum of electronic and zero-point Energies=           -636.756970
 Sum of electronic and thermal Energies=              -636.740049
 Sum of electronic and thermal Enthalpies=            -636.739105
 Sum of electronic and thermal Free Energies=         -636.802461

                     E (Thermal)             CV                S
                      KCal/Mol        Cal/Mol-Kelvin    Cal/Mol-Kelvin
 Total                  208.025             61.252            133.344
 Electronic               0.000              0.000              0.000
 Translational            0.889              2.981             41.772
 Rotational               0.889              2.981             32.237
 Vibrational            206.247             55.290             59.335
 Vibration     1          0.593              1.985              6.114
 Vibration     2          0.594              1.983              5.606
 Vibration     3          0.597              1.972              4.377
 Vibration     4          0.598              1.968              4.126
 Vibration     5          0.603              1.953              3.566
 Vibration     6          0.606              1.943              3.302
 Vibration     7          0.607              1.940              3.241
 Vibration     8          0.614              1.915              2.828
 Vibration     9          0.618              1.903              2.681
 Vibration    10          0.627              1.873              2.375
 Vibration    11          0.641              1.831              2.077
 Vibration    12          0.654              1.790              1.851
 Vibration    13          0.665              1.757              1.707
 Vibration    14          0.677              1.720              1.567
 Vibration    15          0.689              1.685              1.450
 Vibration    16          0.698              1.657              1.368
 Vibration    17          0.717              1.604              1.232
 Vibration    18          0.734              1.555              1.123
 Vibration    19          0.752              1.506              1.027
 Vibration    20          0.763              1.478              0.977
 Vibration    21          0.788              1.412              0.870
 Vibration    22          0.813              1.351              0.783
 Vibration    23          0.835              1.297              0.714
 Vibration    24          0.889              1.175              0.579
 Vibration    25          0.968              1.013              0.434

 Optimization completed.
    -- Stationary point found.
 Normal termination of Gaussian 16 at Thu Dec 10 09:34:56 2020.

 ----------------------------------------------------------------------
 # B3LYP/6-311++G(d,p) empiricaldispersion=gd3bj scf=xqc pop=npa geom=c
 heck
 ----------------------------------------------------------------------

 --------------------------------------
 CID_87747373_JID_4034_Energie_neutraal
 --------------------------------------
 Structure from the checkpoint file:  "JID_4034.chk"
 Charge =  0 Multiplicity = 1

 SCF Done:  E(RB3LYP) =  -637.260920571     A.U. after   15 cycles
 Normal termination of Gaussian 16 at Thu Dec 10 09:40:03 2020.

 ----------------------------------------------------------------------
 # B3LYP/6-311++G(d,p) empiricaldispersion=gd3bj scf=xqc pop=npa geom=c
 heck
 ----------------------------------------------------------------------

 ------------------------------------
 CID_87747373_JID_4034_Energie_kation
 ------------------------------------
 Structure from the checkpoint file:  "JID_4034.chk"
 Charge =  1 Multiplicity = 2

 SCF Done:  E(UB3LYP) =  -636.955137974     A.U. after   23 cycles
 Normal termination of Gaussian 16 at Thu Dec 10 09:50:17 2020.
 Gaussian 16:  ES64L-G16RevA.03 25-Dec-2016

 ----------------------------------------------------------------------
 # B3LYP/6-311++G(d,p) empiricaldispersion=gd3bj scf=xqc pop=npa geom=c
 heck
 ----------------------------------------------------------------------

 -----------------------------------
 CID_87747373_JID_4034_Energie_anion
 -----------------------------------
 Structure from the checkpoint file:  "JID_4034.chk"
 Charge = -1 Multiplicity = 2

                         Standard orientation:
 ---------------------------------------------------------------------
 Center     Atomic      Atomic             Coordinates (Angstroms)
 Number     Number       Type             X           Y           Z
 ---------------------------------------------------------------------
      1          6           0       -3.874966   -0.553937    1.444166
      2          6           0       -3.620881   -1.050838    0.019287
      3          6           0       -2.835522   -0.057834   -0.865243
      4          6           0       -1.475710    0.311195   -0.301796
      5          6           0       -0.411568   -0.521094   -0.429179
      6          6           0       -0.477626   -1.871217   -1.111113
      7          6           0        0.917595   -0.156870    0.130625
      8          8           0        1.280428    0.951797    0.496995
      9          8           0        1.730755   -1.237714    0.183729
     10          6           0        3.052497   -1.068517    0.748494
     11          6           0        4.044866   -0.399885   -0.207938
     12          7           0        4.210033    1.019938    0.099671
     13          6           0       -1.440270    1.657656    0.387978
     14          6           0       -1.111704    2.786427   -0.605119
     15          1           0       -2.934700   -0.389150    1.981501
     16          1           0       -4.460338   -1.284410    2.013156
     17          1           0       -4.430639    0.391571    1.444006
     18          1           0       -3.074936   -2.000947    0.060308
     19          1           0       -4.578987   -1.262697   -0.472830
     20          1           0       -2.738149   -0.483244   -1.870026
     21          1           0       -3.428040    0.858709   -0.975822
     22          1           0        0.346354   -1.989764   -1.822028
     23          1           0       -0.376851   -2.684720   -0.383646
     24          1           0       -1.414731   -2.015591   -1.649436
     25          1           0        2.985161   -0.494860    1.676805
     26          1           0        3.354619   -2.093550    0.970496
     27          1           0        5.020842   -0.887544   -0.084656
     28          1           0        3.709710   -0.628832   -1.236559
     29          1           0        4.777523    1.466845   -0.617672
     30          1           0        3.294307    1.465026    0.096649
     31          1           0       -2.428064    1.843944    0.825676
     32          1           0       -0.705193    1.673293    1.192121
     33          1           0       -1.813477    2.797952   -1.447633
     34          1           0       -1.164406    3.761410   -0.108478
     35          1           0       -0.099962    2.653800   -0.996394
 ---------------------------------------------------------------------

 SCF Done:  E(UB3LYP) =  -637.253906367     A.U. after   33 cycles
 SCF Done:  E(UB3LYP) =  -637.253906367     a.u. after    1 cycles

 The electronic state is 2-A.
 Alpha  occ. eigenvalues --  -19.02789 -18.95645 -14.18146 -10.14073 -10.11467
 Alpha  occ. eigenvalues --  -10.09263 -10.04845 -10.04689 -10.04445 -10.03871
 Alpha  occ. eigenvalues --  -10.03811 -10.03722 -10.03483 -10.03312  -0.96619
 Alpha  occ. eigenvalues --   -0.87366  -0.77541  -0.70335  -0.65689  -0.64344
 Alpha  occ. eigenvalues --   -0.62085  -0.58064  -0.54691  -0.53090  -0.49306
 Alpha  occ. eigenvalues --   -0.47327  -0.44635  -0.41115  -0.38655  -0.35871
 Alpha  occ. eigenvalues --   -0.35361  -0.34898  -0.33740  -0.32980  -0.32251
 Alpha  occ. eigenvalues --   -0.31583  -0.30955  -0.28714  -0.28400  -0.27766
 Alpha  occ. eigenvalues --   -0.27545  -0.26234  -0.25733  -0.25413  -0.25044
 Alpha  occ. eigenvalues --   -0.23718  -0.22961  -0.22543  -0.21349  -0.21148
 Alpha  occ. eigenvalues --   -0.19310  -0.17542  -0.13762  -0.13423  -0.11320
 Alpha  occ. eigenvalues --    0.04923
 Alpha virt. eigenvalues --    0.06640   0.07619   0.08508   0.09049   0.09247
 Alpha virt. eigenvalues --    0.09525   0.10321   0.10821   0.11382   0.11513
 Alpha virt. eigenvalues --    0.12044   0.12682   0.13295   0.13954   0.14130

  Beta  occ. eigenvalues --  -19.02729 -18.95439 -14.18134 -10.13820 -10.11469
  Beta  occ. eigenvalues --  -10.09246 -10.04776 -10.04675 -10.04473 -10.03823
  Beta  occ. eigenvalues --  -10.03806 -10.03747 -10.03293 -10.03094  -0.96377
  Beta  occ. eigenvalues --   -0.87043  -0.77516  -0.69970  -0.65534  -0.64210
  Beta  occ. eigenvalues --   -0.62022  -0.57911  -0.54497  -0.52925  -0.49190
  Beta  occ. eigenvalues --   -0.47201  -0.44449  -0.40953  -0.38505  -0.35677
  Beta  occ. eigenvalues --   -0.35149  -0.34803  -0.33555  -0.32870  -0.32060
  Beta  occ. eigenvalues --   -0.31225  -0.30828  -0.28615  -0.28313  -0.27688
  Beta  occ. eigenvalues --   -0.27442  -0.26160  -0.25444  -0.25092  -0.24841
  Beta  occ. eigenvalues --   -0.23567  -0.22843  -0.22435  -0.21278  -0.21049
  Beta  occ. eigenvalues --   -0.19138  -0.16892  -0.13714  -0.13222  -0.10065
  Beta virt. eigenvalues --    0.06905   0.07778   0.08320   0.08897   0.09121
  Beta virt. eigenvalues --    0.09730   0.10221   0.10912   0.11289   0.11396
  Beta virt. eigenvalues --    0.11742   0.12123   0.12638   0.13239   0.13961

 Mulliken charges and spin densities:
               1          2
     1  C   -0.203615  -0.428831
     2  C    0.514916  -0.796084
     3  C   -1.307129   0.808416
     4  C    2.280165  -0.488389
     5  C   -0.344313   0.227539
     6  C   -0.356401  -0.356925
     7  C   -0.719387   0.041360
     8  O   -0.326858   0.071616
     9  O    0.001190   0.009319
    10  C   -0.488126   0.157813
    11  C    0.283102  -0.451752
    12  N   -0.411195   0.028610
    13  C   -0.330603   0.045891
    14  C   -0.523089  -0.130916
    15  H    0.131908   0.024171
    16  H   -0.111954   0.243973
    17  H    0.128246  -0.010717
    18  H    0.028510   0.093000
    19  H   -0.810898   0.965714
    20  H    0.037706   0.133572
    21  H    0.029510   0.112919
    22  H    0.146976  -0.007860
    23  H    0.106716   0.067069
    24  H    0.051587   0.063007
    25  H    0.191050  -0.000820
    26  H    0.103313   0.029818
    27  H   -0.114673   0.257035
    28  H    0.087041   0.042099
    29  H    0.105759   0.097862
    30  H    0.233274   0.017787
    31  H    0.132680   0.001286
    32  H    0.179911   0.006595
    33  H    0.117447   0.000548
    34  H   -0.009967   0.116945
    35  H    0.167200   0.008333
 Sum of Mulliken charges =  -1.00000   1.00000

 Dipole moment (field-independent basis, Debye):
    X=              3.5615    Y=              0.4711    Z=              0.0561  Tot=              3.5930
 Quadrupole moment (field-independent basis, Debye-Ang):
   XX=           -168.8709   YY=           -116.8687   ZZ=           -105.0319
   XY=            -16.3717   XZ=             -7.9909   YZ=             -3.6363

 Summary of Natural Population Analysis:

                                       Natural Population
                Natural  -----------------------------------------------
    Atom  No    Charge         Core      Valence    Rydberg      Total
 -----------------------------------------------------------------------
      C    1   -0.28764      0.99966     2.28202    0.00596     3.28764
      C    2   -0.18166      0.99963     2.17336    0.00867     3.18166
      C    3   -0.20829      0.99959     2.19773    0.01096     3.20829
      C    4    0.10196      0.99946     1.88650    0.01208     2.89804
      C    5   -0.08495      0.99937     2.07609    0.00949     3.08495
      C    6   -0.29177      0.99965     2.28564    0.00648     3.29177
      C    7    0.42979      0.99962     1.54570    0.02490     2.57021
      O    8   -0.32409      0.99987     3.31894    0.00529     4.32409
      O    9   -0.28472      0.99986     3.27723    0.00763     4.28472
      C   10   -0.02124      0.99957     2.00843    0.01324     3.02124
      C   11   -0.10429      0.99965     2.09335    0.01129     3.10429
      N   12   -0.43293      0.99977     2.92206    0.01109     3.93293
      C   13   -0.20975      0.99960     2.20188    0.00827     3.20975
      C   14   -0.27515      0.99966     2.27068    0.00481     3.27515
      H   15    0.09975      0.00000     0.39933    0.00092     0.40025
      H   16    0.09550      0.00000     0.40377    0.00072     0.40450
      H   17    0.09205      0.00000     0.40716    0.00079     0.40795
      H   18    0.09432      0.00000     0.40451    0.00117     0.40568
      H   19    0.09431      0.00000     0.40174    0.00395     0.40569
      H   20    0.10348      0.00000     0.39557    0.00095     0.39652
      H   21    0.09466      0.00000     0.40440    0.00094     0.40534
      H   22    0.09879      0.00000     0.40031    0.00091     0.40121
      H   23    0.10199      0.00000     0.39688    0.00113     0.39801
      H   24    0.09706      0.00000     0.40208    0.00085     0.40294
      H   25    0.09615      0.00000     0.40255    0.00130     0.40385
      H   26    0.08768      0.00000     0.41152    0.00080     0.41232
      H   27    0.08634      0.00000     0.41232    0.00134     0.41366
      H   28    0.08265      0.00000     0.41598    0.00137     0.41735
      H   29    0.16791      0.00000     0.33065    0.00144     0.33209
      H   30    0.19397      0.00000     0.30399    0.00204     0.30603
      H   31    0.09049      0.00000     0.40854    0.00096     0.40951
      H   32    0.11445      0.00000     0.38464    0.00091     0.38555
      H   33    0.08883      0.00000     0.41037    0.00080     0.41117
      H   34    0.08965      0.00000     0.40908    0.00127     0.41035
      H   35    0.10468      0.00000     0.39426    0.00105     0.39532
 =======================================================================
   * Total *   -0.00000     13.99495    40.83928    0.16577    55.00000

 Normal termination of Gaussian 16 at Thu Dec 10 10:04:24 2020.
