 Gaussian 16, Revision A.03,

 -----------------------------------------------------------
 # opt freq B3LYP/6-31G(d) empiricaldispersion=gd3bj scf=xqc
 -----------------------------------------------------------

 -------------------------------
 CID_150187279_JID_4901_neutraal
 -------------------------------
 Symbolic Z-matrix:
 Charge =  0 Multiplicity = 1

 SCF Done:  E(RB3LYP) =  -728.726573299     A.U. after   15 cycles
 SCF Done:  E(RB3LYP) =  -728.730963869     A.U. after   12 cycles
 SCF Done:  E(RB3LYP) =  -728.731827344     A.U. after   13 cycles
 SCF Done:  E(RB3LYP) =  -728.732983356     A.U. after   11 cycles
 SCF Done:  E(RB3LYP) =  -728.734695890     A.U. after   12 cycles
 SCF Done:  E(RB3LYP) =  -728.736689481     A.U. after   13 cycles
 SCF Done:  E(RB3LYP) =  -728.739033019     A.U. after   12 cycles
 SCF Done:  E(RB3LYP) =  -728.739987883     A.U. after   12 cycles
 SCF Done:  E(RB3LYP) =  -728.740080414     A.U. after   11 cycles
 SCF Done:  E(RB3LYP) =  -728.740110084     A.U. after   10 cycles
 SCF Done:  E(RB3LYP) =  -728.740132130     A.U. after    7 cycles
 SCF Done:  E(RB3LYP) =  -728.740132666     A.U. after    8 cycles
 SCF Done:  E(RB3LYP) =  -728.740132923     A.U. after    7 cycles
 SCF Done:  E(RB3LYP) =  -728.740132976     A.U. after    6 cycles
 Optimization completed.
    -- Stationary point found.

 1\1\GINC-NODE200\FOpt\RB3LYP\6-31G(d)\C9H16O5\VSC10255\10-Dec-2020\0\\
 # opt freq B3LYP/6-31G(d) empiricaldispersion=gd3bj scf=xqc\\CID_15018
 7279_JID_4901_neutraal\\0,1\C,1.2556828571,0.074780891,-0.2464183165\C
 ,0.341166821,1.3101570136,-0.252619724\C,0.4725144781,2.038847893,-1.6
 000725007\C,-1.1204046524,0.8793889339,-0.0433913908\C,0.7742037485,2.
 3110317375,0.8608748311\C,0.5717033335,1.7654070873,2.2528165292\O,1.2
 993090063,0.9793333265,2.8127755339\O,-0.5889451589,2.261792509,2.7879
 68961\C,-1.0958925506,1.8791734873,4.0157532969\C,-0.6312236568,0.9745

 Normal termination of Gaussian 16 at Thu Dec 10 11:02:31 2020.

 --------------------------------------------------------------------
 #N Geom=AllCheck Guess=TCheck SCRF=Check GenChk RB3LYP/6-31G(d) Freq
 --------------------------------------------------------------------

 Structure from the checkpoint file:  "JID_4901.chk"
 -------------------------------
 CID_150187279_JID_4901_neutraal
 -------------------------------
 Charge =  0 Multiplicity = 1

 SCF Done:  E(RB3LYP) =  -728.740132976     A.U. after    1 cycles

  Exact polarizability: 145.919  -2.247  99.742   4.647  -2.395  90.606
 Approx polarizability: 171.607 -12.337 161.578  10.499 -10.579 132.657

                      1                      2                      3
                      A                      A                      A
 Frequencies --     17.3004                27.7864                38.9983
 Red. masses --      4.5612                 4.7776                 3.8024
 Frc consts  --      0.0008                 0.0022                 0.0034
 IR Inten    --      0.1234                 0.4298                 0.1740

                      4                      5                      6
                      A                      A                      A
 Frequencies --     74.6285                81.4602               129.8480
 Red. masses --      4.7847                 3.2402                 4.6384
 Frc consts  --      0.0157                 0.0127                 0.0461
 IR Inten    --      0.2993                 1.5523                 0.0345

                      7                      8                      9
                      A                      A                      A
 Frequencies --    170.5162               218.3429               225.6269
 Red. masses --      4.1347                 2.8851                 1.2964
 Frc consts  --      0.0708                 0.0810                 0.0389
 IR Inten    --      0.0478                 5.5813                13.1928

                     10                     11                     12
                      A                      A                      A
 Frequencies --    230.1783               259.4902               276.9816
 Red. masses --      1.4439                 2.0330                 2.1383
 Frc consts  --      0.0451                 0.0807                 0.0967
 IR Inten    --     12.6881                 3.9373                 1.8405

                     13                     14                     15
                      A                      A                      A
 Frequencies --    278.7068               290.9342               314.5494
 Red. masses --      1.1534                 1.2898                 2.4963
 Frc consts  --      0.0528                 0.0643                 0.1455
 IR Inten    --      0.5413                 1.7938                 1.8632

                     16                     17                     18
                      A                      A                      A
 Frequencies --    351.0626               369.8788               398.8088
 Red. masses --      2.4824                 1.8076                 2.5403
 Frc consts  --      0.1803                 0.1457                 0.2380
 IR Inten    --      1.2982                21.7749                 1.9159

                     19                     20                     21
                      A                      A                      A
 Frequencies --    408.6835               412.4846               428.4197
 Red. masses --      2.4774                 1.5353                 1.8561
 Frc consts  --      0.2438                 0.1539                 0.2007
 IR Inten    --      7.9606                99.0594               131.2375

                     22                     23                     24
                      A                      A                      A
 Frequencies --    442.9216               486.4406               499.9837
 Red. masses --      2.4536                 2.8323                 2.4335
 Frc consts  --      0.2836                 0.3949                 0.3584
 IR Inten    --      0.8625                28.1462                29.5194

                     25                     26                     27
                      A                      A                      A
 Frequencies --    553.7908               588.0819               621.3601
 Red. masses --      5.6301                 3.6169                 4.8289
 Frc consts  --      1.0173                 0.7370                 1.0985
 IR Inten    --     50.6324                56.9508                20.6285

                     28                     29                     30
                      A                      A                      A
 Frequencies --    671.4887               760.1512               792.4835
 Red. masses --      5.0475                 4.7705                 4.7095
 Frc consts  --      1.3409                 1.6241                 1.7426
 IR Inten    --     23.7787                 5.1471                 6.3514

                     31                     32                     33
                      A                      A                      A
 Frequencies --    857.5160               877.9848               881.3245
 Red. masses --      4.2892                 4.1966                 2.0800
 Frc consts  --      1.8583                 1.9060                 0.9519
 IR Inten    --     29.6733                29.4923                 5.1163

                     34                     35                     36
                      A                      A                      A
 Frequencies --    920.5940               936.6681               954.8604
 Red. masses --      2.3400                 2.2297                 1.6527
 Frc consts  --      1.1684                 1.1526                 0.8878
 IR Inten    --      1.3756                 2.0967                 0.8445

                     37                     38                     39
                      A                      A                      A
 Frequencies --    960.5489               979.8186              1009.0547
 Red. masses --      1.4410                 1.2064                 1.0916
 Frc consts  --      0.7834                 0.6824                 0.6548
 IR Inten    --      0.0619                 0.0861                51.6556

                     40                     41                     42
                      A                      A                      A
 Frequencies --   1018.5848              1063.5457              1072.5862
 Red. masses --      2.7232                 1.4986                 3.1212
 Frc consts  --      1.6646                 0.9987                 2.1156
 IR Inten    --     54.9879                21.5785               363.1129

                     43                     44                     45
                      A                      A                      A
 Frequencies --   1075.5323              1124.1239              1166.9134
 Red. masses --      1.5665                 2.2972                 2.2049
 Frc consts  --      1.0676                 1.7103                 1.7689
 IR Inten    --     17.0358                69.5992               119.5204

                     46                     47                     48
                      A                      A                      A
 Frequencies --   1172.8972              1235.7411              1253.7705
 Red. masses --      4.2278                 1.9185                 2.6581
 Frc consts  --      3.4267                 1.7261                 2.4619
 IR Inten    --    565.8113               117.9459                88.0077

                     49                     50                     51
                      A                      A                      A
 Frequencies --   1274.6017              1291.1589              1327.0143
 Red. masses --      2.3146                 1.5141                 1.7021
 Frc consts  --      2.2156                 1.4872                 1.7660
 IR Inten    --     12.0651                37.7543                 5.2747

                     52                     53                     54
                      A                      A                      A
 Frequencies --   1337.4676              1364.8931              1370.0825
 Red. masses --      1.4537                 1.5767                 1.6793
 Frc consts  --      1.5321                 1.7306                 1.8572
 IR Inten    --     73.4705                62.8972                 1.1295

                     55                     56                     57
                      A                      A                      A
 Frequencies --   1394.2663              1431.0016              1435.5370
 Red. masses --      1.2653                 1.2354                 1.2367
 Frc consts  --      1.4492                 1.4905                 1.5015
 IR Inten    --     57.8099                 4.6768                 8.1984

                     58                     59                     60
                      A                      A                      A
 Frequencies --   1455.4132              1463.4808              1503.3735
 Red. masses --      2.0306                 1.2269                 1.1036
 Frc consts  --      2.5343                 1.5482                 1.4697
 IR Inten    --    237.2237                 3.1878                 4.3007

                     61                     62                     63
                      A                      A                      A
 Frequencies --   1511.8578              1516.4082              1518.0409
 Red. masses --      1.0470                 1.0491                 1.0467
 Frc consts  --      1.4100                 1.4213                 1.4212
 IR Inten    --      0.8135                 1.2294                 0.6740

                     64                     65                     66
                      A                      A                      A
 Frequencies --   1536.9226              1540.2994              1546.9188
 Red. masses --      1.0593                 1.0570                 1.0570
 Frc consts  --      1.4742                 1.4775                 1.4903
 IR Inten    --      5.9453                 6.0888                12.5359

                     67                     68                     69
                      A                      A                      A
 Frequencies --   1721.8606              1828.3562              3040.5182
 Red. masses --      6.0813                11.3591                 1.0346
 Frc consts  --     10.6228                22.3726                 5.6353
 IR Inten    --    105.5918               153.4306                28.3540

                     70                     71                     72
                      A                      A                      A
 Frequencies --   3046.0917              3052.5744              3076.6399
 Red. masses --      1.0353                 1.0375                 1.0584
 Frc consts  --      5.6598                 5.6960                 5.9025
 IR Inten    --     28.0217                15.0772                10.0098

                     73                     74                     75
                      A                      A                      A
 Frequencies --   3108.0932              3109.8363              3112.5092
 Red. masses --      1.1029                 1.1027                 1.1027
 Frc consts  --      6.2773                 6.2832                 6.2941
 IR Inten    --      5.6980                12.1533                22.9867

                     76                     77                     78
                      A                      A                      A
 Frequencies --   3116.5259              3118.6297              3130.1767
 Red. masses --      1.1022                 1.1019                 1.1056
 Frc consts  --      6.3073                 6.3145                 6.3822
 IR Inten    --     38.1611                61.4755                23.6073

                     79                     80                     81
                      A                      A                      A
 Frequencies --   3141.0155              3254.2685              3294.5758
 Red. masses --      1.1000                 1.0926                 1.0914
 Frc consts  --      6.3944                 6.8175                 6.9794
 IR Inten    --     22.4967                 3.0739                 4.0207

                     82                     83                     84
                      A                      A                      A
 Frequencies --   3727.0904              3759.7500              3760.1816
 Red. masses --      1.0649                 1.0654                 1.0657
 Frc consts  --      8.7160                 8.8732                 8.8774
 IR Inten    --     37.0880                54.3919                 5.4315

 - Thermochemistry -
 -------------------
 Temperature   298.150 Kelvin.  Pressure   1.00000 Atm.
 Atom     1 has atomic number  6 and mass  12.00000

 Molecular mass:   204.09977 amu.
 Principal axes and moments of inertia in atomic units:
                           1         2         3
     Eigenvalues --  1063.749367010.458037100.88090
           X            0.99998   0.00028  -0.00584
           Y           -0.00018   0.99988   0.01572
           Z            0.00584  -0.01572   0.99986
 This molecule is an asymmetric top.
 Rotational symmetry number  1.
 Warning -- assumption of classical behavior for rotation
           may cause significant error
 Rotational temperatures (Kelvin)      0.08142     0.01235     0.01220
 Rotational constants (GHZ):           1.69658     0.25744     0.25416
 Zero-point vibrational energy     659147.7 (Joules/Mol)
                                  157.54008 (Kcal/Mol)
 Warning -- explicit consideration of  26 degrees of freedom as
           vibrations may cause significant error
 Vibrational temperatures:     24.89    39.98    56.11   107.37   117.20
          (Kelvin)            186.82   245.33   314.15   324.63   331.18
                              373.35   398.51   401.00   418.59   452.57
                              505.10   532.17   573.80   588.00   593.47
                              616.40   637.27   699.88   719.37   796.78
                              846.12   894.00   966.12  1093.69  1140.21
                             1233.77  1263.22  1268.03  1324.53  1347.66
                             1373.83  1382.02  1409.74  1451.80  1465.52
                             1530.21  1543.21  1547.45  1617.36  1678.93
                             1687.54  1777.96  1803.90  1833.87  1857.69
                             1909.28  1924.32  1963.78  1971.24  2006.04
                             2058.89  2065.42  2094.01  2105.62  2163.02
                             2175.23  2181.77  2184.12  2211.29  2216.15
                             2225.67  2477.37  2630.60  4374.63  4382.65
                             4391.97  4426.60  4471.85  4474.36  4478.21
                             4483.99  4487.01  4503.63  4519.22  4682.17
                             4740.16  5362.45  5409.44  5410.06

 Zero-point correction=                           0.251056 (Hartree/Particle)
 Thermal correction to Energy=                    0.267342
 Thermal correction to Enthalpy=                  0.268286
 Thermal correction to Gibbs Free Energy=         0.205925
 Sum of electronic and zero-point Energies=           -728.489077
 Sum of electronic and thermal Energies=              -728.472791
 Sum of electronic and thermal Enthalpies=            -728.471847
 Sum of electronic and thermal Free Energies=         -728.534208

                     E (Thermal)             CV                S
                      KCal/Mol        Cal/Mol-Kelvin    Cal/Mol-Kelvin
 Total                  167.759             60.124            131.249
 Electronic               0.000              0.000              0.000
 Translational            0.889              2.981             41.845
 Rotational               0.889              2.981             32.338
 Vibrational            165.982             54.162             57.067
 Vibration     1          0.593              1.986              6.922
 Vibration     2          0.593              1.984              5.981
 Vibration     3          0.594              1.981              5.309
 Vibration     4          0.599              1.966              4.027
 Vibration     5          0.600              1.962              3.855
 Vibration     6          0.612              1.923              2.948
 Vibration     7          0.626              1.879              2.430
 Vibration     8          0.646              1.813              1.973
 Vibration     9          0.650              1.802              1.913
 Vibration    10          0.652              1.795              1.878
 Vibration    11          0.668              1.747              1.665
 Vibration    12          0.678              1.716              1.552
 Vibration    13          0.679              1.713              1.542
 Vibration    14          0.687              1.691              1.469
 Vibration    15          0.702              1.646              1.338
 Vibration    16          0.728              1.573              1.161
 Vibration    17          0.742              1.534              1.080
 Vibration    18          0.765              1.473              0.967
 Vibration    19          0.773              1.451              0.931
 Vibration    20          0.776              1.443              0.918
 Vibration    21          0.790              1.408              0.864
 Vibration    22          0.803              1.377              0.817
 Vibration    23          0.842              1.280              0.693
 Vibration    24          0.855              1.250              0.658
 Vibration    25          0.909              1.131              0.536
 Vibration    26          0.945              1.057              0.471

 Optimization completed.
    -- Stationary point found.

 1\1\GINC-NODE200\Freq\RB3LYP\6-31G(d)\C9H16O5\VSC10255\10-Dec-2020\0\\
 #N Geom=AllCheck Guess=TCheck SCRF=Check GenChk RB3LYP/6-31G(d) Freq\\
 CID_150187279_JID_4901_neutraal\\0,1\C,1.2556828571,0.074780891,-0.246
 4183165\C,0.341166821,1.3101570136,-0.252619724\C,0.4725144781,2.03884
 7893,-1.6000725007\C,-1.1204046524,0.8793889339,-0.0433913908\C,0.7742
 037485,2.3110317375,0.8608748311\C,0.5717033335,1.7654070873,2.2528165
 292\O,1.2993090063,0.9793333265,2.8127755339\O,-0.5889451589,2.2617925
 09,2.787968961\C,-1.0958925506,1.8791734873,4.0157532969\C,-0.63122365

 Normal termination of Gaussian 16 at Thu Dec 10 11:10:02 2020.

 ----------------------------------------------------------------------
 # B3LYP/6-311++G(d,p) empiricaldispersion=gd3bj scf=xqc pop=npa geom=c
 heck
 ----------------------------------------------------------------------

 ---------------------------------------
 CID_150187279_JID_4901_Energie_neutraal
 ---------------------------------------
 Structure from the checkpoint file:  "JID_4901.chk"
 Charge =  0 Multiplicity = 1

 SCF Done:  E(RB3LYP) =  -728.982587306     A.U. after   15 cycles
 Normal termination of Gaussian 16 at Thu Dec 10 11:13:35 2020.

 ----------------------------------------------------------------------
 # B3LYP/6-311++G(d,p) empiricaldispersion=gd3bj scf=xqc pop=npa geom=c
 heck
 ----------------------------------------------------------------------

 -------------------------------------
 CID_150187279_JID_4901_Energie_kation
 -------------------------------------
 Structure from the checkpoint file:  "JID_4901.chk"
 Charge =  1 Multiplicity = 2

 SCF Done:  E(UB3LYP) =  -728.640616746     A.U. after   33 cycles
 SCF Done:  E(UB3LYP) =  -728.640616746     a.u. after    2 cycles
 Normal termination of Gaussian 16 at Thu Dec 10 11:32:33 2020.
 Gaussian 16:  ES64L-G16RevA.03 25-Dec-2016

 ------------------------------------
 CID_150187279_JID_4901_Energie_anion
 ------------------------------------
 Structure from the checkpoint file:  "JID_4901.chk"
 Charge = -1 Multiplicity = 2

                         Standard orientation:
 ---------------------------------------------------------------------
 Center     Atomic      Atomic             Coordinates (Angstroms)
 Number     Number       Type             X           Y           Z
 ---------------------------------------------------------------------
      1          6           0       -3.388603   -1.241478    0.987320
      2          6           0       -3.263015    0.094056    0.236913
      3          6           0       -4.657562    0.567390   -0.204751
      4          6           0       -2.629994    1.152358    1.156048
      5          6           0       -2.404183   -0.086301   -1.051116
      6          6           0       -0.964779   -0.427675   -0.754812
      7          8           0       -0.550722   -1.519752   -0.443685
      8          8           0       -0.185751    0.696499   -0.850929
      9          6           0        1.162981    0.726552   -0.549489
     10          6           0        1.949206   -0.247203   -0.088252
     11          6           0        3.414278   -0.020738    0.197533
     12          8           0        3.733846   -0.329560    1.528148
     13          8           0        4.224330   -0.908203   -0.525330
     14          8           0        3.740405    1.317413   -0.100807
     15          1           0       -3.998405   -1.112476    1.889034
     16          1           0       -2.410894   -1.629669    1.285458
     17          1           0       -3.870524   -2.000232    0.359751
     18          1           0       -5.316334    0.682773    0.663603
     19          1           0       -4.605082    1.534406   -0.718881
     20          1           0       -5.123506   -0.154577   -0.885751
     21          1           0       -1.658805    0.823086    1.541865
     22          1           0       -2.477055    2.100065    0.627443
     23          1           0       -3.280553    1.344473    2.016697
     24          1           0       -2.821812   -0.905899   -1.644904
     25          1           0       -2.441736    0.831848   -1.643969
     26          1           0        1.540008    1.723283   -0.740642
     27          1           0        1.594838   -1.248224    0.105304
     28          1           0        3.175252    0.243631    2.076360
     29          1           0        3.997504   -0.777913   -1.459527
     30          1           0        4.690269    1.392496    0.092601
 ---------------------------------------------------------------------

 SCF Done:  E(UB3LYP) =  -728.973071049     A.U. after   33 cycles
 SCF Done:  E(UB3LYP) =  -728.973071049     a.u. after    1 cycles

 The electronic state is 2-A.
 Alpha  occ. eigenvalues --  -19.08380 -19.04440 -19.04264 -19.03849 -19.01328
 Alpha  occ. eigenvalues --  -10.23718 -10.20030 -10.13681 -10.09617 -10.08017
 Alpha  occ. eigenvalues --  -10.07109 -10.06260 -10.05975 -10.05847  -1.01732
 Alpha  occ. eigenvalues --   -1.01508  -0.93242  -0.92031  -0.91589  -0.73647
 Alpha  occ. eigenvalues --   -0.69498  -0.63741  -0.59210  -0.58983  -0.58058
 Alpha  occ. eigenvalues --   -0.54242  -0.48872  -0.45935  -0.44105  -0.41228
 Alpha  occ. eigenvalues --   -0.40453  -0.39504  -0.38534  -0.36795  -0.35484
 Alpha  occ. eigenvalues --   -0.34153  -0.33898  -0.32884  -0.32738  -0.31258
 Alpha  occ. eigenvalues --   -0.30003  -0.29400  -0.28073  -0.27731  -0.26964
 Alpha  occ. eigenvalues --   -0.26044  -0.25522  -0.25174  -0.23742  -0.23198
 Alpha  occ. eigenvalues --   -0.22902  -0.21100  -0.20313  -0.17597  -0.15692
 Alpha  occ. eigenvalues --    0.04199
 Alpha virt. eigenvalues --    0.05941   0.06626   0.07794   0.08319   0.08560
 Alpha virt. eigenvalues --    0.08780   0.09328   0.10301   0.10593   0.10734
 Alpha virt. eigenvalues --    0.11915   0.11962   0.12718   0.13586   0.14123

  Beta  occ. eigenvalues --  -19.08397 -19.04423 -19.04236 -19.03805 -19.01238
  Beta  occ. eigenvalues --  -10.23717 -10.19928 -10.13637 -10.09611 -10.08008
  Beta  occ. eigenvalues --  -10.07071 -10.06223 -10.05942 -10.05829  -1.01679
  Beta  occ. eigenvalues --   -1.01442  -0.93121  -0.91974  -0.91506  -0.73602
  Beta  occ. eigenvalues --   -0.69403  -0.63637  -0.59139  -0.58935  -0.57985
  Beta  occ. eigenvalues --   -0.54169  -0.48815  -0.45834  -0.44032  -0.41153
  Beta  occ. eigenvalues --   -0.40401  -0.39396  -0.38335  -0.36736  -0.35437
  Beta  occ. eigenvalues --   -0.34105  -0.33825  -0.32833  -0.32685  -0.31216
  Beta  occ. eigenvalues --   -0.29957  -0.29361  -0.28017  -0.27656  -0.26924
  Beta  occ. eigenvalues --   -0.25840  -0.25475  -0.25094  -0.23682  -0.23159
  Beta  occ. eigenvalues --   -0.22771  -0.21052  -0.20258  -0.17523  -0.15507
  Beta virt. eigenvalues --    0.06356   0.06794   0.07427   0.08473   0.08795
  Beta virt. eigenvalues --    0.09051   0.09394   0.09673   0.10581   0.10941
  Beta virt. eigenvalues --    0.10994   0.12120   0.12207   0.12839   0.13677

 Mulliken charges and spin densities:
               1          2
     1  C    0.119371  -0.747159
     2  C   -1.613191   2.415974
     3  C    0.501102  -1.050351
     4  C    0.654843  -1.288292
     5  C    0.691283  -1.729892
     6  C   -0.157007   0.322304
     7  O   -0.229411   0.038984
     8  O   -0.008968   0.023472
     9  C   -0.170371  -0.043783
    10  C   -0.616241   0.417543
    11  C    1.294827  -1.220126
    12  O   -0.202150  -0.008900
    13  O   -0.238685   0.015480
    14  O   -0.263535   0.041411
    15  H   -0.012229   0.142285
    16  H    0.156970   0.020438
    17  H   -0.063543   0.200077
    18  H   -0.095809   0.228065
    19  H   -0.195147   0.335835
    20  H   -0.286384   0.425788
    21  H    0.006498   0.162529
    22  H   -0.093207   0.248584
    23  H   -0.097434   0.245349
    24  H   -0.071561   0.271082
    25  H   -0.048871   0.255029
    26  H   -0.109343   0.335984
    27  H    0.156894   0.125000
    28  H   -0.041019   0.319702
    29  H    0.133274   0.130411
    30  H   -0.100956   0.367178
 Sum of Mulliken charges =  -1.00000   1.00000

 Dipole moment (field-independent basis, Debye):
    X=              0.7338    Y=             -0.2540    Z=             -0.8434  Tot=              1.1464
 Quadrupole moment (field-independent basis, Debye-Ang):
   XX=           -176.4848   YY=           -119.1319   ZZ=           -112.8541
   XY=              2.8533   XZ=             -9.7262   YZ=              0.7883

 Summary of Natural Population Analysis:

                                       Natural Population
                Natural  -----------------------------------------------
    Atom  No    Charge         Core      Valence    Rydberg      Total
 -----------------------------------------------------------------------
      C    1   -0.28606      0.99962     2.28027    0.00617     3.28606
      C    2   -0.04233      0.99960     2.03136    0.01138     3.04233
      C    3   -0.28273      0.99962     2.27563    0.00748     3.28273
      C    4   -0.28727      0.99962     2.28010    0.00755     3.28727
      C    5   -0.23529      0.99954     2.22521    0.01054     3.23529
      C    6    0.42442      0.99967     1.55096    0.02495     2.57558
      O    7   -0.29211      0.99987     3.28648    0.00576     4.29211
      O    8   -0.27770      0.99985     3.26804    0.00982     4.27770
      C    9    0.09448      0.99939     1.89405    0.01209     2.90552
      C   10   -0.16831      0.99947     2.15876    0.01008     3.16831
      C   11    0.39483      0.99968     1.57956    0.02593     2.60517
      O   12   -0.36427      0.99988     3.35767    0.00672     4.36427
      O   13   -0.36398      0.99988     3.35779    0.00631     4.36398
      O   14   -0.37894      0.99988     3.37227    0.00679     4.37894
      H   15    0.09691      0.00000     0.40222    0.00087     0.40309
      H   16    0.10830      0.00000     0.39057    0.00113     0.39170
      H   17    0.09965      0.00000     0.39942    0.00093     0.40035
      H   18    0.09894      0.00000     0.40011    0.00095     0.40106
      H   19    0.10072      0.00000     0.39807    0.00121     0.39928
      H   20    0.10071      0.00000     0.39799    0.00131     0.39929
      H   21    0.10256      0.00000     0.39630    0.00114     0.39744
      H   22    0.10256      0.00000     0.39633    0.00112     0.39744
      H   23    0.09931      0.00000     0.39977    0.00091     0.40069
      H   24    0.11284      0.00000     0.38586    0.00130     0.38716
      H   25    0.11139      0.00000     0.38676    0.00185     0.38861
      H   26    0.09994      0.00000     0.39833    0.00172     0.40006
      H   27    0.12348      0.00000     0.37531    0.00121     0.37652
      H   28    0.23759      0.00000     0.25809    0.00433     0.26241
      H   29    0.23440      0.00000     0.26276    0.00284     0.26560
      H   30    0.23598      0.00000     0.25907    0.00495     0.26402
 =======================================================================
   * Total *    0.00000     13.99555    40.82511    0.17934    55.00000

 Normal termination of Gaussian 16 at Thu Dec 10 11:43:26 2020.
