 Gaussian 16, Revision A.03,

 -----------------------------------------------------------
 # opt freq B3LYP/6-31G(d) empiricaldispersion=gd3bj scf=xqc
 -----------------------------------------------------------

 -------------------------------
 CID_110471309_JID_9954_neutraal
 -------------------------------
 Symbolic Z-matrix:
 Charge =  0 Multiplicity = 1

 SCF Done:  E(RB3LYP) =  -834.978274119     A.U. after   16 cycles
 SCF Done:  E(RB3LYP) =  -834.992068093     A.U. after   13 cycles
 SCF Done:  E(RB3LYP) =  -834.993283819     A.U. after   12 cycles
 SCF Done:  E(RB3LYP) =  -834.993460319     A.U. after   12 cycles
 SCF Done:  E(RB3LYP) =  -834.993789364     A.U. after   12 cycles
 SCF Done:  E(RB3LYP) =  -834.993998440     A.U. after   12 cycles
 SCF Done:  E(RB3LYP) =  -834.994260981     A.U. after   13 cycles
 SCF Done:  E(RB3LYP) =  -834.994396674     A.U. after   12 cycles
 SCF Done:  E(RB3LYP) =  -834.994499045     A.U. after   13 cycles
 SCF Done:  E(RB3LYP) =  -834.994611081     A.U. after   13 cycles
 SCF Done:  E(RB3LYP) =  -834.997151265     A.U. after   12 cycles
 SCF Done:  E(RB3LYP) =  -834.997177700     A.U. after   11 cycles
 SCF Done:  E(RB3LYP) =  -834.997182122     A.U. after   10 cycles
 SCF Done:  E(RB3LYP) =  -834.997182973     A.U. after    8 cycles
 SCF Done:  E(RB3LYP) =  -834.997183128     A.U. after    7 cycles
 SCF Done:  E(RB3LYP) =  -834.997183152     A.U. after    7 cycles
 Optimization completed.
    -- Stationary point found.
 Normal termination of Gaussian 16 at Sat Dec 12 10:31:38 2020.

 --------------------------------------------------------------------
 #N Geom=AllCheck Guess=TCheck SCRF=Check GenChk RB3LYP/6-31G(d) Freq
 --------------------------------------------------------------------

 Structure from the checkpoint file:  "JID_9954.chk"
 -------------------------------
 CID_110471309_JID_9954_neutraal
 -------------------------------
 Charge =  0 Multiplicity = 1

 SCF Done:  E(RB3LYP) =  -834.997183152     A.U. after    1 cycles

  Exact polarizability: 216.714 -19.344 159.948 -20.939 -20.333 117.512
 Approx polarizability: 313.867 -41.677 298.901 -40.949 -46.492 215.445

                      1                      2                      3
                      A                      A                      A
 Frequencies --     15.0535                29.6677                53.8764
 Red. masses --      6.2527                 6.3664                 4.3112
 Frc consts  --      0.0008                 0.0033                 0.0074
 IR Inten    --      0.0144                 0.3198                 0.2479

                      4                      5                      6
                      A                      A                      A
 Frequencies --     60.8864                92.2593               124.4765
 Red. masses --      7.3128                 5.5797                 5.5651
 Frc consts  --      0.0160                 0.0280                 0.0508
 IR Inten    --      1.1224                 1.2311                 0.9913

                      7                      8                      9
                      A                      A                      A
 Frequencies --    170.3475               195.0647               227.3987
 Red. masses --      5.7920                 4.7692                 4.6289
 Frc consts  --      0.0990                 0.1069                 0.1410
 IR Inten    --      3.3008                 1.2057                 2.7387

                     10                     11                     12
                      A                      A                      A
 Frequencies --    252.4743               298.0164               358.2614
 Red. masses --      5.0128                 3.0124                 5.4961
 Frc consts  --      0.1883                 0.1576                 0.4156
 IR Inten    --      2.6451                 0.8965                 3.4726

                     13                     14                     15
                      A                      A                      A
 Frequencies --    388.7348               402.4203               442.9121
 Red. masses --      2.6730                 5.5202                 2.9253
 Frc consts  --      0.2380                 0.5267                 0.3381
 IR Inten    --      0.4620                 2.0277                 5.0131

                     16                     17                     18
                      A                      A                      A
 Frequencies --    451.5523               473.8126               551.2200
 Red. masses --      5.5012                 3.6952                 5.7021
 Frc consts  --      0.6609                 0.4888                 1.0208
 IR Inten    --      6.6038                 8.6648                 0.9581

                     19                     20                     21
                      A                      A                      A
 Frequencies --    568.1143               580.3347               594.7300
 Red. masses --      3.1245                 4.3862                 4.8327
 Frc consts  --      0.5942                 0.8704                 1.0071
 IR Inten    --     24.1323                 4.6724                13.0200

                     22                     23                     24
                      A                      A                      A
 Frequencies --    600.1031               650.1480               680.5177
 Red. masses --      4.7499                 2.1502                 2.1205
 Frc consts  --      1.0078                 0.5355                 0.5786
 IR Inten    --     52.2779                29.7328                23.4231

                     25                     26                     27
                      A                      A                      A
 Frequencies --    684.6760               701.2980               747.1180
 Red. masses --      4.5316                 1.9637                 3.2651
 Frc consts  --      1.2516                 0.5690                 1.0738
 IR Inten    --     14.4023                31.5105                 1.7836

                     28                     29                     30
                      A                      A                      A
 Frequencies --    753.1639               764.9351               772.6251
 Red. masses --      4.3064                 1.8489                 2.7501
 Frc consts  --      1.4393                 0.6374                 0.9672
 IR Inten    --      2.8190                59.0090                30.7206

                     31                     32                     33
                      A                      A                      A
 Frequencies --    786.0271               790.4954               798.4831
 Red. masses --      4.1302                 3.3172                 3.2812
 Frc consts  --      1.5035                 1.2213                 1.2326
 IR Inten    --     20.3711                18.0225                56.3091

                     34                     35                     36
                      A                      A                      A
 Frequencies --    858.2840               865.0326               905.1431
 Red. masses --      1.7221                 1.6934                 1.2588
 Frc consts  --      0.7474                 0.7466                 0.6076
 IR Inten    --     24.3948                 1.1184                 0.1273

                     37                     38                     39
                      A                      A                      A
 Frequencies --    910.6656               945.1150               947.1087
 Red. masses --      4.2000                 2.4130                 1.3330
 Frc consts  --      2.0522                 1.2699                 0.7045
 IR Inten    --      1.9529                10.4985                 0.7116

                     40                     41                     42
                      A                      A                      A
 Frequencies --    986.9876               987.6220               999.5839
 Red. masses --      1.2585                 1.3043                 1.4595
 Frc consts  --      0.7223                 0.7496                 0.8592
 IR Inten    --      0.1162                 2.0889                 0.2184

                     43                     44                     45
                      A                      A                      A
 Frequencies --   1013.7693              1024.0592              1076.0976
 Red. masses --      7.0148                 2.1469                 3.2438
 Frc consts  --      4.2476                 1.3265                 2.2131
 IR Inten    --      3.6594                 3.4208                10.3825

                     46                     47                     48
                      A                      A                      A
 Frequencies --   1099.2574              1101.6756              1117.6259
 Red. masses --      3.5878                 2.2896                 1.5529
 Frc consts  --      2.5543                 1.6372                 1.1428
 IR Inten    --     11.4498                 0.9747                 1.4733

                     49                     50                     51
                      A                      A                      A
 Frequencies --   1163.5128              1170.2016              1188.9310
 Red. masses --      1.7692                 2.1236                 1.6634
 Frc consts  --      1.4112                 1.7133                 1.3853
 IR Inten    --     23.5535                39.4769                 9.9423

                     52                     53                     54
                      A                      A                      A
 Frequencies --   1197.1561              1247.5990              1255.4680
 Red. masses --      2.2309                 1.5601                 1.3608
 Frc consts  --      1.8838                 1.4307                 1.2637
 IR Inten    --     27.5672                60.9829                17.8965

                     55                     56                     57
                      A                      A                      A
 Frequencies --   1285.7751              1300.0133              1332.3625
 Red. masses --      2.0344                 9.3719                 2.0158
 Frc consts  --      1.9816                 9.3320                 2.1083
 IR Inten    --      1.7454                 0.5035                34.6746

                     58                     59                     60
                      A                      A                      A
 Frequencies --   1364.5857              1368.9061              1387.0778
 Red. masses --      1.3824                 1.8677                 2.2527
 Frc consts  --      1.5167                 2.0621                 2.5537
 IR Inten    --      2.3980               149.5834                28.6657

                     61                     62                     63
                      A                      A                      A
 Frequencies --   1410.3657              1428.1368              1435.6310
 Red. masses --      2.0770                 2.9249                 3.2621
 Frc consts  --      2.4342                 3.5148                 3.9612
 IR Inten    --     78.6753                37.8008                 3.1743

                     64                     65                     66
                      A                      A                      A
 Frequencies --   1454.3965              1478.9978              1498.7200
 Red. masses --      1.9039                 1.3641                 2.5281
 Frc consts  --      2.3728                 1.7581                 3.3457
 IR Inten    --     23.4434                26.5883                 0.9853

                     67                     68                     69
                      A                      A                      A
 Frequencies --   1509.5165              1539.8143              1542.5508
 Red. masses --      1.2084                 2.1798                 2.7712
 Frc consts  --      1.6223                 3.0451                 3.8850
 IR Inten    --     35.4613                 5.3813                 3.4066

                     70                     71                     72
                      A                      A                      A
 Frequencies --   1579.6385              1606.5636              1612.0250
 Red. masses --      3.9992                 5.2429                 7.4815
 Frc consts  --      5.8795                 7.9729                11.4547
 IR Inten    --      4.8703                 0.1055                21.3529

                     73                     74                     75
                      A                      A                      A
 Frequencies --   1651.6746              1691.4271              1783.6051
 Red. masses --      5.3381                 6.5973                 9.0036
 Frc consts  --      8.5800                11.1204                16.8758
 IR Inten    --     11.9962                 6.6586               303.3424

                     76                     77                     78
                      A                      A                      A
 Frequencies --   3100.3375              3146.8653              3179.4550
 Red. masses --      1.0621                 1.1034                 1.0887
 Frc consts  --      6.0149                 6.4378                 6.4841
 IR Inten    --     18.2022                10.6966                24.0550

                     79                     80                     81
                      A                      A                      A
 Frequencies --   3180.4137              3185.4178              3192.6237
 Red. masses --      1.0865                 1.0908                 1.0890
 Frc consts  --      6.4751                 6.5213                 6.5401
 IR Inten    --      3.2319                16.1607                13.5925

                     82                     83                     84
                      A                      A                      A
 Frequencies --   3207.1376              3212.0312              3220.1245
 Red. masses --      1.0937                 1.0938                 1.0956
 Frc consts  --      6.6281                 6.6487                 6.6936
 IR Inten    --     25.8499                 6.3082                17.2638

                     85                     86                     87
                      A                      A                      A
 Frequencies --   3226.3533              3560.3427              3621.4137
 Red. masses --      1.0936                 1.0753                 1.0815
 Frc consts  --      6.7068                 8.0309                 8.3567
 IR Inten    --      1.8351                19.6282               157.5868

 - Thermochemistry -
 -------------------
 Temperature   298.150 Kelvin.  Pressure   1.00000 Atm.
 Atom     1 has atomic number  6 and mass  12.00000

 Molecular mass:   252.10111 amu.
 Principal axes and moments of inertia in atomic units:
                           1         2         3
     Eigenvalues --  2145.017698229.552699107.35742
           X            0.99998  -0.00544  -0.00413
           Y            0.00520   0.99831  -0.05795
           Z            0.00444   0.05792   0.99831
 This molecule is an asymmetric top.
 Rotational symmetry number  1.
 Warning -- assumption of classical behavior for rotation
           may cause significant error
 Rotational temperatures (Kelvin)      0.04038     0.01052     0.00951
 Rotational constants (GHZ):           0.84136     0.21930     0.19816
 Zero-point vibrational energy     642492.8 (Joules/Mol)
                                  153.55945 (Kcal/Mol)
 Warning -- explicit consideration of  22 degrees of freedom as
           vibrations may cause significant error
 Vibrational temperatures:     21.66    42.69    77.52    87.60   132.74
          (Kelvin)            179.09   245.09   280.65   327.18   363.25
                              428.78   515.46   559.30   578.99   637.25
                              649.68   681.71   793.08   817.39   834.97
                              855.68   863.41   935.42   979.11   985.10
                             1009.01  1074.94  1083.63  1100.57  1111.64
                             1130.92  1137.35  1148.84  1234.88  1244.59
                             1302.30  1310.24  1359.81  1362.68  1420.06
                             1420.97  1438.18  1458.59  1473.39  1548.26
                             1581.59  1585.07  1608.01  1674.04  1683.66
                             1710.61  1722.44  1795.02  1806.34  1849.94
                             1870.43  1916.97  1963.33  1969.55  1995.70
                             2029.20  2054.77  2065.55  2092.55  2127.95
                             2156.32  2171.86  2215.45  2219.39  2272.75
                             2311.49  2319.34  2376.39  2433.59  2566.21
                             4460.69  4527.64  4574.53  4575.91  4583.11
                             4593.47  4614.36  4621.40  4633.04  4642.00
                             5122.54  5210.41

 Zero-point correction=                           0.244713 (Hartree/Particle)
 Thermal correction to Energy=                    0.259550
 Thermal correction to Enthalpy=                  0.260494
 Thermal correction to Gibbs Free Energy=         0.200031
 Sum of electronic and zero-point Energies=           -834.752471
 Sum of electronic and thermal Energies=              -834.737633
 Sum of electronic and thermal Enthalpies=            -834.736689
 Sum of electronic and thermal Free Energies=         -834.797152

                     E (Thermal)             CV                S
                      KCal/Mol        Cal/Mol-Kelvin    Cal/Mol-Kelvin
 Total                  162.870             58.002            127.255
 Electronic               0.000              0.000              0.000
 Translational            0.889              2.981             42.474
 Rotational               0.889              2.981             33.441
 Vibrational            161.092             52.040             51.340
 Vibration     1          0.593              1.986              7.198
 Vibration     2          0.593              1.984              5.852
 Vibration     3          0.596              1.976              4.670
 Vibration     4          0.597              1.973              4.428
 Vibration     5          0.602              1.955              3.612
 Vibration     6          0.610              1.929              3.030
 Vibration     7          0.625              1.879              2.432
 Vibration     8          0.636              1.847              2.179
 Vibration     9          0.651              1.799              1.899
 Vibration    10          0.664              1.759              1.713
 Vibration    11          0.691              1.677              1.428
 Vibration    12          0.733              1.558              1.130
 Vibration    13          0.757              1.494              1.005
 Vibration    14          0.768              1.465              0.954
 Vibration    15          0.803              1.377              0.818
 Vibration    16          0.810              1.357              0.791
 Vibration    17          0.831              1.308              0.727
 Vibration    18          0.907              1.137              0.542
 Vibration    19          0.924              1.100              0.508
 Vibration    20          0.937              1.074              0.485
 Vibration    21          0.952              1.043              0.459
 Vibration    22          0.958              1.032              0.449

                           ! Non-Optimized Parameters !
 Normal termination of Gaussian 16 at Sat Dec 12 10:46:04 2020.

 ----------------------------------------------------------------------
 # B3LYP/6-311++G(d,p) empiricaldispersion=gd3bj scf=xqc pop=npa geom=c
 heck
 ----------------------------------------------------------------------

 ---------------------------------------
 CID_110471309_JID_9954_Energie_neutraal
 ---------------------------------------
 Structure from the checkpoint file:  "JID_9954.chk"
 Charge =  0 Multiplicity = 1

 SCF Done:  E(RB3LYP) =  -835.220104024     A.U. after   17 cycles
 Normal termination of Gaussian 16 at Sat Dec 12 10:51:38 2020.

 ----------------------------------------------------------------------
 # B3LYP/6-311++G(d,p) empiricaldispersion=gd3bj scf=xqc pop=npa geom=c
 heck
 ----------------------------------------------------------------------

 -------------------------------------
 CID_110471309_JID_9954_Energie_kation
 -------------------------------------
 Structure from the checkpoint file:  "JID_9954.chk"
 Charge =  1 Multiplicity = 2

 SCF Done:  E(UB3LYP) =  -834.930997047     A.U. after   26 cycles
 Normal termination of Gaussian 16 at Sat Dec 12 11:03:18 2020.
 Gaussian 16:  ES64L-G16RevA.03 25-Dec-2016

 ----------------------------------------------------------------------
 # B3LYP/6-311++G(d,p) empiricaldispersion=gd3bj scf=xqc pop=npa geom=c
 heck
 ----------------------------------------------------------------------

 ------------------------------------
 CID_110471309_JID_9954_Energie_anion
 ------------------------------------
 Structure from the checkpoint file:  "JID_9954.chk"
 Charge = -1 Multiplicity = 2

                         Standard orientation:
 ---------------------------------------------------------------------
 Center     Atomic      Atomic             Coordinates (Angstroms)
 Number     Number       Type             X           Y           Z
 ---------------------------------------------------------------------
      1          6           0       -4.612594    0.711433   -0.187241
      2          6           0       -3.346058    1.111502   -0.544048
      3          6           0       -2.287049    0.181509   -0.396739
      4          6           0       -0.907873    0.200733   -0.643801
      5          7           0       -0.470589   -1.034447   -0.280446
      6          7           0       -1.415016   -1.874426    0.180324
      7          6           0       -2.545514   -1.138656    0.112734
      8          6           0       -3.861383   -1.525158    0.471535
      9          6           0       -4.866692   -0.600042    0.317993
     10          6           0        0.004799    1.288099   -1.114828
     11          7           0        0.643923    2.057142   -0.030855
     12          6           0        1.568737    1.532720    0.846288
     13          8           0        1.682842    1.938498    1.993642
     14          6           0        2.475308    0.453513    0.320091
     15          6           0        3.162925    0.560862   -0.891960
     16          6           0        4.012871   -0.478927   -1.271597
     17          7           0        4.196364   -1.590776   -0.550146
     18          6           0        3.539360   -1.678777    0.614644
     19          6           0        2.686616   -0.687476    1.099895
     20          1           0       -5.444135    1.402778   -0.288298
     21          1           0       -3.164206    2.112226   -0.927500
     22          1           0        0.487832   -1.359065   -0.302451
     23          1           0       -4.050581   -2.522712    0.854316
     24          1           0       -5.885465   -0.865768    0.585222
     25          1           0        0.784276    0.881146   -1.761312
     26          1           0       -0.564408    1.999810   -1.718181
     27          1           0        0.025628    2.703844    0.449794
     28          1           0        3.055896    1.442106   -1.516716
     29          1           0        4.569904   -0.416534   -2.204397
     30          1           0        3.706829   -2.586644    1.190347
     31          1           0        2.192202   -0.789629    2.060111
 ---------------------------------------------------------------------

 SCF Done:  E(UB3LYP) =  -835.243947206     A.U. after   27 cycles

 The electronic state is 2-A.
 Alpha  occ. eigenvalues --  -18.96224 -14.27497 -14.21991 -14.21015 -14.16940
 Alpha  occ. eigenvalues --  -10.14041 -10.11734 -10.09690 -10.08321 -10.08227
 Alpha  occ. eigenvalues --  -10.07531 -10.06870 -10.06671 -10.06583 -10.06578
 Alpha  occ. eigenvalues --  -10.06259 -10.05528 -10.05445 -10.05321  -0.93530
 Alpha  occ. eigenvalues --   -0.91583  -0.81411  -0.80904  -0.74603  -0.71073
 Alpha  occ. eigenvalues --   -0.68500  -0.66318  -0.63644  -0.63606  -0.59875
 Alpha  occ. eigenvalues --   -0.54543  -0.53488  -0.50729  -0.49531  -0.46729
 Alpha  occ. eigenvalues --   -0.46021  -0.42236  -0.40400  -0.39634  -0.38495
 Alpha  occ. eigenvalues --   -0.37641  -0.35978  -0.35196  -0.33713  -0.33042
 Alpha  occ. eigenvalues --   -0.32814  -0.32327  -0.31442  -0.30656  -0.29306
 Alpha  occ. eigenvalues --   -0.28801  -0.27764  -0.26537  -0.26275  -0.24744
 Alpha  occ. eigenvalues --   -0.24622  -0.23764  -0.18380  -0.18019  -0.17087
 Alpha  occ. eigenvalues --   -0.15486  -0.14808  -0.14313  -0.13889  -0.12653
 Alpha  occ. eigenvalues --   -0.10425   0.02844
 Alpha virt. eigenvalues --    0.05681   0.07134   0.08059   0.08728   0.09659
 Alpha virt. eigenvalues --    0.09930   0.09984   0.10505   0.11180   0.11915
 Alpha virt. eigenvalues --    0.12159   0.12415   0.12970   0.13136   0.13928

  Beta  occ. eigenvalues --  -18.95997 -14.27347 -14.21985 -14.20889 -14.16544
  Beta  occ. eigenvalues --  -10.13907 -10.11727 -10.09593 -10.08355 -10.08268
  Beta  occ. eigenvalues --  -10.07469 -10.06761 -10.06648 -10.06613 -10.06560
  Beta  occ. eigenvalues --  -10.06149 -10.05362 -10.05311 -10.05228  -0.93296
  Beta  occ. eigenvalues --   -0.91192  -0.80965  -0.80689  -0.74468  -0.70851
  Beta  occ. eigenvalues --   -0.67949  -0.66169  -0.63428  -0.63380  -0.59741
  Beta  occ. eigenvalues --   -0.54327  -0.52935  -0.50578  -0.49471  -0.46581
  Beta  occ. eigenvalues --   -0.45819  -0.42101  -0.40238  -0.39490  -0.38403
  Beta  occ. eigenvalues --   -0.37447  -0.35756  -0.34975  -0.33534  -0.32805
  Beta  occ. eigenvalues --   -0.32588  -0.32145  -0.31308  -0.30576  -0.29183
  Beta  occ. eigenvalues --   -0.28121  -0.27243  -0.26248  -0.25679  -0.24570
  Beta  occ. eigenvalues --   -0.24164  -0.23557  -0.17932  -0.17767  -0.15767
  Beta  occ. eigenvalues --   -0.14956  -0.14103  -0.13872  -0.13357  -0.12183
  Beta  occ. eigenvalues --   -0.09683
  Beta virt. eigenvalues --    0.06698   0.07123   0.07958   0.08382   0.08738
  Beta virt. eigenvalues --    0.09648   0.09910   0.10173   0.10561   0.11146
  Beta virt. eigenvalues --    0.11874   0.12342   0.12507   0.13132   0.13642

 Mulliken charges and spin densities:
               1          2
     1  C   -0.346532   0.021347
     2  C   -1.182180   0.083854
     3  C    1.195629  -0.015360
     4  C    0.539221   0.047983
     5  N   -0.179777   0.044299
     6  N    0.069092   0.077137
     7  C    0.089159  -0.047472
     8  C   -0.571246   0.077939
     9  C   -0.386050   0.022990
    10  C   -0.663999  -0.024645
    11  N   -0.060151   0.003871
    12  C   -0.646192   0.056565
    13  O   -0.326913   0.073668
    14  C    0.348446   0.056924
    15  C    0.010467   0.224226
    16  C   -0.580409  -0.046163
    17  N   -0.135766   0.175723
    18  C   -0.523347   0.046085
    19  C    0.284665   0.095486
    20  H    0.134934  -0.001284
    21  H    0.085637  -0.006951
    22  H    0.381761   0.002293
    23  H    0.146566  -0.005182
    24  H    0.114774  -0.001738
    25  H    0.118665   0.058234
    26  H    0.159612  -0.005450
    27  H    0.283035  -0.001294
    28  H    0.170740  -0.010027
    29  H    0.131077   0.001576
    30  H    0.135065  -0.005773
    31  H    0.204016   0.001141
 Sum of Mulliken charges =  -1.00000   1.00000

 Dipole moment (field-independent basis, Debye):
    X=             -4.2757    Y=              2.2815    Z=             -3.1114  Tot=              5.7591
 Quadrupole moment (field-independent basis, Debye-Ang):
   XX=           -173.4508   YY=           -131.6264   ZZ=           -126.8376
   XY=             -0.2246   XZ=             -3.8612   YZ=            -11.9280

 Summary of Natural Population Analysis:

                                       Natural Population
                Natural  -----------------------------------------------
    Atom  No    Charge         Core      Valence    Rydberg      Total
 -----------------------------------------------------------------------
      C    1   -0.11559      0.99959     2.10644    0.00957     3.11559
      C    2   -0.07823      0.99954     2.07044    0.00824     3.07823
      C    3   -0.07330      0.99946     2.06619    0.00766     3.07330
      C    4    0.08482      0.99951     1.90467    0.01100     2.91518
      N    5   -0.12938      0.99965     2.61653    0.01320     3.62938
      N    6   -0.14352      0.99971     2.63160    0.01221     3.64352
      C    7    0.05569      0.99952     1.93183    0.01296     2.94431
      C    8   -0.08376      0.99953     2.07528    0.00895     3.08376
      C    9   -0.11081      0.99959     2.10170    0.00952     3.11081
      C   10   -0.10470      0.99958     2.09548    0.00964     3.10470
      N   11   -0.32604      0.99968     2.81491    0.01145     3.82604
      C   12    0.35616      0.99962     1.62233    0.02189     2.64384
      O   13   -0.29524      0.99988     3.28928    0.00608     4.29524
      C   14   -0.01481      0.99946     2.00135    0.01400     3.01481
      C   15   -0.11243      0.99952     2.10131    0.01160     3.11243
      C   16    0.01082      0.99960     1.97512    0.01447     2.98918
      N   17   -0.18892      0.99971     2.67667    0.01253     3.68892
      C   18    0.02580      0.99960     1.95983    0.01477     2.97420
      C   19   -0.11116      0.99952     2.10376    0.00788     3.11116
      H   20    0.09275      0.00000     0.40625    0.00100     0.40725
      H   21    0.09324      0.00000     0.40521    0.00155     0.40676
      H   22    0.20601      0.00000     0.29077    0.00322     0.29399
      H   23    0.09855      0.00000     0.39987    0.00158     0.40145
      H   24    0.09272      0.00000     0.40631    0.00096     0.40728
      H   25    0.11117      0.00000     0.38767    0.00116     0.38883
      H   26    0.10048      0.00000     0.39855    0.00097     0.39952
      H   27    0.18740      0.00000     0.31091    0.00169     0.31260
      H   28    0.09943      0.00000     0.39964    0.00093     0.40057
      H   29    0.08230      0.00000     0.41637    0.00133     0.41770
      H   30    0.08305      0.00000     0.41571    0.00124     0.41695
      H   31    0.10750      0.00000     0.39152    0.00098     0.39250
 =======================================================================
   * Total *   -0.00000     18.99227    46.77352    0.23421    66.00000

 Normal termination of Gaussian 16 at Sat Dec 12 11:15:03 2020.
