 Gaussian 16, Revision A.03,

 -----------------------------------------------------------
 # opt freq B3LYP/6-31G(d) empiricaldispersion=gd3bj scf=xqc
 -----------------------------------------------------------

 --------------------------------
 CID_107315356_JID_10369_neutraal
 --------------------------------
 Symbolic Z-matrix:
 Charge =  0 Multiplicity = 1

 SCF Done:  E(RB3LYP) =  -912.847642958     A.U. after   15 cycles
 SCF Done:  E(RB3LYP) =  -912.854943346     A.U. after   13 cycles
 SCF Done:  E(RB3LYP) =  -912.854414463     A.U. after   13 cycles
 SCF Done:  E(RB3LYP) =  -912.855771527     A.U. after   13 cycles
 SCF Done:  E(RB3LYP) =  -912.855970474     A.U. after   11 cycles
 SCF Done:  E(RB3LYP) =  -912.856353705     A.U. after   13 cycles
 SCF Done:  E(RB3LYP) =  -912.852368983     A.U. after   15 cycles
 SCF Done:  E(RB3LYP) =  -912.856603671     A.U. after   13 cycles
 SCF Done:  E(RB3LYP) =  -912.857359070     A.U. after   12 cycles
 SCF Done:  E(RB3LYP) =  -912.858156151     A.U. after   13 cycles
 SCF Done:  E(RB3LYP) =  -912.858247820     A.U. after   13 cycles
 SCF Done:  E(RB3LYP) =  -912.858347091     A.U. after   12 cycles
 SCF Done:  E(RB3LYP) =  -912.858365073     A.U. after   11 cycles
 SCF Done:  E(RB3LYP) =  -912.858367275     A.U. after    9 cycles
 SCF Done:  E(RB3LYP) =  -912.858367555     A.U. after    8 cycles
 SCF Done:  E(RB3LYP) =  -912.858367602     A.U. after    7 cycles
 Optimization completed.
    -- Stationary point found.
 Normal termination of Gaussian 16 at Mon Dec 14 18:55:12 2020.

 --------------------------------------------------------------------
 #N Geom=AllCheck Guess=TCheck SCRF=Check GenChk RB3LYP/6-31G(d) Freq
 --------------------------------------------------------------------

 Structure from the checkpoint file:  "JID_10369.chk"
 --------------------------------
 CID_107315356_JID_10369_neutraal
 --------------------------------
 Charge =  0 Multiplicity = 1

 SCF Done:  E(RB3LYP) =  -912.858367602     A.U. after    1 cycles

  Exact polarizability: 285.616 -26.927 120.258  22.885  14.758 131.364
 Approx polarizability: 416.277 -44.827 214.156  44.309  43.923 249.632

                      1                      2                      3
                      A                      A                      A
 Frequencies --     23.8317                31.2813                60.6679
 Red. masses --      6.8503                 6.0297                 8.0245
 Frc consts  --      0.0023                 0.0035                 0.0174
 IR Inten    --      0.0636                 1.6699                 1.8864

                      4                      5                      6
                      A                      A                      A
 Frequencies --     70.8933               108.8720               125.2776
 Red. masses --      6.6851                 5.4484                 6.0185
 Frc consts  --      0.0198                 0.0380                 0.0557
 IR Inten    --      0.1835                 2.1083                 1.8846

                      7                      8                      9
                      A                      A                      A
 Frequencies --    191.0231               193.4863               212.5352
 Red. masses --      4.3667                 5.8754                 5.7732
 Frc consts  --      0.0939                 0.1296                 0.1536
 IR Inten    --      0.4762                 1.0152                 0.5041

                     10                     11                     12
                      A                      A                      A
 Frequencies --    245.3911               296.0913               338.8083
 Red. masses --      6.2496                 5.6373                 7.0945
 Frc consts  --      0.2217                 0.2912                 0.4798
 IR Inten    --      1.5318                 2.4847                 1.6321

                     13                     14                     15
                      A                      A                      A
 Frequencies --    376.8403               393.7197               418.0782
 Red. masses --      6.1513                 6.6700                 3.7904
 Frc consts  --      0.5147                 0.6092                 0.3903
 IR Inten    --      4.7033                 0.2319                 1.4960

                     16                     17                     18
                      A                      A                      A
 Frequencies --    439.0678               482.4262               489.5617
 Red. masses --      4.5494                 4.0246                 3.5243
 Frc consts  --      0.5167                 0.5519                 0.4977
 IR Inten    --      7.9307                 1.6210                 1.9803

                     19                     20                     21
                      A                      A                      A
 Frequencies --    540.9016               544.6482               554.1283
 Red. masses --      4.8890                 4.5516                 7.2177
 Frc consts  --      0.8428                 0.7955                 1.3058
 IR Inten    --      0.9276                 0.0074                 5.0793

                     22                     23                     24
                      A                      A                      A
 Frequencies --    577.2625               610.7434               626.0290
 Red. masses --      3.9323                 1.5608                 4.3732
 Frc consts  --      0.7721                 0.3430                 1.0098
 IR Inten    --      4.0932                53.5032                10.3111

                     25                     26                     27
                      A                      A                      A
 Frequencies --    633.6703               638.4588               673.7229
 Red. masses --      5.0762                 5.8561                 4.1125
 Frc consts  --      1.2009                 1.4065                 1.0998
 IR Inten    --     39.5401                18.3279                 3.5826

                     28                     29                     30
                      A                      A                      A
 Frequencies --    731.0004               740.4702               764.7407
 Red. masses --      5.1050                 3.7294                 5.4156
 Frc consts  --      1.6072                 1.2048                 1.8660
 IR Inten    --      8.4316                86.5539                 0.2003

                     31                     32                     33
                      A                      A                      A
 Frequencies --    781.8346               788.2981               789.9235
 Red. masses --      2.3832                 3.0970                 1.7302
 Frc consts  --      0.8583                 1.1339                 0.6361
 IR Inten    --     12.2373                 1.2177                 0.8504

                     34                     35                     36
                      A                      A                      A
 Frequencies --    819.9941               835.8033               847.5752
 Red. masses --      3.4480                 1.9270                 1.8509
 Frc consts  --      1.3660                 0.7931                 0.7834
 IR Inten    --      9.9233                28.8574                29.3220

                     37                     38                     39
                      A                      A                      A
 Frequencies --    871.3902               898.5185               943.8646
 Red. masses --      5.6365                 1.5438                 4.8326
 Frc consts  --      2.5217                 0.7344                 2.5366
 IR Inten    --      4.4383                22.7832                 7.0741

                     40                     41                     42
                      A                      A                      A
 Frequencies --    953.3287               956.0093               970.4669
 Red. masses --      1.3812                 1.2776                 1.3937
 Frc consts  --      0.7396                 0.6880                 0.7734
 IR Inten    --      0.3937                 0.4180                 0.1920

                     43                     44                     45
                      A                      A                      A
 Frequencies --    986.1449               991.6577               992.1788
 Red. masses --      3.4777                 1.3400                 1.3492
 Frc consts  --      1.9926                 0.7764                 0.7825
 IR Inten    --     38.7841                 1.2542                 1.6430

                     46                     47                     48
                      A                      A                      A
 Frequencies --   1062.1342              1085.0136              1125.0010
 Red. masses --      2.4337                 2.5168                 2.6847
 Frc consts  --      1.6176                 1.7457                 2.0020
 IR Inten    --      4.6167                 3.6791                26.3385

                     49                     50                     51
                      A                      A                      A
 Frequencies --   1146.1517              1148.7843              1179.6426
 Red. masses --      2.3206                 1.5948                 1.2528
 Frc consts  --      1.7962                 1.2400                 1.0272
 IR Inten    --     47.4048                51.8698                42.1114

                     52                     53                     54
                      A                      A                      A
 Frequencies --   1187.4111              1203.9894              1250.7110
 Red. masses --      1.5558                 1.8365                 3.2623
 Frc consts  --      1.2924                 1.5685                 3.0067
 IR Inten    --     24.2763               140.6052                 2.5860

                     55                     56                     57
                      A                      A                      A
 Frequencies --   1272.8691              1275.4713              1288.8415
 Red. masses --      1.8400                 2.0880                 1.8544
 Frc consts  --      1.7564                 2.0014                 1.8149
 IR Inten    --      0.4823               102.9726                12.7685

                     58                     59                     60
                      A                      A                      A
 Frequencies --   1301.8062              1325.8060              1378.9827
 Red. masses --      3.5925                 3.7941                 3.4960
 Frc consts  --      3.5871                 3.9293                 3.9168
 IR Inten    --    218.2776               201.1279                57.7287

                     61                     62                     63
                      A                      A                      A
 Frequencies --   1393.6381              1397.5730              1431.3012
 Red. masses --      2.6734                 3.1960                 2.6188
 Frc consts  --      3.0593                 3.6779                 3.1609
 IR Inten    --     61.1089                49.3923                 0.2288

                     64                     65                     66
                      A                      A                      A
 Frequencies --   1478.0719              1489.7894              1501.0168
 Red. masses --      3.1673                 2.3689                 2.5897
 Frc consts  --      4.0769                 3.0978                 3.4378
 IR Inten    --    151.2291                12.2252                83.7222

                     67                     68                     69
                      A                      A                      A
 Frequencies --   1506.8386              1555.6788              1616.3435
 Red. masses --      3.1802                 3.4890                 6.3209
 Frc consts  --      4.2543                 4.9749                 9.7296
 IR Inten    --      4.5096               105.8747                14.9044

                     70                     71                     72
                      A                      A                      A
 Frequencies --   1621.2763              1643.9340              1660.0023
 Red. masses --      7.1383                 6.5297                 5.6101
 Frc consts  --     11.0549                10.3970                 9.1083
 IR Inten    --     12.3766                76.0508                 9.7995

                     73                     74                     75
                      A                      A                      A
 Frequencies --   1686.1538              1850.1982              3162.4224
 Red. masses --      6.7823                10.5346                 1.0893
 Frc consts  --     11.3612                21.2473                 6.4188
 IR Inten    --    133.3064               235.5478                36.9974

                     76                     77                     78
                      A                      A                      A
 Frequencies --   3186.8107              3187.5596              3193.0300
 Red. masses --      1.0893                 1.0891                 1.0893
 Frc consts  --      6.5179                 6.5199                 6.5433
 IR Inten    --      5.5663                15.0290                11.2662

                     79                     80                     81
                      A                      A                      A
 Frequencies --   3212.0214              3216.0961              3226.8665
 Red. masses --      1.0911                 1.0959                 1.0929
 Frc consts  --      6.6325                 6.6783                 6.7051
 IR Inten    --     19.3922                23.3325                 4.9993

                     82                     83                     84
                      A                      A                      A
 Frequencies --   3227.1603              3241.5636              3684.7344
 Red. masses --      1.0964                 1.0921                 1.0639
 Frc consts  --      6.7277                 6.7611                 8.5108
 IR Inten    --      6.0408                 1.6278                49.3180

 - Thermochemistry -
 -------------------
 Temperature   298.150 Kelvin.  Pressure   1.00000 Atm.
 Atom     1 has atomic number  6 and mass  12.00000

 Molecular mass:   266.06914 amu.
 Principal axes and moments of inertia in atomic units:
                           1         2         3
     Eigenvalues --  2012.276549158.103369541.31250
           X            0.99995  -0.00982   0.00026
           Y            0.00982   0.99995  -0.00123
           Z           -0.00025   0.00123   1.00000
 This molecule is an asymmetric top.
 Rotational symmetry number  1.
 Warning -- assumption of classical behavior for rotation
           may cause significant error
 Rotational temperatures (Kelvin)      0.04304     0.00946     0.00908
 Rotational constants (GHZ):           0.89687     0.19706     0.18915
 Zero-point vibrational energy     587147.0 (Joules/Mol)
                                  140.33150 (Kcal/Mol)
 Warning -- explicit consideration of  23 degrees of freedom as
           vibrations may cause significant error
 Vibrational temperatures:     34.29    45.01    87.29   102.00   156.64
          (Kelvin)            180.25   274.84   278.38   305.79   353.06
                              426.01   487.47   542.19   566.47   601.52
                              631.72   694.10   704.37   778.24   783.63
                              797.27   830.55   878.72   900.72   911.71
                              918.60   969.34  1051.75  1065.37  1100.29
                             1124.89  1134.19  1136.52  1179.79  1202.53
                             1219.47  1253.74  1292.77  1358.01  1371.63
                             1375.48  1396.29  1418.84  1426.77  1427.52
                             1528.17  1561.09  1618.63  1649.06  1652.84
                             1697.24  1708.42  1732.27  1799.49  1831.37
                             1835.12  1854.36  1873.01  1907.54  1984.05
                             2005.13  2010.80  2059.32  2126.62  2143.47
                             2159.63  2168.00  2238.27  2325.56  2332.66
                             2365.25  2388.37  2426.00  2662.02  4550.02
                             4585.11  4586.19  4594.06  4621.38  4627.24
                             4642.74  4643.16  4663.89  5301.51

 Zero-point correction=                           0.223632 (Hartree/Particle)
 Thermal correction to Energy=                    0.238815
 Thermal correction to Enthalpy=                  0.239759
 Thermal correction to Gibbs Free Energy=         0.179439
 Sum of electronic and zero-point Energies=           -912.634735
 Sum of electronic and thermal Energies=              -912.619553
 Sum of electronic and thermal Enthalpies=            -912.618609
 Sum of electronic and thermal Free Energies=         -912.678928

                     E (Thermal)             CV                S
                      KCal/Mol        Cal/Mol-Kelvin    Cal/Mol-Kelvin
 Total                  149.858             59.912            126.953
 Electronic               0.000              0.000              0.000
 Translational            0.889              2.981             42.635
 Rotational               0.889              2.981             33.530
 Vibrational            148.081             53.950             50.788
 Vibration     1          0.593              1.985              6.286
 Vibration     2          0.594              1.983              5.746
 Vibration     3          0.597              1.973              4.435
 Vibration     4          0.598              1.968              4.128
 Vibration     5          0.606              1.942              3.289
 Vibration     6          0.610              1.928              3.017
 Vibration     7          0.634              1.852              2.218
 Vibration     8          0.635              1.849              2.194
 Vibration     9          0.644              1.822              2.022
 Vibration    10          0.660              1.770              1.763
 Vibration    11          0.690              1.681              1.439
 Vibration    12          0.719              1.598              1.218
 Vibration    13          0.747              1.519              1.052
 Vibration    14          0.761              1.484              0.986
 Vibration    15          0.781              1.431              0.899
 Vibration    16          0.799              1.385              0.830
 Vibration    17          0.839              1.289              0.704
 Vibration    18          0.845              1.273              0.685
 Vibration    19          0.896              1.160              0.563
 Vibration    20          0.900              1.151              0.555
 Vibration    21          0.910              1.131              0.536
 Vibration    22          0.934              1.080              0.490
 Vibration    23          0.970              1.009              0.432

                           ! Non-Optimized Parameters !
 Normal termination of Gaussian 16 at Mon Dec 14 19:09:55 2020.

 ----------------------------------------------------------------------
 # B3LYP/6-311++G(d,p) empiricaldispersion=gd3bj scf=xqc pop=npa geom=c
 heck
 ----------------------------------------------------------------------

 ----------------------------------------
 CID_107315356_JID_10369_Energie_neutraal
 ----------------------------------------
 Structure from the checkpoint file:  "JID_10369.chk"
 Charge =  0 Multiplicity = 1

 SCF Done:  E(RB3LYP) =  -913.104240224     A.U. after   16 cycles
 Normal termination of Gaussian 16 at Mon Dec 14 19:16:07 2020.

 ----------------------------------------------------------------------
 # B3LYP/6-311++G(d,p) empiricaldispersion=gd3bj scf=xqc pop=npa geom=c
 heck
 ----------------------------------------------------------------------

 --------------------------------------
 CID_107315356_JID_10369_Energie_kation
 --------------------------------------
 Structure from the checkpoint file:  "JID_10369.chk"
 Charge =  1 Multiplicity = 2

 SCF Done:  E(UB3LYP) =  -912.808226933     A.U. after   26 cycles
 Normal termination of Gaussian 16 at Mon Dec 14 19:29:37 2020.
 Gaussian 16:  ES64L-G16RevA.03 25-Dec-2016

 ----------------------------------------------------------------------
 # B3LYP/6-311++G(d,p) empiricaldispersion=gd3bj scf=xqc pop=npa geom=c
 heck
 ----------------------------------------------------------------------

 -------------------------------------
 CID_107315356_JID_10369_Energie_anion
 -------------------------------------
 Structure from the checkpoint file:  "JID_10369.chk"
 Charge = -1 Multiplicity = 2

                         Standard orientation:
 ---------------------------------------------------------------------
 Center     Atomic      Atomic             Coordinates (Angstroms)
 Number     Number       Type             X           Y           Z
 ---------------------------------------------------------------------
      1          6           0       -5.002486    0.283821    0.565780
      2          6           0       -3.914074    0.313946    1.404262
      3          6           0       -2.645922   -0.072717    0.906805
      4          6           0       -2.565499   -0.481829   -0.463991
      5          6           0       -1.313220   -0.862902   -1.000466
      6          6           0       -0.193074   -0.844407   -0.202753
      7          6           0       -0.259301   -0.455504    1.157882
      8          6           0       -1.467006   -0.072969    1.692778
      9          8           0        0.991345   -1.273018   -0.773355
     10          6           0        2.192318   -0.803276   -0.304757
     11          6           0        2.502880    0.560224   -0.154927
     12          7           0        3.689007    0.973503    0.308715
     13          6           0        4.617909    0.061288    0.595642
     14          6           0        4.409766   -1.312418    0.449987
     15          6           0        3.169123   -1.750084    0.002695
     16          6           0        1.537380    1.669018   -0.474382
     17          8           0        1.352028    2.638612    0.221186
     18          8           0        0.914167    1.465508   -1.657766
     19          7           0       -3.656483   -0.504247   -1.286487
     20          6           0       -4.813452   -0.134854   -0.775608
     21          1           0       -5.990982    0.572439    0.908527
     22          1           0       -4.007580    0.629574    2.440499
     23          1           0       -1.247681   -1.154927   -2.041579
     24          1           0        0.637933   -0.459109    1.766295
     25          1           0       -1.526147    0.231312    2.734223
     26          1           0        5.570039    0.444585    0.954977
     27          1           0        5.195451   -2.019861    0.695862
     28          1           0        2.931952   -2.802611   -0.112142
     29          1           0        0.284011    2.203157   -1.764265
     30          1           0       -5.667037   -0.162190   -1.452202
 ---------------------------------------------------------------------

 SCF Done:  E(UB3LYP) =  -913.132080320     A.U. after   26 cycles

 The electronic state is 2-A.
 Alpha  occ. eigenvalues --  -19.05011 -19.04961 -18.98550 -14.18844 -14.17643
 Alpha  occ. eigenvalues --  -10.17607 -10.13246 -10.11770 -10.09594 -10.09237
 Alpha  occ. eigenvalues --  -10.08817 -10.08100 -10.06961 -10.06759 -10.06404
 Alpha  occ. eigenvalues --  -10.06062 -10.05835 -10.05384 -10.05180 -10.04050
 Alpha  occ. eigenvalues --   -0.98912  -0.97052  -0.89751  -0.83039  -0.81916
 Alpha  occ. eigenvalues --   -0.73055  -0.69600  -0.68315  -0.66158  -0.62979
 Alpha  occ. eigenvalues --   -0.61950  -0.56542  -0.53600  -0.52464  -0.49943
 Alpha  occ. eigenvalues --   -0.48969  -0.48542  -0.44868  -0.40919  -0.40040
 Alpha  occ. eigenvalues --   -0.39790  -0.39181  -0.36702  -0.36338  -0.35467
 Alpha  occ. eigenvalues --   -0.33368  -0.32728  -0.32363  -0.31527  -0.30889
 Alpha  occ. eigenvalues --   -0.29825  -0.29210  -0.28898  -0.28562  -0.28155
 Alpha  occ. eigenvalues --   -0.27328  -0.25616  -0.24465  -0.23632  -0.21324
 Alpha  occ. eigenvalues --   -0.20525  -0.18723  -0.18040  -0.16347  -0.14689
 Alpha  occ. eigenvalues --   -0.14516  -0.13646  -0.12534  -0.10563   0.02255
 Alpha virt. eigenvalues --    0.05543   0.07562   0.07779   0.08437   0.09339
 Alpha virt. eigenvalues --    0.09654   0.09777   0.10184   0.10619   0.11264
 Alpha virt. eigenvalues --    0.11676   0.12072   0.12867   0.13761   0.14122

  Beta  occ. eigenvalues --  -19.04997 -19.04932 -18.98405 -14.18561 -14.17462
  Beta  occ. eigenvalues --  -10.17514 -10.13278 -10.11755 -10.09497 -10.09296
  Beta  occ. eigenvalues --  -10.08848 -10.07987 -10.06834 -10.06597 -10.06465
  Beta  occ. eigenvalues --  -10.05875 -10.05802 -10.05344 -10.04976 -10.03935
  Beta  occ. eigenvalues --   -0.98777  -0.97014  -0.89546  -0.82649  -0.81640
  Beta  occ. eigenvalues --   -0.72837  -0.69279  -0.67990  -0.65927  -0.62791
  Beta  occ. eigenvalues --   -0.61695  -0.56188  -0.53485  -0.52105  -0.49810
  Beta  occ. eigenvalues --   -0.48753  -0.48320  -0.44711  -0.40775  -0.39895
  Beta  occ. eigenvalues --   -0.39673  -0.39032  -0.36585  -0.36128  -0.35363
  Beta  occ. eigenvalues --   -0.33178  -0.32495  -0.32104  -0.31421  -0.30678
  Beta  occ. eigenvalues --   -0.29538  -0.29064  -0.28608  -0.28359  -0.27820
  Beta  occ. eigenvalues --   -0.26989  -0.25383  -0.24332  -0.23415  -0.20647
  Beta  occ. eigenvalues --   -0.19949  -0.17882  -0.17139  -0.15887  -0.14272
  Beta  occ. eigenvalues --   -0.14104  -0.13454  -0.11818  -0.09818
  Beta virt. eigenvalues --    0.06489   0.07490   0.07709   0.07761   0.08850
  Beta virt. eigenvalues --    0.09323   0.09624   0.09776   0.10292   0.10608
  Beta virt. eigenvalues --    0.11289   0.11973   0.12411   0.12879   0.13989

 Mulliken charges and spin densities:
               1          2
     1  C   -0.361106   0.013059
     2  C   -0.268016   0.150178
     3  C    1.787091  -0.043405
     4  C   -1.869673  -0.055919
     5  C   -0.314966   0.109616
     6  C   -0.631525  -0.003159
     7  C    0.070865   0.030516
     8  C    0.180186   0.173262
     9  O   -0.030304   0.007494
    10  C    0.248035   0.050035
    11  C   -0.047349   0.057866
    12  N    0.027318   0.132862
    13  C   -0.063860  -0.038932
    14  C   -0.260351   0.144791
    15  C   -0.126351   0.024625
    16  C   -0.723077   0.078150
    17  O   -0.246309   0.044049
    18  O   -0.017560  -0.000817
    19  N    0.001743   0.073894
    20  C    0.053639   0.094160
    21  H    0.126403   0.000915
    22  H    0.109918  -0.013872
    23  H    0.174444  -0.007034
    24  H    0.198797   0.003957
    25  H    0.126058  -0.010600
    26  H    0.167265   0.002097
    27  H    0.129744  -0.008609
    28  H    0.168329  -0.008463
    29  H    0.236007   0.007367
    30  H    0.154604  -0.008083
 Sum of Mulliken charges =  -1.00000   1.00000

 Dipole moment (field-independent basis, Debye):
    X=              0.2919    Y=             -1.9289    Z=              1.0507  Tot=              2.2158
 Quadrupole moment (field-independent basis, Debye-Ang):
   XX=           -163.9646   YY=           -134.3443   ZZ=           -124.8676
   XY=            -14.2578   XZ=             -5.2400   YZ=             -5.7779

 Summary of Natural Population Analysis:

                                       Natural Population
                Natural  -----------------------------------------------
    Atom  No    Charge         Core      Valence    Rydberg      Total
 -----------------------------------------------------------------------
      C    1   -0.14452      0.99957     2.13606    0.00889     3.14452
      C    2   -0.03041      0.99954     2.02231    0.00856     3.03041
      C    3   -0.06426      0.99949     2.05630    0.00848     3.06426
      C    4    0.07369      0.99950     1.90943    0.01738     2.92631
      C    5   -0.07895      0.99947     2.07388    0.00559     3.07895
      C    6    0.15138      0.99938     1.83161    0.01764     2.84862
      C    7   -0.12383      0.99952     2.11695    0.00737     3.12383
      C    8   -0.04513      0.99955     2.03698    0.00860     3.04513
      O    9   -0.26827      0.99983     3.25712    0.01131     4.26827
      C   10    0.14610      0.99932     1.84146    0.01311     2.85390
      C   11    0.04456      0.99943     1.94233    0.01368     2.95544
      N   12   -0.17677      0.99968     2.66645    0.01064     3.67677
      C   13   -0.00061      0.99960     1.98620    0.01481     3.00061
      C   14   -0.08987      0.99957     2.08203    0.00827     3.08987
      C   15   -0.08656      0.99952     2.07815    0.00889     3.08656
      C   16    0.40451      0.99969     1.57041    0.02539     2.59549
      O   17   -0.28621      0.99987     3.27920    0.00714     4.28621
      O   18   -0.34094      0.99988     3.33348    0.00758     4.34094
      N   19   -0.21670      0.99969     2.70545    0.01156     3.71670
      C   20    0.04948      0.99962     1.93635    0.01456     2.95052
      H   21    0.09450      0.00000     0.40434    0.00116     0.40550
      H   22    0.09072      0.00000     0.40777    0.00151     0.40928
      H   23    0.10450      0.00000     0.39383    0.00167     0.39550
      H   24    0.10731      0.00000     0.39155    0.00114     0.39269
      H   25    0.09174      0.00000     0.40665    0.00161     0.40826
      H   26    0.08411      0.00000     0.41466    0.00123     0.41589
      H   27    0.09447      0.00000     0.40435    0.00119     0.40553
      H   28    0.10228      0.00000     0.39670    0.00102     0.39772
      H   29    0.23495      0.00000     0.26099    0.00405     0.26505
      H   30    0.07880      0.00000     0.41989    0.00131     0.42120
 =======================================================================
   * Total *    0.00004     19.99171    48.76289    0.24536    68.99996

 Normal termination of Gaussian 16 at Mon Dec 14 19:42:57 2020.
