 Gaussian 16, Revision A.03,

 -----------------------------------------------------------
 # opt freq B3LYP/6-31G(d) empiricaldispersion=gd3bj scf=xqc
 -----------------------------------------------------------

 -------------------------------
 CID_130525947_JID_2870_neutraal
 -------------------------------
 Symbolic Z-matrix:
 Charge =  0 Multiplicity = 1

 SCF Done:  E(RB3LYP) =  -538.694244464     A.U. after   14 cycles
 SCF Done:  E(RB3LYP) =  -538.699096416     A.U. after   12 cycles
 SCF Done:  E(RB3LYP) =  -538.700333216     A.U. after   12 cycles
 SCF Done:  E(RB3LYP) =  -538.701355401     A.U. after   13 cycles
 SCF Done:  E(RB3LYP) =  -538.701908578     A.U. after   12 cycles
 SCF Done:  E(RB3LYP) =  -538.702313310     A.U. after   11 cycles
 SCF Done:  E(RB3LYP) =  -538.702496416     A.U. after   12 cycles
 SCF Done:  E(RB3LYP) =  -538.702538171     A.U. after   10 cycles
 SCF Done:  E(RB3LYP) =  -538.702655298     A.U. after   11 cycles
 SCF Done:  E(RB3LYP) =  -538.702732899     A.U. after   11 cycles
 SCF Done:  E(RB3LYP) =  -538.711364542     A.U. after   10 cycles
 SCF Done:  E(RB3LYP) =  -538.711374085     A.U. after   10 cycles
 SCF Done:  E(RB3LYP) =  -538.711378280     A.U. after   10 cycles
 SCF Done:  E(RB3LYP) =  -538.711379996     A.U. after    8 cycles
 SCF Done:  E(RB3LYP) =  -538.711380466     A.U. after    7 cycles
 Optimization completed.
    -- Stationary point found.
 Normal termination of Gaussian 16 at Wed Dec  9 18:30:13 2020.

 --------------------------------------------------------------------
 #N Geom=AllCheck Guess=TCheck SCRF=Check GenChk RB3LYP/6-31G(d) Freq
 --------------------------------------------------------------------

 Structure from the checkpoint file:  "JID_2870.chk"
 -------------------------------
 CID_130525947_JID_2870_neutraal
 -------------------------------
 Charge =  0 Multiplicity = 1

 SCF Done:  E(RB3LYP) =  -538.711380467     A.U. after    1 cycles

  Exact polarizability: 119.789  -1.103 100.116  -1.943   2.687  73.702
 Approx polarizability: 161.478   7.232 163.953  -4.664   0.770 112.506

                      1                      2                      3
                      A                      A                      A
 Frequencies --     51.1153                99.2864               118.8699
 Red. masses --      3.8379                 3.9780                 3.7687
 Frc consts  --      0.0059                 0.0231                 0.0314
 IR Inten    --      0.7616                 0.0094                 0.2709

                      4                      5                      6
                      A                      A                      A
 Frequencies --    195.6459               246.1451               312.1914
 Red. masses --      3.3516                 2.8737                 1.3188
 Frc consts  --      0.0756                 0.1026                 0.0757
 IR Inten    --      0.7915                 1.0456                82.2391

                      7                      8                      9
                      A                      A                      A
 Frequencies --    329.0058               359.7358               392.8815
 Red. masses --      2.8990                 3.0980                 2.8010
 Frc consts  --      0.1849                 0.2362                 0.2547
 IR Inten    --      0.2884                10.8182                45.0451

                     10                     11                     12
                      A                      A                      A
 Frequencies --    409.2651               444.5447               530.4703
 Red. masses --      3.0943                 3.6113                 3.2956
 Frc consts  --      0.3054                 0.4205                 0.5464
 IR Inten    --      5.4071                 4.4116                 1.1611

                     13                     14                     15
                      A                      A                      A
 Frequencies --    621.0423               646.9615               681.6915
 Red. masses --      4.1371                 2.3154                 2.6694
 Frc consts  --      0.9401                 0.5710                 0.7309
 IR Inten    --     10.1185                 1.1807                 7.2539

                     16                     17                     18
                      A                      A                      A
 Frequencies --    729.6268               732.8330               792.6365
 Red. masses --      1.3726                 2.6675                 1.4510
 Frc consts  --      0.4305                 0.8440                 0.5371
 IR Inten    --      7.6307                11.5046                37.7770

                     19                     20                     21
                      A                      A                      A
 Frequencies --    815.8128               834.4377               842.1137
 Red. masses --      2.7413                 1.6618                 1.4509
 Frc consts  --      1.0750                 0.6817                 0.6062
 IR Inten    --      0.6257                 4.9260                 4.9141

                     22                     23                     24
                      A                      A                      A
 Frequencies --    853.6811               896.1173               901.4818
 Red. masses --      1.3449                 5.1687                 4.1562
 Frc consts  --      0.5775                 2.4455                 1.9900
 IR Inten    --      2.6365                42.2919                 5.9120

                     25                     26                     27
                      A                      A                      A
 Frequencies --    929.4194               964.8179               976.2708
 Red. masses --      2.3792                 2.2677                 2.0555
 Frc consts  --      1.2109                 1.2437                 1.1543
 IR Inten    --      7.7739                 5.5133                36.0689

                     28                     29                     30
                      A                      A                      A
 Frequencies --   1011.7204              1018.0613              1034.1584
 Red. masses --      1.9002                 2.4166                 1.8631
 Frc consts  --      1.1459                 1.4757                 1.1740
 IR Inten    --     20.8414                13.7249                20.0736

                     31                     32                     33
                      A                      A                      A
 Frequencies --   1063.5070              1075.5468              1086.5589
 Red. masses --      1.4350                 2.2266                 1.9116
 Frc consts  --      0.9563                 1.5175                 1.3297
 IR Inten    --      1.9191                24.4499                16.1577

                     34                     35                     36
                      A                      A                      A
 Frequencies --   1104.1768              1113.8791              1132.2356
 Red. masses --      1.7727                 1.2132                 1.8850
 Frc consts  --      1.2734                 0.8869                 1.4237
 IR Inten    --     16.1348                 2.3416                 3.3857

                     37                     38                     39
                      A                      A                      A
 Frequencies --   1153.1722              1201.2053              1213.5252
 Red. masses --      1.9732                 3.4785                 1.6226
 Frc consts  --      1.5460                 2.9572                 1.4079
 IR Inten    --     27.3609                29.7233                 2.5985

                     40                     41                     42
                      A                      A                      A
 Frequencies --   1226.7584              1242.9134              1267.3858
 Red. masses --      1.4604                 1.4490                 1.2624
 Frc consts  --      1.2949                 1.3188                 1.1947
 IR Inten    --     12.5255                 5.5213                 0.6233

                     43                     44                     45
                      A                      A                      A
 Frequencies --   1312.2705              1325.6070              1345.3225
 Red. masses --      2.2065                 1.2998                 1.8801
 Frc consts  --      2.2387                 1.3458                 2.0049
 IR Inten    --      3.3442                11.0778                24.2160

                     46                     47                     48
                      A                      A                      A
 Frequencies --   1360.5327              1389.3749              1413.6572
 Red. masses --      1.6590                 1.7633                 2.4107
 Frc consts  --      1.8093                 2.0054                 2.8385
 IR Inten    --     24.0854                 9.7122                 7.7729

                     49                     50                     51
                      A                      A                      A
 Frequencies --   1422.9763              1509.2984              1518.5341
 Red. masses --      2.7578                 1.1838                 1.1244
 Frc consts  --      3.2901                 1.5888                 1.5277
 IR Inten    --      4.4388                 1.4858                 2.7544

                     52                     53                     54
                      A                      A                      A
 Frequencies --   1535.0125              1549.9073              1640.6656
 Red. masses --      1.1368                 4.0363                 6.0964
 Frc consts  --      1.5782                 5.7127                 9.6685
 IR Inten    --      4.7286                22.9831                 2.3749

                     55                     56                     57
                      A                      A                      A
 Frequencies --   3058.5814              3087.1471              3100.2191
 Red. masses --      1.0598                 1.0709                 1.0958
 Frc consts  --      5.8414                 6.0135                 6.2052
 IR Inten    --     50.1369                 7.9458                28.8833

                     58                     59                     60
                      A                      A                      A
 Frequencies --   3137.7900              3146.0449              3166.1528
 Red. masses --      1.1019                 1.0567                 1.0896
 Frc consts  --      6.3918                 6.1621                 6.4357
 IR Inten    --     12.6931                22.2841                16.7536

                     61                     62                     63
                      A                      A                      A
 Frequencies --   3183.8094              3223.1476              3275.2312
 Red. masses --      1.0933                 1.1161                 1.0905
 Frc consts  --      6.5295                 6.8314                 6.8925
 IR Inten    --     20.7762                17.4968                 0.2934

                     64                     65                     66
                      A                      A                      A
 Frequencies --   3301.5187              3307.5128              3729.0909
 Red. masses --      1.1025                 1.1010                 1.0660
 Frc consts  --      7.0802                 7.0968                 8.7340
 IR Inten    --      2.9475                 0.0931                10.3375

 - Thermochemistry -
 -------------------
 Temperature   298.150 Kelvin.  Pressure   1.00000 Atm.
 Atom     1 has atomic number  6 and mass  12.00000

 Molecular mass:   164.08373 amu.
 Principal axes and moments of inertia in atomic units:
                           1         2         3
     Eigenvalues --   889.036082652.335633042.95409
           X            0.99988  -0.01501   0.00416
           Y            0.01487   0.99935   0.03290
           Z           -0.00465  -0.03283   0.99945
 This molecule is an asymmetric top.
 Rotational symmetry number  1.
 Warning -- assumption of classical behavior for rotation
           may cause significant error
 Rotational temperatures (Kelvin)      0.09742     0.03266     0.02846
 Rotational constants (GHZ):           2.03000     0.68043     0.59309
 Zero-point vibrational energy     530497.8 (Joules/Mol)
                                  126.79202 (Kcal/Mol)
 Warning -- explicit consideration of  12 degrees of freedom as
           vibrations may cause significant error
 Vibrational temperatures:     73.54   142.85   171.03   281.49   354.15
          (Kelvin)            449.17   473.37   517.58   565.27   588.84
                              639.60   763.23   893.54   930.83   980.80
                             1049.77  1054.38  1140.43  1173.77  1200.57
                             1211.61  1228.26  1289.31  1297.03  1337.23
                             1388.16  1404.64  1455.64  1464.76  1487.92
                             1530.15  1547.47  1563.32  1588.66  1602.62
                             1629.03  1659.16  1728.27  1745.99  1765.03
                             1788.28  1823.49  1888.06  1907.25  1935.62
                             1957.50  1999.00  2033.94  2047.35  2171.54
                             2184.83  2208.54  2229.97  2360.55  4400.62
                             4441.72  4460.52  4514.58  4526.46  4555.39
                             4580.79  4637.39  4712.33  4750.15  4758.77
                             5365.33

 Zero-point correction=                           0.202056 (Hartree/Particle)
 Thermal correction to Energy=                    0.212075
 Thermal correction to Enthalpy=                  0.213019
 Thermal correction to Gibbs Free Energy=         0.166375
 Sum of electronic and zero-point Energies=           -538.509325
 Sum of electronic and thermal Energies=              -538.499306
 Sum of electronic and thermal Enthalpies=            -538.498362
 Sum of electronic and thermal Free Energies=         -538.545006

                     E (Thermal)             CV                S
                      KCal/Mol        Cal/Mol-Kelvin    Cal/Mol-Kelvin
 Total                  133.079             40.489             98.171
 Electronic               0.000              0.000              0.000
 Translational            0.889              2.981             41.194
 Rotational               0.889              2.981             30.352
 Vibrational            131.301             34.527             26.625
 Vibration     1          0.595              1.977              4.774
 Vibration     2          0.604              1.950              3.468
 Vibration     3          0.609              1.934              3.119
 Vibration     4          0.636              1.846              2.174
 Vibration     5          0.661              1.769              1.758
 Vibration     6          0.701              1.650              1.351
 Vibration     7          0.712              1.618              1.265
 Vibration     8          0.734              1.555              1.123
 Vibration     9          0.760              1.485              0.989
 Vibration    10          0.774              1.450              0.929
 Vibration    11          0.804              1.373              0.812
 Vibration    12          0.885              1.183              0.586

                           ! Non-Optimized Parameters !
 Normal termination of Gaussian 16 at Wed Dec  9 18:36:04 2020.

 ----------------------------------------------------------------------
 # B3LYP/6-311++G(d,p) empiricaldispersion=gd3bj scf=xqc pop=npa geom=c
 heck
 ----------------------------------------------------------------------

 ---------------------------------------
 CID_130525947_JID_2870_Energie_neutraal
 ---------------------------------------
 Structure from the checkpoint file:  "JID_2870.chk"
 Charge =  0 Multiplicity = 1

 SCF Done:  E(RB3LYP) =  -538.867218712     A.U. after   15 cycles
 Normal termination of Gaussian 16 at Wed Dec  9 18:38:29 2020.

 ----------------------------------------------------------------------
 # B3LYP/6-311++G(d,p) empiricaldispersion=gd3bj scf=xqc pop=npa geom=c
 heck
 ----------------------------------------------------------------------

 -------------------------------------
 CID_130525947_JID_2870_Energie_kation
 -------------------------------------
 Structure from the checkpoint file:  "JID_2870.chk"
 Charge =  1 Multiplicity = 2

 SCF Done:  E(UB3LYP) =  -538.556409621     A.U. after   24 cycles
 Normal termination of Gaussian 16 at Wed Dec  9 18:43:46 2020.
 Gaussian 16:  ES64L-G16RevA.03 25-Dec-2016

 ----------------------------------------------------------------------
 # B3LYP/6-311++G(d,p) empiricaldispersion=gd3bj scf=xqc pop=npa geom=c
 heck
 ----------------------------------------------------------------------

 ------------------------------------
 CID_130525947_JID_2870_Energie_anion
 ------------------------------------
 Structure from the checkpoint file:  "JID_2870.chk"
 Charge = -1 Multiplicity = 2

                         Standard orientation:
 ---------------------------------------------------------------------
 Center     Atomic      Atomic             Coordinates (Angstroms)
 Number     Number       Type             X           Y           Z
 ---------------------------------------------------------------------
      1          6           0       -2.627096   -0.620913   -0.780107
      2          6           0       -1.128908   -0.887567   -1.038177
      3          6           0       -0.411919   -0.460488    0.265068
      4          6           0       -1.276478    0.674942    0.803960
      5          6           0       -2.642859    0.567802    0.171691
      6          6           0       -1.749404    1.736903   -0.163548
      7          6           0        1.035940   -0.105892    0.074411
      8          6           0        1.612600    1.129772    0.093089
      9          8           0        2.957674    1.039387   -0.127947
     10          6           0        3.242205   -0.287492   -0.286858
     11          6           0        2.111382   -1.032948   -0.173123
     12          8           0       -0.521207   -1.599934    1.140522
     13          1           0       -3.080965   -1.484816   -0.282605
     14          1           0       -3.181400   -0.437871   -1.708287
     15          1           0       -0.907791   -1.934465   -1.259814
     16          1           0       -0.757344   -0.286195   -1.872747
     17          1           0       -1.144383    0.944080    1.849388
     18          1           0       -3.540309    0.758968    0.753118
     19          1           0       -1.296967    1.802233   -1.149550
     20          1           0       -2.013908    2.700585    0.262634
     21          1           0        1.223289    2.124770    0.238305
     22          1           0        4.279960   -0.523687   -0.465528
     23          1           0        2.025329   -2.107840   -0.239390
     24          1           0       -0.090022   -1.356101    1.975451
 ---------------------------------------------------------------------

 SCF Done:  E(UB3LYP) =  -538.849822656     A.U. after   33 cycles
 SCF Done:  E(UB3LYP) =  -538.849822656     a.u. after    1 cycles

 The electronic state is 2-A.
 Alpha  occ. eigenvalues --  -19.09142 -19.02015 -10.13646 -10.12313 -10.11989
 Alpha  occ. eigenvalues --  -10.07658 -10.07323 -10.07255 -10.07181 -10.06859
 Alpha  occ. eigenvalues --  -10.06823 -10.06752  -1.01350  -0.92434  -0.78130
 Alpha  occ. eigenvalues --   -0.71157  -0.66271  -0.65147  -0.60053  -0.52674
 Alpha  occ. eigenvalues --   -0.49939  -0.48566  -0.46075  -0.45319  -0.43744
 Alpha  occ. eigenvalues --   -0.41733  -0.37837  -0.35592  -0.35312  -0.34005
 Alpha  occ. eigenvalues --   -0.32895  -0.30802  -0.30207  -0.29926  -0.28651
 Alpha  occ. eigenvalues --   -0.26578  -0.25615  -0.24005  -0.22593  -0.20474
 Alpha  occ. eigenvalues --   -0.18183  -0.18045  -0.16629  -0.13400   0.04673
 Alpha virt. eigenvalues --    0.06441   0.07711   0.07922   0.08389   0.09116
 Alpha virt. eigenvalues --    0.09596   0.10274   0.10754   0.11001   0.11827
 Alpha virt. eigenvalues --    0.12659   0.13943   0.14080   0.15025   0.15656

  Beta  occ. eigenvalues --  -19.09140 -19.01993 -10.13647 -10.12296 -10.11974
  Beta  occ. eigenvalues --  -10.07660 -10.07311 -10.07244 -10.07160 -10.06834
  Beta  occ. eigenvalues --  -10.06812 -10.06740  -1.01343  -0.92393  -0.78098
  Beta  occ. eigenvalues --   -0.71143  -0.66245  -0.65120  -0.60024  -0.52629
  Beta  occ. eigenvalues --   -0.49909  -0.48526  -0.46031  -0.45270  -0.43696
  Beta  occ. eigenvalues --   -0.41678  -0.37792  -0.35570  -0.35277  -0.33974
  Beta  occ. eigenvalues --   -0.32863  -0.30781  -0.30185  -0.29895  -0.28632
  Beta  occ. eigenvalues --   -0.26551  -0.25595  -0.23974  -0.22568  -0.20449
  Beta  occ. eigenvalues --   -0.18161  -0.18017  -0.16609  -0.13379
  Beta virt. eigenvalues --    0.06990   0.07668   0.08459   0.08624   0.09011
  Beta virt. eigenvalues --    0.09325   0.10218   0.10572   0.11220   0.11531
  Beta virt. eigenvalues --    0.12198   0.13138   0.14090   0.14323   0.15286

 Mulliken charges and spin densities:
               1          2
     1  C    0.191359  -0.796033
     2  C   -0.242465  -0.229813
     3  C    4.798567  -4.593099
     4  C   -2.038592   2.041439
     5  C    0.397946  -0.244093
     6  C    1.169891  -1.861804
     7  C   -0.326018  -0.350628
     8  C   -1.147720   1.009796
     9  O   -0.052937   0.032658
    10  C    0.879178  -1.371856
    11  C   -0.803674   1.416711
    12  O   -0.173353   0.015451
    13  H    0.107060   0.037711
    14  H   -0.149749   0.289376
    15  H    0.150748   0.005556
    16  H    0.074226   0.094469
    17  H   -0.783790   1.067114
    18  H   -0.781596   1.004629
    19  H   -0.177890   0.321342
    20  H   -0.428435   0.592409
    21  H   -0.246866   0.477411
    22  H   -0.942393   1.132115
    23  H   -0.485798   0.682828
    24  H    0.012301   0.226311
 Sum of Mulliken charges =  -1.00000   1.00000

 Dipole moment (field-independent basis, Debye):
    X=              0.0612    Y=             -1.7236    Z=             -2.7555  Tot=              3.2507
 Quadrupole moment (field-independent basis, Debye-Ang):
   XX=           -141.6277   YY=           -113.6103   ZZ=           -105.9232
   XY=             11.7564   XZ=              7.2065   YZ=             -3.8569

 Summary of Natural Population Analysis:

                                       Natural Population
                Natural  -----------------------------------------------
    Atom  No    Charge         Core      Valence    Rydberg      Total
 -----------------------------------------------------------------------
      C    1   -0.18888      0.99963     2.18189    0.00736     3.18888
      C    2   -0.19023      0.99959     2.18262    0.00802     3.19023
      C    3    0.12220      0.99945     1.86090    0.01745     2.87780
      C    4   -0.11910      0.99954     2.10429    0.01527     3.11910
      C    5   -0.10625      0.99959     2.09544    0.01123     3.10625
      C    6   -0.20166      0.99960     2.19156    0.01050     3.20166
      C    7   -0.07525      0.99948     2.06202    0.01374     3.07525
      C    8    0.06937      0.99943     1.91801    0.01319     2.93063
      O    9   -0.23450      0.99987     3.22593    0.00870     4.23450
      C   10    0.06176      0.99951     1.92412    0.01460     2.93824
      C   11   -0.14259      0.99952     2.13334    0.00974     3.14259
      O   12   -0.37416      0.99989     3.36769    0.00658     4.37416
      H   13    0.10150      0.00000     0.39706    0.00144     0.39850
      H   14    0.09671      0.00000     0.40207    0.00122     0.40329
      H   15    0.10836      0.00000     0.39043    0.00120     0.39164
      H   16    0.10088      0.00000     0.39784    0.00127     0.39912
      H   17    0.11195      0.00000     0.38449    0.00356     0.38805
      H   18    0.10706      0.00000     0.39106    0.00188     0.39294
      H   19    0.10061      0.00000     0.39787    0.00153     0.39939
      H   20    0.10925      0.00000     0.38861    0.00213     0.39075
      H   21    0.10151      0.00000     0.39701    0.00148     0.39849
      H   22    0.09638      0.00000     0.40153    0.00209     0.40362
      H   23    0.11422      0.00000     0.38460    0.00117     0.38578
      H   24    0.23084      0.00000     0.26568    0.00348     0.26916
 =======================================================================
   * Total *   -0.00000     11.99512    31.84605    0.15883    44.00000

 Normal termination of Gaussian 16 at Wed Dec  9 18:50:40 2020.
