 Gaussian 16, Revision A.03,

 -----------------------------------------------------------
 # opt freq B3LYP/6-31G(d) empiricaldispersion=gd3bj scf=xqc
 -----------------------------------------------------------

 ------------------------------
 CID_77061907_JID_9118_neutraal
 ------------------------------
 Symbolic Z-matrix:
 Charge =  0 Multiplicity = 1

 SCF Done:  E(RB3LYP) =  -824.939456516     A.U. after   14 cycles
 SCF Done:  E(RB3LYP) =  -824.946552155     A.U. after   12 cycles
 SCF Done:  E(RB3LYP) =  -824.946462874     A.U. after   13 cycles
 SCF Done:  E(RB3LYP) =  -824.946735150     A.U. after   12 cycles
 SCF Done:  E(RB3LYP) =  -824.948480592     A.U. after   12 cycles
 SCF Done:  E(RB3LYP) =  -824.948918324     A.U. after   12 cycles
 SCF Done:  E(RB3LYP) =  -824.949317221     A.U. after   12 cycles
 SCF Done:  E(RB3LYP) =  -824.949731049     A.U. after   12 cycles
 SCF Done:  E(RB3LYP) =  -824.950194387     A.U. after   13 cycles
 SCF Done:  E(RB3LYP) =  -824.948237119     A.U. after   15 cycles
 SCF Done:  E(RB3LYP) =  -824.952024415     A.U. after   10 cycles
 SCF Done:  E(RB3LYP) =  -824.952031987     A.U. after    9 cycles
 SCF Done:  E(RB3LYP) =  -824.952032819     A.U. after    9 cycles
 SCF Done:  E(RB3LYP) =  -824.952033228     A.U. after    8 cycles
 SCF Done:  E(RB3LYP) =  -824.952033333     A.U. after    7 cycles
 Optimization completed.
    -- Stationary point found.
 Normal termination of Gaussian 16 at Thu Dec 17 20:24:11 2020.

 --------------------------------------------------------------------
 #N Geom=AllCheck Guess=TCheck SCRF=Check GenChk RB3LYP/6-31G(d) Freq
 --------------------------------------------------------------------

 Structure from the checkpoint file:  "JID_9118.chk"
 ------------------------------
 CID_77061907_JID_9118_neutraal
 ------------------------------
 Charge =  0 Multiplicity = 1

 SCF Done:  E(RB3LYP) =  -824.952033333     A.U. after    1 cycles

  Exact polarizability: 250.703  -4.724 173.016 -24.729  -1.970 122.849
 Approx polarizability: 327.434  -7.197 281.795 -48.460  -1.458 194.045

                      1                      2                      3
                      A                      A                      A
 Frequencies --     28.5574                41.5025                48.4702
 Red. masses --      4.5670                 3.7756                 4.0291
 Frc consts  --      0.0022                 0.0038                 0.0056
 IR Inten    --      0.0339                 0.6265                 0.4288

                      4                      5                      6
                      A                      A                      A
 Frequencies --     76.0340               100.8621               137.4791
 Red. masses --      3.9052                 3.6538                 3.5992
 Frc consts  --      0.0133                 0.0219                 0.0401
 IR Inten    --      0.8067                 1.1488                 0.1110

                      7                      8                      9
                      A                      A                      A
 Frequencies --    164.5926               174.1261               189.5610
 Red. masses --      2.3925                 4.3913                 1.3298
 Frc consts  --      0.0382                 0.0784                 0.0282
 IR Inten    --      0.4680                 0.5060                 0.5146

                     10                     11                     12
                      A                      A                      A
 Frequencies --    205.4872               251.5695               255.6992
 Red. masses --      2.8637                 2.5441                 2.1244
 Frc consts  --      0.0712                 0.0949                 0.0818
 IR Inten    --      3.2806                 5.2883                 0.7198

                     13                     14                     15
                      A                      A                      A
 Frequencies --    279.9191               296.0169               300.5505
 Red. masses --      5.1615                 1.7478                 1.3061
 Frc consts  --      0.2383                 0.0902                 0.0695
 IR Inten    --      2.0773                 0.7878                 9.7926

                     16                     17                     18
                      A                      A                      A
 Frequencies --    311.0357               325.0015               331.9389
 Red. masses --      3.6937                 3.2169                 2.7699
 Frc consts  --      0.2105                 0.2002                 0.1798
 IR Inten    --      3.7130                 1.9093                 9.6169

                     19                     20                     21
                      A                      A                      A
 Frequencies --    344.0323               380.0007               389.9501
 Red. masses --      3.1188                 2.4334                 1.2763
 Frc consts  --      0.2175                 0.2070                 0.1144
 IR Inten    --      7.0791                12.1874               115.5101

                     22                     23                     24
                      A                      A                      A
 Frequencies --    416.8850               423.2827               433.9431
 Red. masses --      1.2559                 2.0782                 2.7819
 Frc consts  --      0.1286                 0.2194                 0.3086
 IR Inten    --    145.9292                35.2729                 1.3600

                     25                     26                     27
                      A                      A                      A
 Frequencies --    462.4397               470.2522               503.1107
 Red. masses --      2.8846                 3.5466                 2.3990
 Frc consts  --      0.3635                 0.4621                 0.3578
 IR Inten    --      7.8417                 5.1465                 7.0611

                     28                     29                     30
                      A                      A                      A
 Frequencies --    541.0732               573.0384               607.0209
 Red. masses --      3.0420                 3.7510                 2.8021
 Frc consts  --      0.5247                 0.7257                 0.6083
 IR Inten    --      6.9324                 3.8887                12.3076

                     31                     32                     33
                      A                      A                      A
 Frequencies --    623.0447               641.6199               646.1775
 Red. masses --      3.6568                 2.7970                 2.5590
 Frc consts  --      0.8363                 0.6784                 0.6296
 IR Inten    --     14.7548                 5.1479                52.2810

                     34                     35                     36
                      A                      A                      A
 Frequencies --    661.9243               684.1723               719.7137
 Red. masses --      3.1123                 2.2637                 2.6003
 Frc consts  --      0.8034                 0.6243                 0.7936
 IR Inten    --     28.9139                35.5918                 6.2171

                     37                     38                     39
                      A                      A                      A
 Frequencies --    751.1805               771.4214               801.3631
 Red. masses --      1.9194                 2.9974                 2.4535
 Frc consts  --      0.6381                 1.0509                 0.9283
 IR Inten    --    251.9378                14.1168                 2.1694

                     40                     41                     42
                      A                      A                      A
 Frequencies --    825.5605               844.8918               860.2051
 Red. masses --      1.5528                 2.4923                 1.4481
 Frc consts  --      0.6235                 1.0482                 0.6313
 IR Inten    --     39.3863                 2.3857                11.7268

                     43                     44                     45
                      A                      A                      A
 Frequencies --    872.7436               877.3620               906.2794
 Red. masses --      2.0250                 2.4724                 1.5110
 Frc consts  --      0.9087                 1.1213                 0.7312
 IR Inten    --      4.3716                 0.6321                 0.2087

                     46                     47                     48
                      A                      A                      A
 Frequencies --    923.4706               935.5600               956.7330
 Red. masses --      2.1628                 1.3088                 2.3116
 Frc consts  --      1.0867                 0.6749                 1.2467
 IR Inten    --      0.7061                 0.4801                13.5547

                     49                     50                     51
                      A                      A                      A
 Frequencies --    962.4189               985.6379               994.5529
 Red. masses --      1.6962                 2.7074                 3.1488
 Frc consts  --      0.9257                 1.5497                 1.8351
 IR Inten    --      0.9070                 8.3093                75.1838

                     52                     53                     54
                      A                      A                      A
 Frequencies --   1014.5119              1019.0228              1042.7150
 Red. masses --      1.4693                 2.1334                 1.5686
 Frc consts  --      0.8910                 1.3053                 1.0048
 IR Inten    --      8.9300                 1.5608                 2.6203

                     55                     56                     57
                      A                      A                      A
 Frequencies --   1074.2628              1081.4682              1116.7080
 Red. masses --      1.6780                 1.9114                 2.9723
 Frc consts  --      1.1409                 1.3171                 2.1838
 IR Inten    --      4.5314                10.5758                 5.7366

                     58                     59                     60
                      A                      A                      A
 Frequencies --   1128.4134              1157.8082              1166.0347
 Red. masses --      2.7085                 1.2306                 1.9082
 Frc consts  --      2.0320                 0.9720                 1.5286
 IR Inten    --      6.4231                 4.3929                50.4637

                     61                     62                     63
                      A                      A                      A
 Frequencies --   1187.6669              1199.3247              1205.3253
 Red. masses --      1.4839                 1.9191                 1.2955
 Frc consts  --      1.2332                 1.6264                 1.1090
 IR Inten    --      2.5738                 0.9656                 3.8993

                     64                     65                     66
                      A                      A                      A
 Frequencies --   1215.9294              1228.9878              1233.4520
 Red. masses --      2.1479                 2.2960                 1.7769
 Frc consts  --      1.8710                 2.0433                 1.5928
 IR Inten    --     28.2309                11.0021                 5.5800

                     67                     68                     69
                      A                      A                      A
 Frequencies --   1253.5571              1280.1488              1300.8253
 Red. masses --      1.4125                 1.3523                 1.6989
 Frc consts  --      1.3077                 1.3057                 1.6937
 IR Inten    --     19.2475                 5.3808                 1.4596

                     70                     71                     72
                      A                      A                      A
 Frequencies --   1304.7680              1324.8683              1334.1200
 Red. masses --      1.4309                 1.7174                 1.9162
 Frc consts  --      1.4353                 1.7761                 2.0094
 IR Inten    --      2.2171                18.9115                57.6704

                     73                     74                     75
                      A                      A                      A
 Frequencies --   1341.2369              1357.2830              1369.6852
 Red. masses --      2.0229                 1.3977                 1.8911
 Frc consts  --      2.1440                 1.5171                 2.0903
 IR Inten    --     85.1227                 5.2134                17.2005

                     76                     77                     78
                      A                      A                      A
 Frequencies --   1374.7413              1399.4241              1420.8725
 Red. masses --      2.5603                 1.3887                 1.2833
 Frc consts  --      2.8509                 1.6023                 1.5265
 IR Inten    --      6.2749                 1.2415                 1.0821

                     79                     80                     81
                      A                      A                      A
 Frequencies --   1424.6814              1439.9948              1455.1892
 Red. masses --      1.4486                 1.3237                 1.2311
 Frc consts  --      1.7323                 1.6172                 1.5360
 IR Inten    --      2.4504                12.0220                 9.5090

                     82                     83                     84
                      A                      A                      A
 Frequencies --   1480.1770              1501.5498              1510.8882
 Red. masses --      3.3108                 1.0825                 1.1127
 Frc consts  --      4.2737                 1.4380                 1.4966
 IR Inten    --     52.5809                 3.0894                 4.6677

                     85                     86                     87
                      A                      A                      A
 Frequencies --   1515.5766              1515.6885              1523.7152
 Red. masses --      1.0623                 1.0999                 1.0530
 Frc consts  --      1.4376                 1.4887                 1.4404
 IR Inten    --      3.1450                 4.3834                 2.3201

                     88                     89                     90
                      A                      A                      A
 Frequencies --   1533.8922              1534.1363              1543.3170
 Red. masses --      1.1187                 1.0798                 1.2777
 Frc consts  --      1.5507                 1.4974                 1.7930
 IR Inten    --      0.0680                12.7030                75.6844

                     91                     92                     93
                      A                      A                      A
 Frequencies --   1551.5801              1557.8675              1564.2018
 Red. masses --      1.7152                 1.1447                 1.5340
 Frc consts  --      2.4329                 1.6368                 2.2113
 IR Inten    --     74.2056                10.0746                30.9134

                     94                     95                     96
                      A                      A                      A
 Frequencies --   1643.5778              1661.2462              1678.6559
 Red. masses --      4.0495                 1.2925                 6.2316
 Frc consts  --      6.4452                 2.1017                10.3461
 IR Inten    --     32.6862                55.3131               120.1918

                     97                     98                     99
                      A                      A                      A
 Frequencies --   1704.9038              3016.1621              3023.4525
 Red. masses --      3.9214                 1.0705                 1.0695
 Frc consts  --      6.7157                 5.7381                 5.7604
 IR Inten    --     96.2586                58.5506                31.4693

                    100                    101                    102
                      A                      A                      A
 Frequencies --   3024.5859              3027.9558              3048.5392
 Red. masses --      1.0608                 1.0635                 1.0420
 Frc consts  --      5.7178                 5.7448                 5.7058
 IR Inten    --     24.2284                24.6996                26.4562

                    103                    104                    105
                      A                      A                      A
 Frequencies --   3055.5763              3056.9324              3057.5975
 Red. masses --      1.0552                 1.0892                 1.0677
 Frc consts  --      5.8044                 5.9971                 5.8814
 IR Inten    --     35.2458                48.6135                17.6025

                    106                    107                    108
                      A                      A                      A
 Frequencies --   3075.2396              3078.9041              3085.4121
 Red. masses --      1.0987                 1.0913                 1.0896
 Frc consts  --      6.1217                 6.0954                 6.1115
 IR Inten    --     31.1692                44.0616                47.4659

                    109                    110                    111
                      A                      A                      A
 Frequencies --   3109.9042              3112.5584              3114.7072
 Red. masses --      1.0976                 1.1038                 1.1003
 Frc consts  --      6.2545                 6.3008                 6.2892
 IR Inten    --     35.1651                57.7403                28.6242

                    112                    113                    114
                      A                      A                      A
 Frequencies --   3146.7297              3169.2978              3186.7144
 Red. masses --      1.1020                 1.0864                 1.0941
 Frc consts  --      6.4293                 6.4296                 6.5464
 IR Inten    --     20.6187                16.6574                23.4279

                    115                    116                    117
                      A                      A                      A
 Frequencies --   3201.3030              3208.5757              3534.9112
 Red. masses --      1.0896                 1.0940                 1.0476
 Frc consts  --      6.5793                 6.6360                 7.7126
 IR Inten    --     13.3044                 5.0774                 8.7142

                    118                    119                    120
                      A                      A                      A
 Frequencies --   3570.9064              3644.0908              3714.6809
 Red. masses --      1.0747                 1.0974                 1.0678
 Frc consts  --      8.0738                 8.5858                 8.6816
 IR Inten    --     60.8347                 9.0165               137.2396

 - Thermochemistry -
 -------------------
 Temperature   298.150 Kelvin.  Pressure   1.00000 Atm.
 Atom     1 has atomic number  6 and mass  12.00000

 Molecular mass:   261.18411 amu.
 Principal axes and moments of inertia in atomic units:
                           1         2         3
     Eigenvalues --  1929.56499********************
           X            0.99997  -0.00580  -0.00551
           Y            0.00563   0.99952  -0.03032
           Z            0.00568   0.03028   0.99953
 This molecule is an asymmetric top.
 Rotational symmetry number  1.
 Warning -- assumption of classical behavior for rotation
           may cause significant error
 Rotational temperatures (Kelvin)      0.04489     0.00864     0.00812
 Rotational constants (GHZ):           0.93531     0.18009     0.16922
 Zero-point vibrational energy     969263.5 (Joules/Mol)
                                  231.65954 (Kcal/Mol)
 Warning -- explicit consideration of  30 degrees of freedom as
           vibrations may cause significant error
 Vibrational temperatures:     41.09    59.71    69.74   109.40   145.12
          (Kelvin)            197.80   236.81   250.53   272.74   295.65
                              361.95   367.89   402.74   425.90   432.43
                              447.51   467.60   477.59   494.99   546.74
                              561.05   599.80   609.01   624.35   665.35
                              676.59   723.86   778.48   824.47   873.37
                              896.42   923.15   929.71   952.36   984.37
                             1035.51  1080.78  1109.90  1152.98  1187.80
                             1215.61  1237.64  1255.68  1262.33  1303.93
                             1328.67  1346.06  1376.53  1384.71  1418.11
                             1430.94  1459.66  1466.15  1500.23  1545.62
                             1555.99  1606.69  1623.54  1665.83  1677.66
                             1708.79  1725.56  1734.19  1749.45  1768.24
                             1774.66  1803.59  1841.85  1871.60  1877.27
                             1906.19  1919.50  1929.74  1952.83  1970.67
                             1977.95  2013.46  2044.32  2049.80  2071.83
                             2093.69  2129.64  2160.40  2173.83  2180.58
                             2180.74  2192.29  2206.93  2207.28  2220.49
                             2232.38  2241.42  2250.54  2364.74  2390.16
                             2415.21  2452.98  4339.58  4350.07  4351.70
                             4356.55  4386.17  4396.29  4398.24  4399.20
                             4424.58  4429.86  4439.22  4474.46  4478.28
                             4481.37  4527.44  4559.91  4584.97  4605.96
                             4616.42  5085.95  5137.74  5243.03  5344.60

 Zero-point correction=                           0.369173 (Hartree/Particle)
 Thermal correction to Energy=                    0.387862
 Thermal correction to Enthalpy=                  0.388806
 Thermal correction to Gibbs Free Energy=         0.322905
 Sum of electronic and zero-point Energies=           -824.582860
 Sum of electronic and thermal Energies=              -824.564172
 Sum of electronic and thermal Enthalpies=            -824.563227
 Sum of electronic and thermal Free Energies=         -824.629128

                     E (Thermal)             CV                S
                      KCal/Mol        Cal/Mol-Kelvin    Cal/Mol-Kelvin
 Total                  243.387             74.664            138.700
 Electronic               0.000              0.000              0.000
 Translational            0.889              2.981             42.580
 Rotational               0.889              2.981             33.688
 Vibrational            241.609             68.702             62.432
 Vibration     1          0.593              1.984              5.927
 Vibration     2          0.594              1.981              5.186
 Vibration     3          0.595              1.978              4.879
 Vibration     4          0.599              1.965              3.991
 Vibration     5          0.604              1.948              3.438
 Vibration     6          0.614              1.916              2.839
 Vibration     7          0.623              1.886              2.496
 Vibration     8          0.627              1.874              2.390
 Vibration     9          0.633              1.854              2.232
 Vibration    10          0.640              1.832              2.083
 Vibration    11          0.664              1.760              1.720
 Vibration    12          0.666              1.753              1.691
 Vibration    13          0.680              1.711              1.534
 Vibration    14          0.690              1.681              1.439
 Vibration    15          0.693              1.673              1.414
 Vibration    16          0.700              1.653              1.357
 Vibration    17          0.709              1.625              1.285
 Vibration    18          0.714              1.612              1.251
 Vibration    19          0.723              1.587              1.193
 Vibration    20          0.750              1.513              1.039
 Vibration    21          0.758              1.492              1.000
 Vibration    22          0.780              1.434              0.903
 Vibration    23          0.785              1.420              0.881
 Vibration    24          0.795              1.396              0.846
 Vibration    25          0.820              1.333              0.759
 Vibration    26          0.827              1.316              0.737
 Vibration    27          0.858              1.243              0.650
 Vibration    28          0.896              1.159              0.563
 Vibration    29          0.929              1.090              0.498
 Vibration    30          0.966              1.017              0.438

 Optimization completed.
    -- Stationary point found.
 Normal termination of Gaussian 16 at Thu Dec 17 20:46:26 2020.

 ----------------------------------------------------------------------
 # B3LYP/6-311++G(d,p) empiricaldispersion=gd3bj scf=xqc pop=npa geom=c
 heck
 ----------------------------------------------------------------------

 --------------------------------------
 CID_77061907_JID_9118_Energie_neutraal
 --------------------------------------
 Structure from the checkpoint file:  "JID_9118.chk"
 Charge =  0 Multiplicity = 1

 SCF Done:  E(RB3LYP) =  -825.189300838     A.U. after   16 cycles
 Normal termination of Gaussian 16 at Thu Dec 17 20:57:54 2020.

 ----------------------------------------------------------------------
 # B3LYP/6-311++G(d,p) empiricaldispersion=gd3bj scf=xqc pop=npa geom=c
 heck
 ----------------------------------------------------------------------

 ------------------------------------
 CID_77061907_JID_9118_Energie_kation
 ------------------------------------
 Structure from the checkpoint file:  "JID_9118.chk"
 Charge =  1 Multiplicity = 2

 SCF Done:  E(UB3LYP) =  -824.935779884     A.U. after   24 cycles
 Normal termination of Gaussian 16 at Thu Dec 17 21:22:53 2020.
 Gaussian 16:  ES64L-G16RevA.03 25-Dec-2016

 ----------------------------------------------------------------------
 # B3LYP/6-311++G(d,p) empiricaldispersion=gd3bj scf=xqc pop=npa geom=c
 heck
 ----------------------------------------------------------------------

 -----------------------------------
 CID_77061907_JID_9118_Energie_anion
 -----------------------------------
 Structure from the checkpoint file:  "JID_9118.chk"
 Charge = -1 Multiplicity = 2

                         Standard orientation:
 ---------------------------------------------------------------------
 Center     Atomic      Atomic             Coordinates (Angstroms)
 Number     Number       Type             X           Y           Z
 ---------------------------------------------------------------------
      1          6           0        3.157818   -1.161280    1.651206
      2          6           0        3.369002   -0.543432    0.252552
      3          6           0        4.868628   -0.717459   -0.083187
      4          6           0        2.585002   -1.333372   -0.842294
      5          6           0        1.058258   -1.437336   -0.763249
      6          7           0        0.404944   -0.240613   -1.290641
      7          6           0       -0.896834    0.049779   -0.885781
      8          6           0       -1.823230   -0.965846   -0.582402
      9          6           0       -3.111748   -0.621091   -0.189644
     10          6           0       -3.512563    0.716700   -0.086300
     11          6           0       -4.960986    0.809508    0.341403
     12          6           0       -5.240741   -0.603496    0.912151
     13          6           0       -4.262762   -1.539845    0.160350
     14          6           0       -2.601248    1.727442   -0.383454
     15          6           0       -1.303751    1.397144   -0.773404
     16          6           0        2.989720    0.951211    0.229057
     17          7           0        1.926142    1.539402    0.667947
     18          8           0        1.057065    0.694769    1.402016
     19          7           0        3.925757    1.826732   -0.324828
     20          1           0        3.504449   -2.201469    1.637760
     21          1           0        2.118258   -1.136163    1.967434
     22          1           0        3.748552   -0.618852    2.397299
     23          1           0        5.141091   -1.770842    0.037589
     24          1           0        5.105252   -0.447928   -1.119608
     25          1           0        5.499272   -0.120039    0.580032
     26          1           0        2.848609   -0.928286   -1.829719
     27          1           0        2.987465   -2.353632   -0.818488
     28          1           0        0.749895   -2.303520   -1.363388
     29          1           0        0.741568   -1.633002    0.270012
     30          1           0        0.997965    0.575174   -1.200259
     31          1           0       -1.531942   -2.008914   -0.656014
     32          1           0       -5.610186    1.014545   -0.523177
     33          1           0       -5.150500    1.603819    1.072697
     34          1           0       -4.995583   -0.613515    1.980745
     35          1           0       -6.287059   -0.907420    0.810141
     36          1           0       -3.959137   -2.407115    0.757511
     37          1           0       -4.725595   -1.932495   -0.757118
     38          1           0       -2.885991    2.773973   -0.301225
     39          1           0       -0.582858    2.182265   -0.990912
     40          1           0        0.208410    1.161302    1.316980
     41          1           0        4.387766    1.500289   -1.164123
     42          1           0        3.548478    2.763272   -0.429674
 ---------------------------------------------------------------------

 SCF Done:  E(UB3LYP) =  -825.177685167     A.U. after   33 cycles
 SCF Done:  E(UB3LYP) =  -825.177685166     a.u. after    1 cycles

 The electronic state is 2-A.
 Alpha  occ. eigenvalues --  -19.05729 -14.24567 -14.22442 -14.21943 -10.14950
 Alpha  occ. eigenvalues --  -10.11938 -10.11088 -10.10535 -10.08818 -10.08801
 Alpha  occ. eigenvalues --  -10.08745 -10.08615 -10.08536 -10.08325 -10.07729
 Alpha  occ. eigenvalues --  -10.07709 -10.07539 -10.06656 -10.06554  -0.97663
 Alpha  occ. eigenvalues --   -0.84480  -0.83984  -0.77806  -0.73415  -0.71937
 Alpha  occ. eigenvalues --   -0.71301  -0.66648  -0.64951  -0.61431  -0.59926
 Alpha  occ. eigenvalues --   -0.59448  -0.55114  -0.52857  -0.50695  -0.49600
 Alpha  occ. eigenvalues --   -0.48744  -0.46918  -0.43068  -0.42100  -0.40164
 Alpha  occ. eigenvalues --   -0.39419  -0.39083  -0.38680  -0.37665  -0.36900
 Alpha  occ. eigenvalues --   -0.35837  -0.34883  -0.33459  -0.32876  -0.32139
 Alpha  occ. eigenvalues --   -0.31799  -0.31402  -0.30978  -0.29338  -0.28957
 Alpha  occ. eigenvalues --   -0.28229  -0.27747  -0.27423  -0.26784  -0.26581
 Alpha  occ. eigenvalues --   -0.25927  -0.25351  -0.24580  -0.24179  -0.23477
 Alpha  occ. eigenvalues --   -0.22532  -0.19263  -0.17472  -0.15983  -0.13015
 Alpha  occ. eigenvalues --   -0.10781   0.04094
 Alpha virt. eigenvalues --    0.05229   0.06451   0.06617   0.07157   0.07436
 Alpha virt. eigenvalues --    0.08085   0.08413   0.08908   0.09143   0.09416
 Alpha virt. eigenvalues --    0.09528   0.09917   0.10112   0.10461   0.10852

  Beta  occ. eigenvalues --  -19.05722 -14.24552 -14.22384 -14.21938 -10.14945
  Beta  occ. eigenvalues --  -10.11937 -10.11085 -10.10529 -10.08808 -10.08789
  Beta  occ. eigenvalues --  -10.08731 -10.08612 -10.08523 -10.08301 -10.07722
  Beta  occ. eigenvalues --  -10.07710 -10.07529 -10.06609 -10.06538  -0.97649
  Beta  occ. eigenvalues --   -0.84429  -0.83966  -0.77792  -0.73373  -0.71894
  Beta  occ. eigenvalues --   -0.71280  -0.66628  -0.64923  -0.61407  -0.59899
  Beta  occ. eigenvalues --   -0.59390  -0.55067  -0.52805  -0.50654  -0.49566
  Beta  occ. eigenvalues --   -0.48730  -0.46851  -0.43037  -0.42054  -0.40149
  Beta  occ. eigenvalues --   -0.39367  -0.39049  -0.38659  -0.37640  -0.36860
  Beta  occ. eigenvalues --   -0.35815  -0.34849  -0.33440  -0.32850  -0.32120
  Beta  occ. eigenvalues --   -0.31770  -0.31372  -0.30941  -0.29305  -0.28926
  Beta  occ. eigenvalues --   -0.28204  -0.27716  -0.27392  -0.26760  -0.26546
  Beta  occ. eigenvalues --   -0.25908  -0.25325  -0.24551  -0.24162  -0.23441
  Beta  occ. eigenvalues --   -0.22493  -0.19240  -0.17431  -0.15935  -0.12969
  Beta  occ. eigenvalues --   -0.10759
  Beta virt. eigenvalues --    0.05659   0.06600   0.06653   0.06946   0.07589
  Beta virt. eigenvalues --    0.07776   0.08202   0.08564   0.09192   0.09390
  Beta virt. eigenvalues --    0.09548   0.09814   0.10006   0.10292   0.10745

 Mulliken charges and spin densities:
               1          2
     1  C    0.092207  -0.736600
     2  C   -0.569565   1.543785
     3  C    1.759251  -2.247233
     4  C    0.075031  -0.788131
     5  C   -0.674149   0.428172
     6  N    0.190724  -0.039084
     7  C   -0.249072  -0.123569
     8  C   -0.394803   0.433058
     9  C    0.353429   0.026212
    10  C    0.293608  -0.486770
    11  C    0.009536  -0.611705
    12  C   -0.081481  -0.338975
    13  C   -0.155424  -0.158823
    14  C   -0.480336   0.266560
    15  C   -0.170016   0.126510
    16  C    0.106704  -0.875458
    17  N   -0.400192  -0.000953
    18  O    0.031226  -0.005787
    19  N   -0.393548   0.194003
    20  H    0.030160   0.116755
    21  H    0.092635   0.063049
    22  H    0.058748   0.098630
    23  H   -0.094986   0.230419
    24  H   -0.640085   0.796831
    25  H   -0.091766   0.279933
    26  H    0.039875   0.149616
    27  H   -0.108965   0.288718
    28  H   -0.186535   0.361494
    29  H    0.191536  -0.073627
    30  H    0.166994   0.129996
    31  H    0.117419   0.017737
    32  H    0.041887   0.105843
    33  H    0.062862   0.077363
    34  H    0.114693   0.025092
    35  H   -0.163062   0.316688
    36  H    0.019153   0.130129
    37  H   -0.003026   0.168623
    38  H    0.049119   0.110881
    39  H    0.011661   0.155918
    40  H    0.285676  -0.020245
    41  H   -0.281675   0.538772
    42  H   -0.055445   0.326173
 Sum of Mulliken charges =  -1.00000   1.00000

 Dipole moment (field-independent basis, Debye):
    X=             -6.4029    Y=             -0.5571    Z=              3.5361  Tot=              7.3357
 Quadrupole moment (field-independent basis, Debye-Ang):
   XX=           -240.5832   YY=           -152.2376   ZZ=           -154.2608
   XY=             -9.4257   XZ=             11.6467   YZ=              0.9556

 Summary of Natural Population Analysis:

                                       Natural Population
                Natural  -----------------------------------------------
    Atom  No    Charge         Core      Valence    Rydberg      Total
 -----------------------------------------------------------------------
      C    1   -0.28480      0.99962     2.27811    0.00707     3.28480
      C    2   -0.06613      0.99953     2.05318    0.01342     3.06613
      C    3   -0.28491      0.99964     2.27690    0.00837     3.28491
      C    4   -0.18925      0.99958     2.17871    0.01096     3.18925
      C    5   -0.08876      0.99961     2.07791    0.01125     3.08876
      N    6   -0.31738      0.99967     2.80686    0.01085     3.81738
      C    7    0.09734      0.99950     1.89130    0.01186     2.90266
      C    8   -0.12835      0.99947     2.12153    0.00736     3.12835
      C    9   -0.01796      0.99952     2.00424    0.01420     3.01796
      C   10    0.00535      0.99947     1.99007    0.00512     2.99465
      C   11   -0.20651      0.99964     2.19552    0.01135     3.20651
      C   12   -0.18610      0.99965     2.17734    0.00910     3.18610
      C   13   -0.19794      0.99961     2.19039    0.00794     3.19794
      C   14   -0.10721      0.99956     2.09305    0.01461     3.10721
      C   15   -0.13502      0.99953     2.12667    0.00882     3.13502
      C   16    0.20932      0.99955     1.76965    0.02147     2.79068
      N   17   -0.14164      0.99958     2.62802    0.01403     3.64164
      O   18   -0.29542      0.99990     3.28902    0.00650     4.29542
      N   19   -0.39433      0.99971     2.88452    0.01010     3.89433
      H   20    0.09653      0.00000     0.40267    0.00080     0.40347
      H   21    0.11432      0.00000     0.38455    0.00114     0.38568
      H   22    0.10138      0.00000     0.39783    0.00079     0.39862
      H   23    0.10162      0.00000     0.39715    0.00124     0.39838
      H   24    0.10327      0.00000     0.39413    0.00261     0.39673
      H   25    0.10670      0.00000     0.39204    0.00127     0.39330
      H   26    0.10493      0.00000     0.39308    0.00199     0.39507
      H   27    0.10402      0.00000     0.39486    0.00111     0.39598
      H   28    0.09140      0.00000     0.40732    0.00128     0.40860
      H   29    0.09463      0.00000     0.40387    0.00150     0.40537
      H   30    0.18802      0.00000     0.30756    0.00442     0.31198
      H   31    0.10295      0.00000     0.39572    0.00132     0.39705
      H   32    0.09821      0.00000     0.40050    0.00128     0.40179
      H   33    0.09940      0.00000     0.39944    0.00116     0.40060
      H   34    0.09422      0.00000     0.40468    0.00109     0.40578
      H   35    0.09836      0.00000     0.40047    0.00117     0.40164
      H   36    0.10183      0.00000     0.39721    0.00097     0.39817
      H   37    0.10151      0.00000     0.39727    0.00122     0.39849
      H   38    0.09857      0.00000     0.40050    0.00093     0.40143
      H   39    0.10477      0.00000     0.39412    0.00110     0.39523
      H   40    0.23861      0.00000     0.25826    0.00313     0.26139
      H   41    0.19449      0.00000     0.29837    0.00714     0.30551
      H   42    0.19006      0.00000     0.30715    0.00279     0.30994
 =======================================================================
   * Total *    0.00008     18.99233    51.76171    0.24587    70.99992

 Normal termination of Gaussian 16 at Thu Dec 17 21:56:13 2020.
