 Gaussian 16, Revision A.03,

 -----------------------------------------------------------
 # opt freq B3LYP/6-31G(d) empiricaldispersion=gd3bj scf=xqc
 -----------------------------------------------------------

 ------------------------------
 CID_90487889_JID_8877_neutraal
 ------------------------------
 Symbolic Z-matrix:
 Charge =  0 Multiplicity = 1

 SCF Done:  E(RB3LYP) =  -842.899793537     A.U. after   15 cycles
 SCF Done:  E(RB3LYP) =  -842.906451427     A.U. after   13 cycles
 SCF Done:  E(RB3LYP) =  -842.907260574     A.U. after   12 cycles
 SCF Done:  E(RB3LYP) =  -842.907820328     A.U. after   12 cycles
 SCF Done:  E(RB3LYP) =  -842.908264406     A.U. after   12 cycles
 SCF Done:  E(RB3LYP) =  -842.908316455     A.U. after   11 cycles
 SCF Done:  E(RB3LYP) =  -842.908363748     A.U. after   10 cycles
 SCF Done:  E(RB3LYP) =  -842.908366811     A.U. after    8 cycles
 SCF Done:  E(RB3LYP) =  -842.908369521     A.U. after    8 cycles
 SCF Done:  E(RB3LYP) =  -842.908370374     A.U. after    8 cycles
 SCF Done:  E(RB3LYP) =  -842.908370609     A.U. after    7 cycles
 Optimization completed.
    -- Stationary point found.
 Normal termination of Gaussian 16 at Fri Dec 11 22:16:54 2020.

 --------------------------------------------------------------------
 #N Geom=AllCheck Guess=TCheck SCRF=Check GenChk RB3LYP/6-31G(d) Freq
 --------------------------------------------------------------------

 Structure from the checkpoint file:  "JID_8877.chk"
 ------------------------------
 CID_90487889_JID_8877_neutraal
 ------------------------------
 Charge =  0 Multiplicity = 1

 SCF Done:  E(RB3LYP) =  -842.908370609     A.U. after    1 cycles

  Exact polarizability: 265.958  10.099 171.572   6.376   3.476  73.010
 Approx polarizability: 371.960  17.087 315.300  14.339   8.659 109.269

                      1                      2                      3
                      A                      A                      A
 Frequencies --     40.6316                51.3104                71.7207
 Red. masses --      4.0074                 3.1943                 3.5912
 Frc consts  --      0.0039                 0.0050                 0.0109
 IR Inten    --      1.6197                 0.1727                 0.3997

                      4                      5                      6
                      A                      A                      A
 Frequencies --    101.0494               112.5350               125.9652
 Red. masses --      4.8002                 5.8114                 4.0995
 Frc consts  --      0.0289                 0.0434                 0.0383
 IR Inten    --      0.2851                 2.8007                 3.7087

                      7                      8                      9
                      A                      A                      A
 Frequencies --    135.0218               202.5227               202.6419
 Red. masses --      4.0471                 2.7091                 2.0260
 Frc consts  --      0.0435                 0.0655                 0.0490
 IR Inten    --      1.0552                 0.3377                 0.7084

                     10                     11                     12
                      A                      A                      A
 Frequencies --    247.2639               254.8706               270.3268
 Red. masses --      1.7981                 2.4653                 2.2225
 Frc consts  --      0.0648                 0.0944                 0.0957
 IR Inten    --      1.1412                 0.6942                 0.6181

                     13                     14                     15
                      A                      A                      A
 Frequencies --    282.9383               310.7407               326.5329
 Red. masses --      4.1672                 2.8476                 3.2831
 Frc consts  --      0.1966                 0.1620                 0.2062
 IR Inten    --      0.3537                 0.1602                 3.9063

                     16                     17                     18
                      A                      A                      A
 Frequencies --    357.7710               398.8077               432.7927
 Red. masses --      4.2506                 5.5393                 4.7997
 Frc consts  --      0.3206                 0.5191                 0.5297
 IR Inten    --      7.6964                13.6141                 1.8296

                     19                     20                     21
                      A                      A                      A
 Frequencies --    471.3006               486.8189               514.9467
 Red. masses --      5.0074                 3.8251                 5.7878
 Frc consts  --      0.6553                 0.5341                 0.9042
 IR Inten    --      7.7503                 1.2803                 1.4348

                     22                     23                     24
                      A                      A                      A
 Frequencies --    540.1455               546.3425               601.9772
 Red. masses --      7.5547                 5.4002                 4.1160
 Frc consts  --      1.2986                 0.9497                 0.8788
 IR Inten    --     10.7371                 0.2871                 2.1511

                     25                     26                     27
                      A                      A                      A
 Frequencies --    621.4335               628.1428               693.2442
 Red. masses --      7.0557                 4.5474                 5.2038
 Frc consts  --      1.6054                 1.0571                 1.4735
 IR Inten    --      0.7041                18.0317                 3.4357

                     28                     29                     30
                      A                      A                      A
 Frequencies --    704.9802               737.1048               773.8064
 Red. masses --      5.5012                 2.2537                 2.1460
 Frc consts  --      1.6109                 0.7214                 0.7571
 IR Inten    --      4.8221                 0.1618                28.2918

                     31                     32                     33
                      A                      A                      A
 Frequencies --    778.5111               805.6853               819.2197
 Red. masses --      2.2212                 1.1305                 2.3190
 Frc consts  --      0.7932                 0.4324                 0.9170
 IR Inten    --      7.4880               140.3280                10.9435

                     34                     35                     36
                      A                      A                      A
 Frequencies --    820.9748               835.3423               859.7764
 Red. masses --      2.1706                 2.1500                 3.3372
 Frc consts  --      0.8620                 0.8839                 1.4535
 IR Inten    --      9.9475                 2.2307                 2.2849

                     37                     38                     39
                      A                      A                      A
 Frequencies --    885.4875               887.0896               924.7963
 Red. masses --      3.0337                 1.4279                 4.9069
 Frc consts  --      1.4015                 0.6620                 2.4726
 IR Inten    --      2.0887                 1.1395                31.2734

                     40                     41                     42
                      A                      A                      A
 Frequencies --    966.0540               969.7102               969.9158
 Red. masses --      1.2559                 3.5095                 1.2646
 Frc consts  --      0.6906                 1.9444                 0.7009
 IR Inten    --      0.0401                 7.5506                 0.7505

                     43                     44                     45
                      A                      A                      A
 Frequencies --   1055.7402              1110.9792              1111.9628
 Red. masses --      4.2932                 2.2384                 3.9749
 Frc consts  --      2.8193                 1.6278                 2.8957
 IR Inten    --     88.6088                26.9328                66.4621

                     46                     47                     48
                      A                      A                      A
 Frequencies --   1132.1230              1186.4435              1187.1947
 Red. masses --      1.9855                 2.0477                 1.2719
 Frc consts  --      1.4993                 1.6983                 1.0562
 IR Inten    --     32.1253               146.5213                 0.9621

                     49                     50                     51
                      A                      A                      A
 Frequencies --   1188.5056              1213.0696              1215.9483
 Red. masses --      1.4024                 1.4715                 1.9037
 Frc consts  --      1.1672                 1.2758                 1.6584
 IR Inten    --     25.0410                 9.2620               140.0637

                     52                     53                     54
                      A                      A                      A
 Frequencies --   1228.9200              1254.5043              1286.0730
 Red. masses --      1.4832                 2.3920                 2.5580
 Frc consts  --      1.3197                 2.2180                 2.4927
 IR Inten    --     21.3035                28.4552                92.2477

                     55                     56                     57
                      A                      A                      A
 Frequencies --   1306.2682              1312.0505              1343.9388
 Red. masses --      2.6702                 3.1448                 1.1293
 Frc consts  --      2.6844                 3.1896                 1.2018
 IR Inten    --    299.8917               394.9498                25.7243

                     58                     59                     60
                      A                      A                      A
 Frequencies --   1385.8407              1420.9970              1431.9365
 Red. masses --      2.9891                 2.1444                 1.9275
 Frc consts  --      3.3823                 2.5511                 2.3285
 IR Inten    --    174.1103                 6.0832               212.8821

                     61                     62                     63
                      A                      A                      A
 Frequencies --   1440.2811              1448.8219              1460.8806
 Red. masses --      2.9393                 1.5930                 3.0530
 Frc consts  --      3.5924                 1.9702                 3.8389
 IR Inten    --     18.9565                69.4108                76.5580

                     64                     65                     66
                      A                      A                      A
 Frequencies --   1485.5327              1509.2618              1515.1822
 Red. masses --      2.0135                 1.5169                 1.3204
 Frc consts  --      2.6180                 2.0358                 1.7860
 IR Inten    --    109.9174                50.4422                31.4512

                     67                     68                     69
                      A                      A                      A
 Frequencies --   1516.6517              1520.2489              1520.6083
 Red. masses --      1.3513                 1.0476                 1.1961
 Frc consts  --      1.8314                 1.4265                 1.6295
 IR Inten    --     12.6787                 5.6915                28.8085

                     70                     71                     72
                      A                      A                      A
 Frequencies --   1535.2290              1538.2171              1560.9954
 Red. masses --      1.0936                 1.0642                 3.4987
 Frc consts  --      1.5186                 1.4835                 5.0230
 IR Inten    --     41.9237                11.6082               109.5682

                     73                     74                     75
                      A                      A                      A
 Frequencies --   1638.3243              1658.6402              1685.9324
 Red. masses --      4.7679                 5.5512                 5.6361
 Frc consts  --      7.5401                 8.9979                 9.4387
 IR Inten    --     41.6335                97.0452                72.8817

                     76                     77                     78
                      A                      A                      A
 Frequencies --   1723.5887              3027.5752              3063.0430
 Red. masses --      6.8524                 1.0345                 1.0363
 Frc consts  --     11.9938                 5.5871                 5.7285
 IR Inten    --    218.2511                65.3758                19.5612

                     79                     80                     81
                      A                      A                      A
 Frequencies --   3087.0655              3098.7028              3129.7427
 Red. masses --      1.1067                 1.0592                 1.1014
 Frc consts  --      6.2139                 5.9921                 6.3565
 IR Inten    --     41.2912                30.8241                29.8663

                     82                     83                     84
                      A                      A                      A
 Frequencies --   3143.3858              3161.0431              3162.8906
 Red. masses --      1.1040                 1.1000                 1.1080
 Frc consts  --      6.4271                 6.4761                 6.5307
 IR Inten    --      6.7220                23.0703                27.7940

                     85                     86                     87
                      A                      A                      A
 Frequencies --   3196.5962              3228.9992              3230.4284
 Red. masses --      1.0885                 1.0873                 1.0906
 Frc consts  --      6.5534                 6.6792                 6.7055
 IR Inten    --     15.6486                 1.1254                15.1913

                     88                     89                     90
                      A                      A                      A
 Frequencies --   3241.8845              3246.3518              3308.0343
 Red. masses --      1.0932                 1.0946                 1.0679
 Frc consts  --      6.7691                 6.7970                 6.8852
 IR Inten    --      5.1128                 5.1427               430.6645

 - Thermochemistry -
 -------------------
 Temperature   298.150 Kelvin.  Pressure   1.00000 Atm.
 Atom     1 has atomic number  6 and mass  12.00000

 Molecular mass:   246.08921 amu.
 Principal axes and moments of inertia in atomic units:
                           1         2         3
     Eigenvalues --  1800.484518481.58097**********
           X            0.99999   0.00295  -0.00372
           Y           -0.00295   0.99999  -0.00130
           Z            0.00372   0.00131   0.99999
 This molecule is an asymmetric top.
 Rotational symmetry number  1.
 Warning -- assumption of classical behavior for rotation
           may cause significant error
 Rotational temperatures (Kelvin)      0.04811     0.01021     0.00859
 Rotational constants (GHZ):           1.00236     0.21278     0.17908
 Zero-point vibrational energy     677235.2 (Joules/Mol)
                                  161.86310 (Kcal/Mol)
 Warning -- explicit consideration of  24 degrees of freedom as
           vibrations may cause significant error
 Vibrational temperatures:     58.46    73.82   103.19   145.39   161.91
          (Kelvin)            181.24   194.27   291.39   291.56   355.76
                              366.70   388.94   407.09   447.09   469.81
                              514.75   573.80   622.69   678.10   700.42
                              740.89   777.15   786.07   866.11   894.10
                              903.76   997.42  1014.31  1060.53  1113.33
                             1120.10  1159.20  1178.67  1181.20  1201.87
                             1237.03  1274.02  1276.32  1330.58  1389.94
                             1395.20  1395.49  1518.97  1598.45  1599.87
                             1628.87  1707.03  1708.11  1709.99  1745.34
                             1749.48  1768.14  1804.95  1850.37  1879.43
                             1887.75  1933.63  1993.92  2044.50  2060.24
                             2072.24  2084.53  2101.88  2137.35  2171.49
                             2180.01  2182.12  2187.30  2187.82  2208.85
                             2213.15  2245.92  2357.18  2386.41  2425.68
                             2479.86  4356.01  4407.04  4441.60  4458.34
                             4503.00  4522.63  4548.04  4550.69  4599.19
                             4645.81  4647.87  4664.35  4670.78  4759.52

 Zero-point correction=                           0.257945 (Hartree/Particle)
 Thermal correction to Energy=                    0.273791
 Thermal correction to Enthalpy=                  0.274735
 Thermal correction to Gibbs Free Energy=         0.214357
 Sum of electronic and zero-point Energies=           -842.650425
 Sum of electronic and thermal Energies=              -842.634580
 Sum of electronic and thermal Enthalpies=            -842.633636
 Sum of electronic and thermal Free Energies=         -842.694014

                     E (Thermal)             CV                S
                      KCal/Mol        Cal/Mol-Kelvin    Cal/Mol-Kelvin
 Total                  171.806             61.069            127.076
 Electronic               0.000              0.000              0.000
 Translational            0.889              2.981             42.402
 Rotational               0.889              2.981             33.398
 Vibrational            170.029             55.107             51.276
 Vibration     1          0.594              1.981              5.228
 Vibration     2          0.596              1.977              4.766
 Vibration     3          0.598              1.967              4.106
 Vibration     4          0.604              1.948              3.434
 Vibration     5          0.607              1.939              3.225
 Vibration     6          0.611              1.927              3.007
 Vibration     7          0.613              1.918              2.873
 Vibration     8          0.639              1.836              2.110
 Vibration     9          0.639              1.836              2.109
 Vibration    10          0.661              1.767              1.750
 Vibration    11          0.665              1.755              1.697
 Vibration    12          0.674              1.728              1.594
 Vibration    13          0.682              1.705              1.516
 Vibration    14          0.700              1.653              1.358
 Vibration    15          0.710              1.622              1.277
 Vibration    16          0.733              1.559              1.132
 Vibration    17          0.765              1.473              0.967
 Vibration    18          0.794              1.399              0.850
 Vibration    19          0.828              1.314              0.734
 Vibration    20          0.843              1.279              0.692
 Vibration    21          0.870              1.217              0.622
 Vibration    22          0.895              1.161              0.565
 Vibration    23          0.902              1.148              0.552
 Vibration    24          0.960              1.028              0.446

 Optimization completed.
    -- Stationary point found.
 Normal termination of Gaussian 16 at Fri Dec 11 22:27:41 2020.

 ----------------------------------------------------------------------
 # B3LYP/6-311++G(d,p) empiricaldispersion=gd3bj scf=xqc pop=npa geom=c
 heck
 ----------------------------------------------------------------------

 --------------------------------------
 CID_90487889_JID_8877_Energie_neutraal
 --------------------------------------
 Structure from the checkpoint file:  "JID_8877.chk"
 Charge =  0 Multiplicity = 1

 SCF Done:  E(RB3LYP) =  -843.143863064     A.U. after   15 cycles
 Normal termination of Gaussian 16 at Fri Dec 11 22:32:57 2020.

 ----------------------------------------------------------------------
 # B3LYP/6-311++G(d,p) empiricaldispersion=gd3bj scf=xqc pop=npa geom=c
 heck
 ----------------------------------------------------------------------

 ------------------------------------
 CID_90487889_JID_8877_Energie_kation
 ------------------------------------
 Structure from the checkpoint file:  "JID_8877.chk"
 Charge =  1 Multiplicity = 2

 SCF Done:  E(UB3LYP) =  -842.874459912     A.U. after   19 cycles
 Normal termination of Gaussian 16 at Fri Dec 11 22:42:13 2020.
 Gaussian 16:  ES64L-G16RevA.03 25-Dec-2016

 ----------------------------------------------------------------------
 # B3LYP/6-311++G(d,p) empiricaldispersion=gd3bj scf=xqc pop=npa geom=c
 heck
 ----------------------------------------------------------------------

 -----------------------------------
 CID_90487889_JID_8877_Energie_anion
 -----------------------------------
 Structure from the checkpoint file:  "JID_8877.chk"
 Charge = -1 Multiplicity = 2

                         Standard orientation:
 ---------------------------------------------------------------------
 Center     Atomic      Atomic             Coordinates (Angstroms)
 Number     Number       Type             X           Y           Z
 ---------------------------------------------------------------------
      1          6           0       -5.341989   -0.789488    1.022394
      2          6           0       -4.754211   -0.933087   -0.371829
      3          8           0       -3.310277   -1.025191   -0.323664
      4          6           0       -2.631608    0.130607   -0.237540
      5          8           0       -3.203713    1.227303   -0.222537
      6          6           0       -1.179192   -0.036740   -0.168250
      7          6           0       -0.373700    1.108135   -0.078773
      8          6           0        1.050483    0.984695   -0.006006
      9          6           0        1.623820   -0.318914   -0.026347
     10          6           0        0.787984   -1.467770   -0.117429
     11          6           0       -0.570674   -1.324160   -0.185850
     12          6           0        3.046292   -0.428573    0.047061
     13          6           0        3.837179    0.702177    0.135219
     14          6           0        3.241650    1.983832    0.153510
     15          6           0        1.876589    2.132712    0.084709
     16          8           0        3.525336   -1.705669    0.022561
     17          6           0        4.928350   -1.891786    0.091678
     18          8           0       -0.875594    2.351090   -0.056773
     19          1           0       -5.017564   -1.613483    1.665829
     20          1           0       -6.436286   -0.804060    0.967023
     21          1           0       -5.031929    0.156833    1.472934
     22          1           0       -5.062179   -1.867760   -0.845478
     23          1           0       -5.031932   -0.091823   -1.010500
     24          1           0        1.245493   -2.448823   -0.131036
     25          1           0       -1.214591   -2.192804   -0.254583
     26          1           0        4.916029    0.621045    0.190939
     27          1           0        3.882515    2.857887    0.223228
     28          1           0        1.414244    3.111950    0.098153
     29          1           0        5.437387   -1.418926   -0.758305
     30          1           0        5.340012   -1.490102    1.026762
     31          1           0        5.089870   -2.970357    0.057484
     32          1           0       -1.862935    2.260304   -0.114434
 ---------------------------------------------------------------------

 SCF Done:  E(UB3LYP) =  -843.151364848     A.U. after   28 cycles

 The electronic state is 2-A.
 Alpha  occ. eigenvalues --  -19.03972 -19.02596 -18.99239 -18.95593 -10.13532
 Alpha  occ. eigenvalues --  -10.12799 -10.11569 -10.09877 -10.07886 -10.06198
 Alpha  occ. eigenvalues --  -10.04258 -10.03667 -10.03458 -10.03407 -10.03223
 Alpha  occ. eigenvalues --  -10.02662 -10.02417 -10.02344  -0.96655  -0.95659
 Alpha  occ. eigenvalues --   -0.91606  -0.86814  -0.73050  -0.68639  -0.66085
 Alpha  occ. eigenvalues --   -0.64418  -0.61351  -0.59804  -0.57196  -0.54677
 Alpha  occ. eigenvalues --   -0.50185  -0.48519  -0.45893  -0.44193  -0.41139
 Alpha  occ. eigenvalues --   -0.41012  -0.38954  -0.36845  -0.36361  -0.35735
 Alpha  occ. eigenvalues --   -0.35662  -0.33819  -0.33340  -0.32195  -0.30464
 Alpha  occ. eigenvalues --   -0.30339  -0.29549  -0.28479  -0.27449  -0.26829
 Alpha  occ. eigenvalues --   -0.26361  -0.25649  -0.25009  -0.24675  -0.22929
 Alpha  occ. eigenvalues --   -0.22274  -0.21593  -0.20151  -0.19239  -0.18502
 Alpha  occ. eigenvalues --   -0.17643  -0.13822  -0.11688  -0.11343  -0.06933
 Alpha  occ. eigenvalues --    0.04529
 Alpha virt. eigenvalues --    0.06909   0.07038   0.09036   0.09522   0.09978
 Alpha virt. eigenvalues --    0.10360   0.10446   0.10898   0.11362   0.11622
 Alpha virt. eigenvalues --    0.12677   0.13446   0.13603   0.14393   0.15225

  Beta  occ. eigenvalues --  -19.03962 -19.02510 -18.99122 -18.95293 -10.13212
  Beta  occ. eigenvalues --  -10.12798 -10.11572 -10.09881 -10.07536 -10.06177
  Beta  occ. eigenvalues --  -10.04341 -10.03495 -10.03413 -10.03215 -10.03191
  Beta  occ. eigenvalues --  -10.02508 -10.02454 -10.02294  -0.96329  -0.95638
  Beta  occ. eigenvalues --   -0.91311  -0.86340  -0.72796  -0.68407  -0.65987
  Beta  occ. eigenvalues --   -0.64251  -0.61040  -0.59548  -0.56968  -0.54434
  Beta  occ. eigenvalues --   -0.49758  -0.48422  -0.45775  -0.43956  -0.41019
  Beta  occ. eigenvalues --   -0.40892  -0.38825  -0.36806  -0.36292  -0.35590
  Beta  occ. eigenvalues --   -0.35340  -0.33588  -0.32946  -0.32095  -0.30279
  Beta  occ. eigenvalues --   -0.30180  -0.29225  -0.27734  -0.27356  -0.26597
  Beta  occ. eigenvalues --   -0.25921  -0.25478  -0.24855  -0.23860  -0.22828
  Beta  occ. eigenvalues --   -0.22152  -0.21411  -0.19775  -0.19151  -0.18019
  Beta  occ. eigenvalues --   -0.16598  -0.13548  -0.10744  -0.10445  -0.05923
  Beta virt. eigenvalues --    0.06885   0.07084   0.09007   0.09451   0.09944
  Beta virt. eigenvalues --    0.09967   0.10388   0.10757   0.10958   0.11308
  Beta virt. eigenvalues --    0.11624   0.12644   0.13374   0.13551   0.14352

 Mulliken charges and spin densities:
               1          2
     1  C   -0.041772  -0.281487
     2  C   -0.272812   0.080713
     3  O   -0.034364   0.017524
     4  C    0.045305   0.146852
     5  O   -0.411111   0.099823
     6  C    0.765251   0.035200
     7  C   -0.455210   0.198064
     8  C    0.248743  -0.017653
     9  C    0.374005   0.103338
    10  C   -0.492888  -0.013725
    11  C   -0.510384   0.054994
    12  C   -0.135904  -0.028450
    13  C   -0.261659   0.176090
    14  C   -0.463235  -0.066022
    15  C   -0.354630   0.140187
    16  O   -0.146700   0.005006
    17  C   -0.276335   0.000395
    18  O   -0.350324   0.038105
    19  H    0.097695   0.031949
    20  H   -0.063898   0.174507
    21  H    0.114039   0.062561
    22  H    0.066550   0.069849
    23  H    0.174796  -0.006515
    24  H    0.124843   0.003927
    25  H    0.142615  -0.003899
    26  H    0.099190  -0.014640
    27  H    0.124163   0.004446
    28  H    0.126660  -0.008668
    29  H    0.132319  -0.000238
    30  H    0.131213   0.000740
    31  H    0.148315  -0.000027
    32  H    0.355523  -0.002948
 Sum of Mulliken charges =  -1.00000   1.00000

 Dipole moment (field-independent basis, Debye):
    X=              2.8660    Y=             -3.0757    Z=              0.0063  Tot=              4.2041
 Quadrupole moment (field-independent basis, Debye-Ang):
   XX=           -143.7269   YY=           -124.0209   ZZ=           -116.5845
   XY=             -1.2457   XZ=              1.9981   YZ=              0.6267

 Summary of Natural Population Analysis:

                                       Natural Population
                Natural  -----------------------------------------------
    Atom  No    Charge         Core      Valence    Rydberg      Total
 -----------------------------------------------------------------------
      C    1   -0.29854      0.99966     2.29460    0.00427     3.29854
      C    2   -0.01621      0.99959     2.00508    0.01154     3.01621
      O    3   -0.27932      0.99986     3.27089    0.00857     4.27932
      C    4    0.44275      0.99962     1.53559    0.02204     2.55725
      O    5   -0.33161      0.99986     3.32565    0.00609     4.33161
      C    6   -0.12459      0.99945     2.11574    0.00940     3.12459
      C    7    0.27141      0.99930     1.71580    0.01348     2.72859
      C    8   -0.05270      0.99950     2.04377    0.00943     3.05270
      C    9    0.00122      0.99938     1.99071    0.00868     2.99878
      C   10   -0.13017      0.99945     2.12117    0.00955     3.13017
      C   11   -0.07038      0.99958     2.06214    0.00865     3.07038
      C   12    0.15630      0.99937     1.83254    0.01179     2.84370
      C   13   -0.11005      0.99945     2.10187    0.00874     3.11005
      C   14   -0.13131      0.99960     2.12142    0.01028     3.13131
      C   15   -0.06702      0.99954     2.05792    0.00956     3.06702
      O   16   -0.27648      0.99985     3.26626    0.01037     4.27648
      C   17   -0.09990      0.99962     2.09179    0.00849     3.09990
      O   18   -0.34215      0.99987     3.33605    0.00623     4.34215
      H   19    0.09668      0.00000     0.40192    0.00139     0.40332
      H   20    0.09357      0.00000     0.40484    0.00160     0.40643
      H   21    0.10859      0.00000     0.38982    0.00158     0.39141
      H   22    0.08209      0.00000     0.41632    0.00159     0.41791
      H   23    0.09341      0.00000     0.40469    0.00190     0.40659
      H   24    0.10285      0.00000     0.39617    0.00098     0.39715
      H   25    0.10016      0.00000     0.39880    0.00104     0.39984
      H   26    0.09082      0.00000     0.40790    0.00128     0.40918
      H   27    0.09041      0.00000     0.40845    0.00114     0.40959
      H   28    0.10334      0.00000     0.39542    0.00125     0.39666
      H   29    0.07998      0.00000     0.41819    0.00183     0.42002
      H   30    0.08002      0.00000     0.41815    0.00183     0.41998
      H   31    0.08631      0.00000     0.41279    0.00089     0.41369
      H   32    0.25058      0.00000     0.24631    0.00310     0.24942
 =======================================================================
   * Total *    0.00008     17.99256    46.80878    0.19858    64.99992

 Normal termination of Gaussian 16 at Fri Dec 11 22:55:57 2020.
