 Gaussian 16, Revision A.03,

 -----------------------------------------------------------
 # opt freq B3LYP/6-31G(d) empiricaldispersion=gd3bj scf=xqc
 -----------------------------------------------------------

 -------------------------------
 CID_106310499_JID_6399_neutraal
 -------------------------------
 Symbolic Z-matrix:
 Charge =  0 Multiplicity = 1

 SCF Done:  E(RB3LYP) =  -1052.28048324     A.U. after   14 cycles
 SCF Done:  E(RB3LYP) =  -1052.01493789     A.U. after   17 cycles
 SCF Done:  E(RB3LYP) =  -1052.28087454     A.U. after   13 cycles
 SCF Done:  E(RB3LYP) =  -1052.28431547     A.U. after   11 cycles
 SCF Done:  E(RB3LYP) =  -1052.28563162     A.U. after   12 cycles
 SCF Done:  E(RB3LYP) =  -1052.28383293     A.U. after   12 cycles
 SCF Done:  E(RB3LYP) =  -1052.28638137     A.U. after   11 cycles
 SCF Done:  E(RB3LYP) =  -1052.28605529     A.U. after   11 cycles
 SCF Done:  E(RB3LYP) =  -1052.28656397     A.U. after   12 cycles
 SCF Done:  E(RB3LYP) =  -1052.28685097     A.U. after   12 cycles
 SCF Done:  E(RB3LYP) =  -1052.29022336     A.U. after   10 cycles
 SCF Done:  E(RB3LYP) =  -1052.29022364     A.U. after    7 cycles
 SCF Done:  E(RB3LYP) =  -1052.29022403     A.U. after    8 cycles
 SCF Done:  E(RB3LYP) =  -1052.29022427     A.U. after    8 cycles
 SCF Done:  E(RB3LYP) =  -1052.29022432     A.U. after    7 cycles
 Optimization completed.
    -- Stationary point found.
 Normal termination of Gaussian 16 at Thu Dec 10 23:09:55 2020.

 --------------------------------------------------------------------
 #N Geom=AllCheck Guess=TCheck SCRF=Check GenChk RB3LYP/6-31G(d) Freq
 --------------------------------------------------------------------

 Structure from the checkpoint file:  "JID_6399.chk"
 -------------------------------
 CID_106310499_JID_6399_neutraal
 -------------------------------
 Charge =  0 Multiplicity = 1

 SCF Done:  E(RB3LYP) =  -1052.29022432     A.U. after    1 cycles

  Exact polarizability: 153.816  21.121 162.078  -6.873  12.629 138.411
 Approx polarizability: 213.037  37.759 245.350 -14.439  23.098 237.572

                      1                      2                      3
                      A                      A                      A
 Frequencies --     12.6812                51.8303                73.4244
 Red. masses --      5.4369                 3.9156                 4.2246
 Frc consts  --      0.0005                 0.0062                 0.0134
 IR Inten    --      0.8823                 0.3765                 2.0243

                      4                      5                      6
                      A                      A                      A
 Frequencies --     75.9708                82.4425                89.0166
 Red. masses --      4.5383                 5.3791                 4.1144
 Frc consts  --      0.0154                 0.0215                 0.0192
 IR Inten    --      0.2993                 0.6412                 2.2416

                      7                      8                      9
                      A                      A                      A
 Frequencies --     99.9079               140.5664               181.8394
 Red. masses --      4.7532                 4.3516                 3.8561
 Frc consts  --      0.0280                 0.0507                 0.0751
 IR Inten    --      4.3673                 2.6807                 4.0063

                     10                     11                     12
                      A                      A                      A
 Frequencies --    203.0332               214.7175               231.2387
 Red. masses --      2.4264                 2.7796                 3.5945
 Frc consts  --      0.0589                 0.0755                 0.1132
 IR Inten    --      3.8599                 1.9655                 0.9169

                     13                     14                     15
                      A                      A                      A
 Frequencies --    253.5196               280.1487               313.8111
 Red. masses --      4.0328                 2.1189                 2.6670
 Frc consts  --      0.1527                 0.0980                 0.1547
 IR Inten    --      0.5580                 0.9676                 0.0559

                     16                     17                     18
                      A                      A                      A
 Frequencies --    361.1203               375.8929               388.4877
 Red. masses --      2.0429                 2.1603                 1.0989
 Frc consts  --      0.1570                 0.1798                 0.0977
 IR Inten    --      7.8367                 8.0562                95.6488

                     19                     20                     21
                      A                      A                      A
 Frequencies --    417.7509               434.6207               484.9936
 Red. masses --      3.4504                 2.1857                 2.4688
 Frc consts  --      0.3548                 0.2433                 0.3421
 IR Inten    --      4.7441                 2.9070                 1.9298

                     22                     23                     24
                      A                      A                      A
 Frequencies --    523.0277               534.2817               595.5961
 Red. masses --      2.3879                 3.5704                 2.8638
 Frc consts  --      0.3849                 0.6005                 0.5985
 IR Inten    --     12.5047                 3.5695                 7.8799

                     25                     26                     27
                      A                      A                      A
 Frequencies --    639.9494               642.3466               677.3300
 Red. masses --      4.4688                 5.5111                 3.6096
 Frc consts  --      1.0783                 1.3398                 0.9757
 IR Inten    --      3.4519                 5.0295                 3.4397

                     28                     29                     30
                      A                      A                      A
 Frequencies --    743.3904               762.2907               768.4728
 Red. masses --      1.5236                 1.5796                 1.7299
 Frc consts  --      0.4961                 0.5408                 0.6019
 IR Inten    --    107.0298                 0.5295                12.2305

                     31                     32                     33
                      A                      A                      A
 Frequencies --    795.1794               809.4422               825.4319
 Red. masses --      2.5728                 2.8083                 1.8026
 Frc consts  --      0.9585                 1.0841                 0.7236
 IR Inten    --     43.6730                 3.0801                 7.5766

                     34                     35                     36
                      A                      A                      A
 Frequencies --    880.7763               887.1590               905.6815
 Red. masses --      2.6678                 2.0639                 1.3185
 Frc consts  --      1.2194                 0.9570                 0.6372
 IR Inten    --      3.9736                10.1694                 2.0397

                     37                     38                     39
                      A                      A                      A
 Frequencies --    934.3562               942.9135               977.4701
 Red. masses --      2.0563                 1.8989                 1.4012
 Frc consts  --      1.0577                 0.9947                 0.7888
 IR Inten    --     10.8838                13.2740                 0.0673

                     40                     41                     42
                      A                      A                      A
 Frequencies --    997.4468              1004.5516              1010.3445
 Red. masses --      2.3378                 1.3620                 2.4807
 Frc consts  --      1.3704                 0.8098                 1.4920
 IR Inten    --      7.0939                 1.9475                10.0517

                     43                     44                     45
                      A                      A                      A
 Frequencies --   1016.3543              1046.0469              1066.2297
 Red. masses --      4.0298                 1.4784                 2.1259
 Frc consts  --      2.4526                 0.9531                 1.4240
 IR Inten    --      0.8400                28.6720                21.1854

                     46                     47                     48
                      A                      A                      A
 Frequencies --   1075.6762              1080.6616              1107.3814
 Red. masses --      2.0364                 2.2670                 3.1322
 Frc consts  --      1.3883                 1.5598                 2.2630
 IR Inten    --      5.4447                 2.3103                16.9477

                     49                     50                     51
                      A                      A                      A
 Frequencies --   1113.7329              1134.6920              1155.5639
 Red. masses --      2.2643                 1.5897                 2.2988
 Frc consts  --      1.6548                 1.2059                 1.8086
 IR Inten    --      4.7943                 2.4760                24.6940

                     52                     53                     54
                      A                      A                      A
 Frequencies --   1172.0463              1186.5033              1212.3887
 Red. masses --      1.1875                 1.1431                 1.2235
 Frc consts  --      0.9611                 0.9481                 1.0596
 IR Inten    --     41.1627                 4.5791                 2.4564

                     55                     56                     57
                      A                      A                      A
 Frequencies --   1221.9154              1231.4001              1261.7697
 Red. masses --      1.3242                 1.1697                 2.1459
 Frc consts  --      1.1649                 1.0450                 2.0129
 IR Inten    --      2.5310                 4.0958                 2.5418

                     58                     59                     60
                      A                      A                      A
 Frequencies --   1264.1709              1309.8451              1314.3739
 Red. masses --      1.2699                 1.6014                 2.2980
 Frc consts  --      1.1958                 1.6188                 2.3391
 IR Inten    --      6.1959                 6.0589                 5.1091

                     61                     62                     63
                      A                      A                      A
 Frequencies --   1322.7682              1341.4702              1350.5198
 Red. masses --      1.3063                 1.2415                 1.3268
 Frc consts  --      1.3467                 1.3164                 1.4258
 IR Inten    --      2.3589                 9.9737                 4.5264

                     64                     65                     66
                      A                      A                      A
 Frequencies --   1365.9504              1374.9261              1383.7872
 Red. masses --      1.2113                 1.5055                 1.2950
 Frc consts  --      1.3316                 1.6769                 1.4611
 IR Inten    --     20.5384                 0.6255                11.8817

                     67                     68                     69
                      A                      A                      A
 Frequencies --   1408.7834              1411.8245              1432.0064
 Red. masses --      1.3074                 1.3006                 1.2781
 Frc consts  --      1.5288                 1.5275                 1.5442
 IR Inten    --     16.4100                 4.6345                 6.5413

                     70                     71                     72
                      A                      A                      A
 Frequencies --   1441.9419              1477.8245              1482.8374
 Red. masses --      1.3049                 2.0161                 1.0948
 Frc consts  --      1.5985                 2.5942                 1.4184
 IR Inten    --     33.6655                23.2852                 8.0795

                     73                     74                     75
                      A                      A                      A
 Frequencies --   1493.0482              1498.6710              1504.8070
 Red. masses --      1.0855                 1.0926                 1.1225
 Frc consts  --      1.4257                 1.4459                 1.4976
 IR Inten    --      3.1675                 1.9472                 6.8548

                     76                     77                     78
                      A                      A                      A
 Frequencies --   1505.0961              1520.1616              1525.5891
 Red. masses --      1.1007                 1.2542                 2.2581
 Frc consts  --      1.4691                 1.7077                 3.0965
 IR Inten    --      4.3419                52.6814                19.8097

                     79                     80                     81
                      A                      A                      A
 Frequencies --   1544.1815              1557.8700              1627.4088
 Red. masses --      1.0828                 1.0840                 5.6323
 Frc consts  --      1.5212                 1.5500                 8.7887
 IR Inten    --      1.4104                 4.1618                17.1523

                     82                     83                     84
                      A                      A                      A
 Frequencies --   1647.6251              2997.1400              3004.0294
 Red. masses --      5.3471                 1.0640                 1.0710
 Frc consts  --      8.5523                 5.6315                 5.6942
 IR Inten    --     39.9022                22.1320                54.4740

                     85                     86                     87
                      A                      A                      A
 Frequencies --   3016.9658              3017.6106              3040.1082
 Red. masses --      1.0685                 1.0691                 1.0947
 Frc consts  --      5.7302                 5.7359                 5.9612
 IR Inten    --    105.5604                14.8447                47.9501

                     88                     89                     90
                      A                      A                      A
 Frequencies --   3069.2233              3071.3342              3077.5604
 Red. masses --      1.0622                 1.0654                 1.0937
 Frc consts  --      5.8952                 5.9211                 6.1033
 IR Inten    --     41.0220                28.9379                24.3975

                     91                     92                     93
                      A                      A                      A
 Frequencies --   3085.4107              3092.0233              3114.2895
 Red. masses --      1.0973                 1.0709                 1.0928
 Frc consts  --      6.1548                 6.0321                 6.2444
 IR Inten    --     22.0607                16.5461                27.8645

                     94                     95                     96
                      A                      A                      A
 Frequencies --   3117.6057              3145.1684              3176.3289
 Red. masses --      1.1047                 1.0990                 1.0891
 Frc consts  --      6.3260                 6.4053                 6.4742
 IR Inten    --     12.0384                 4.1987                16.1273

                     97                     98                     99
                      A                      A                      A
 Frequencies --   3191.1314              3194.8694              3206.6029
 Red. masses --      1.0878                 1.0924                 1.0931
 Frc consts  --      6.5265                 6.5694                 6.6220
 IR Inten    --      4.8927                 1.9168                13.2252

                    100                    101                    102
                      A                      A                      A
 Frequencies --   3218.7955              3523.1535              3718.6398
 Red. masses --      1.0972                 1.0744                 1.0662
 Frc consts  --      6.6978                 7.8573                 8.6868
 IR Inten    --     11.6613                 8.2326                73.7546

 - Thermochemistry -
 -------------------
 Temperature   298.150 Kelvin.  Pressure   1.00000 Atm.
 Atom     1 has atomic number  6 and mass  12.00000

 Molecular mass:   240.12964 amu.
 Principal axes and moments of inertia in atomic units:
                           1         2         3
     Eigenvalues --  3015.076844531.314005732.05967
           X            0.99957   0.02908   0.00440
           Y           -0.02914   0.99949   0.01325
           Z           -0.00401  -0.01337   0.99990
 This molecule is an asymmetric top.
 Rotational symmetry number  1.
 Warning -- assumption of classical behavior for rotation
           may cause significant error
 Rotational temperatures (Kelvin)      0.02873     0.01911     0.01511
 Rotational constants (GHZ):           0.59857     0.39828     0.31485
 Zero-point vibrational energy     824779.1 (Joules/Mol)
                                  197.12693 (Kcal/Mol)
 Warning -- explicit consideration of  24 degrees of freedom as
           vibrations may cause significant error
 Vibrational temperatures:     18.25    74.57   105.64   109.31   118.62
          (Kelvin)            128.08   143.75   202.24   261.63   292.12
                              308.93   332.70   364.76   403.07   451.50
                              519.57   540.83   558.95   601.05   625.32
                              697.80   752.52   768.71   856.93   920.74
                              924.19   974.53  1069.57  1096.77  1105.66
                             1144.09  1164.61  1187.61  1267.24  1276.42
                             1303.07  1344.33  1356.64  1406.36  1435.10
                             1445.33  1453.66  1462.31  1505.03  1534.07
                             1547.66  1554.83  1593.27  1602.41  1632.57
                             1662.60  1686.31  1707.11  1744.36  1758.06
                             1771.71  1815.41  1818.86  1884.57  1891.09
                             1903.17  1930.08  1943.10  1965.30  1978.21
                             1990.96  2026.93  2031.30  2060.34  2074.63
                             2126.26  2133.47  2148.16  2156.25  2165.08
                             2165.50  2187.17  2194.98  2221.73  2241.43
                             2341.48  2370.57  4312.22  4322.13  4340.74
                             4341.67  4374.04  4415.93  4418.96  4427.92
                             4439.22  4448.73  4480.77  4485.54  4525.20
                             4570.03  4591.33  4596.70  4613.59  4631.13
                             5069.03  5350.29

 Zero-point correction=                           0.314142 (Hartree/Particle)
 Thermal correction to Energy=                    0.330926
 Thermal correction to Enthalpy=                  0.331870
 Thermal correction to Gibbs Free Energy=         0.268200
 Sum of electronic and zero-point Energies=          -1051.976083
 Sum of electronic and thermal Energies=             -1051.959298
 Sum of electronic and thermal Enthalpies=           -1051.958354
 Sum of electronic and thermal Free Energies=        -1052.022025

                     E (Thermal)             CV                S
                      KCal/Mol        Cal/Mol-Kelvin    Cal/Mol-Kelvin
 Total                  207.659             63.151            134.007
 Electronic               0.000              0.000              0.000
 Translational            0.889              2.981             42.329
 Rotational               0.889              2.981             32.726
 Vibrational            205.882             57.190             58.951
 Vibration     1          0.593              1.987              7.539
 Vibration     2          0.596              1.977              4.746
 Vibration     3          0.599              1.967              4.059
 Vibration     4          0.599              1.965              3.992
 Vibration     5          0.600              1.961              3.832
 Vibration     6          0.602              1.957              3.682
 Vibration     7          0.604              1.949              3.456
 Vibration     8          0.615              1.913              2.796
 Vibration     9          0.630              1.864              2.309
 Vibration    10          0.639              1.836              2.105
 Vibration    11          0.645              1.819              2.003
 Vibration    12          0.653              1.793              1.869
 Vibration    13          0.665              1.757              1.706
 Vibration    14          0.680              1.710              1.533
 Vibration    15          0.702              1.647              1.342
 Vibration    16          0.735              1.552              1.117
 Vibration    17          0.747              1.521              1.056
 Vibration    18          0.757              1.495              1.006
 Vibration    19          0.781              1.432              0.900
 Vibration    20          0.795              1.395              0.844
 Vibration    21          0.841              1.283              0.697
 Vibration    22          0.878              1.199              0.603
 Vibration    23          0.889              1.174              0.578
 Vibration    24          0.953              1.041              0.457

 Optimization completed.
    -- Stationary point found.
 Normal termination of Gaussian 16 at Thu Dec 10 23:24:54 2020.

 ----------------------------------------------------------------------
 # B3LYP/6-311++G(d,p) empiricaldispersion=gd3bj scf=xqc pop=npa geom=c
 heck
 ----------------------------------------------------------------------

 ---------------------------------------
 CID_106310499_JID_6399_Energie_neutraal
 ---------------------------------------
 Structure from the checkpoint file:  "JID_6399.chk"
 Charge =  0 Multiplicity = 1

 SCF Done:  E(RB3LYP) =  -1052.50699261     A.U. after   15 cycles
 Normal termination of Gaussian 16 at Thu Dec 10 23:31:35 2020.

 ----------------------------------------------------------------------
 # B3LYP/6-311++G(d,p) empiricaldispersion=gd3bj scf=xqc pop=npa geom=c
 heck
 ----------------------------------------------------------------------

 -------------------------------------
 CID_106310499_JID_6399_Energie_kation
 -------------------------------------
 Structure from the checkpoint file:  "JID_6399.chk"
 Charge =  1 Multiplicity = 2

 SCF Done:  E(UB3LYP) =  -1052.23264771     A.U. after   21 cycles
 Normal termination of Gaussian 16 at Thu Dec 10 23:44:23 2020.
 Gaussian 16:  ES64L-G16RevA.03 25-Dec-2016

 ----------------------------------------------------------------------
 # B3LYP/6-311++G(d,p) empiricaldispersion=gd3bj scf=xqc pop=npa geom=c
 heck
 ----------------------------------------------------------------------

 ------------------------------------
 CID_106310499_JID_6399_Energie_anion
 ------------------------------------
 Structure from the checkpoint file:  "JID_6399.chk"
 Charge = -1 Multiplicity = 2

                         Standard orientation:
 ---------------------------------------------------------------------
 Center     Atomic      Atomic             Coordinates (Angstroms)
 Number     Number       Type             X           Y           Z
 ---------------------------------------------------------------------
      1          6           0       -3.210833   -0.932333    0.400291
      2          6           0       -2.958729   -1.291535   -0.924391
      3          6           0       -2.223871   -0.406772   -1.711782
      4          7           0       -1.745256    0.762792   -1.270041
      5          6           0       -1.988364    1.113233    0.005363
      6          6           0       -2.719894    0.284014    0.870662
      7          6           0       -1.388695    2.410921    0.484399
      8          6           0        0.111237    2.275747    0.806372
      9          7           0        0.910503    2.228955   -0.412333
     10          6           0        2.327633    1.978974   -0.196889
     11          6           0        2.747537    0.605135    0.364446
     12         16           0        2.761789   -0.770837   -0.859944
     13          6           0        1.010149   -1.328737   -0.888667
     14          6           0        0.682793   -2.506381    0.031416
     15          6           0        0.850653   -2.203636    1.518013
     16          8           0        0.151311   -1.032563    1.935870
     17          1           0       -3.784737   -1.584507    1.053132
     18          1           0       -3.325282   -2.225221   -1.338644
     19          1           0       -2.000613   -0.647978   -2.749287
     20          1           0       -2.900168    0.598669    1.894342
     21          1           0       -1.512320    3.175971   -0.289025
     22          1           0       -1.914822    2.742489    1.386113
     23          1           0        0.426696    3.160283    1.376994
     24          1           0        0.245679    1.402891    1.465789
     25          1           0        0.505998    1.589862   -1.092254
     26          1           0        2.853720    2.147062   -1.143473
     27          1           0        2.685274    2.745100    0.507589
     28          1           0        3.785939    0.661556    0.710412
     29          1           0        2.130959    0.314939    1.218052
     30          1           0        0.378748   -0.476629   -0.648673
     31          1           0        0.801091   -1.600285   -1.927689
     32          1           0       -0.360643   -2.801469   -0.161698
     33          1           0        1.308394   -3.371102   -0.222872
     34          1           0        0.537256   -3.076552    2.111597
     35          1           0        1.903762   -2.012493    1.743147
     36          1           0       -0.758476   -1.082706    1.599800
 ---------------------------------------------------------------------

 SCF Done:  E(UB3LYP) =  -1052.50074307     A.U. after   33 cycles
 SCF Done:  E(UB3LYP) =  -1052.50074307     a.u. after    1 cycles

 The electronic state is 2-A.
 Alpha  occ. eigenvalues --  -88.72608 -19.01435 -14.16914 -14.14240 -10.11464
 Alpha  occ. eigenvalues --  -10.08383 -10.08235 -10.07994 -10.07061 -10.06517
 Alpha  occ. eigenvalues --  -10.06332 -10.05925 -10.04164 -10.03659 -10.03580
 Alpha  occ. eigenvalues --  -10.02928  -7.81224  -5.77610  -5.77244  -5.76619
 Alpha  occ. eigenvalues --   -0.91533  -0.79813  -0.78157  -0.70294  -0.66498
 Alpha  occ. eigenvalues --   -0.65825  -0.64667  -0.60521  -0.58578  -0.54431
 Alpha  occ. eigenvalues --   -0.51191  -0.49095  -0.48560  -0.46210  -0.45319
 Alpha  occ. eigenvalues --   -0.39134  -0.37757  -0.37142  -0.36979  -0.36296
 Alpha  occ. eigenvalues --   -0.35569  -0.34038  -0.33191  -0.31678  -0.30395
 Alpha  occ. eigenvalues --   -0.29975  -0.29020  -0.27994  -0.27415  -0.27015
 Alpha  occ. eigenvalues --   -0.26598  -0.26350  -0.24933  -0.23599  -0.23045
 Alpha  occ. eigenvalues --   -0.22651  -0.21771  -0.21126  -0.19026  -0.17460
 Alpha  occ. eigenvalues --   -0.15573  -0.12561  -0.12190  -0.11271  -0.09643
 Alpha  occ. eigenvalues --    0.05526
 Alpha virt. eigenvalues --    0.07145   0.07739   0.08652   0.09130   0.09397
 Alpha virt. eigenvalues --    0.10433   0.10612   0.10917   0.11078   0.11850
 Alpha virt. eigenvalues --    0.12029   0.12416   0.12711   0.13375   0.13609

  Beta  occ. eigenvalues --  -88.72607 -19.01433 -14.16912 -14.13720 -10.11462
  Beta  occ. eigenvalues --  -10.08381 -10.08226 -10.07981 -10.07061 -10.06487
  Beta  occ. eigenvalues --  -10.06230 -10.05855 -10.04175 -10.03647 -10.03573
  Beta  occ. eigenvalues --  -10.02501  -7.81224  -5.77610  -5.77242  -5.76618
  Beta  occ. eigenvalues --   -0.91528  -0.79255  -0.78004  -0.70285  -0.66404
  Beta  occ. eigenvalues --   -0.65182  -0.64493  -0.60422  -0.58466  -0.54392
  Beta  occ. eigenvalues --   -0.51079  -0.48949  -0.48178  -0.46120  -0.45025
  Beta  occ. eigenvalues --   -0.39117  -0.37614  -0.37101  -0.36953  -0.36266
  Beta  occ. eigenvalues --   -0.35487  -0.33883  -0.33000  -0.31598  -0.30352
  Beta  occ. eigenvalues --   -0.29857  -0.28942  -0.27972  -0.27329  -0.26964
  Beta  occ. eigenvalues --   -0.26258  -0.25871  -0.24706  -0.23413  -0.22963
  Beta  occ. eigenvalues --   -0.22275  -0.21699  -0.20984  -0.18979  -0.17446
  Beta  occ. eigenvalues --   -0.13397  -0.12236  -0.11486  -0.10692  -0.09614
  Beta virt. eigenvalues --    0.07320   0.08012   0.08732   0.08978   0.09460
  Beta virt. eigenvalues --    0.10533   0.10556   0.10868   0.11074   0.11554
  Beta virt. eigenvalues --    0.11910   0.12051   0.12477   0.12711   0.13354

 Mulliken charges and spin densities:
               1          2
     1  C   -0.549001   0.358188
     2  C   -0.037129   0.055997
     3  C   -0.270107   0.069983
     4  N   -0.102840   0.243265
     5  C    0.239882   0.105585
     6  C   -0.185092  -0.024681
     7  C   -0.518252  -0.238545
     8  C   -0.136903  -0.234612
     9  N   -0.077357   0.030571
    10  C   -0.153751  -0.319779
    11  C   -0.084825  -0.197617
    12  S    0.109920  -0.151620
    13  C    0.223025  -0.028874
    14  C   -0.541881   0.118252
    15  C   -0.498318  -0.056830
    16  O   -0.204004  -0.003995
    17  H    0.107852  -0.006701
    18  H    0.116918   0.002858
    19  H    0.132249  -0.006669
    20  H    0.115123   0.007248
    21  H    0.122903   0.048369
    22  H    0.117351   0.021621
    23  H   -0.362782   0.516942
    24  H    0.187124  -0.073349
    25  H    0.244338   0.018282
    26  H    0.075511   0.076992
    27  H   -0.228128   0.355392
    28  H   -0.209221   0.445956
    29  H    0.202595  -0.029246
    30  H    0.086581  -0.183357
    31  H    0.243561   0.037944
    32  H    0.150429  -0.003185
    33  H    0.101367   0.017875
    34  H    0.122494   0.017171
    35  H    0.110115   0.016471
    36  H    0.350253  -0.005904
 Sum of Mulliken charges =  -1.00000   1.00000

 Dipole moment (field-independent basis, Debye):
    X=             -0.0209    Y=             -4.9630    Z=              0.6573  Tot=              5.0064
 Quadrupole moment (field-independent basis, Debye-Ang):
   XX=           -155.9897   YY=           -138.0700   ZZ=           -128.8961
   XY=             -4.4722   XZ=             -4.9672   YZ=             -0.3482

 Summary of Natural Population Analysis:

                                       Natural Population
                Natural  -----------------------------------------------
    Atom  No    Charge         Core      Valence    Rydberg      Total
 -----------------------------------------------------------------------
      C    1   -0.02466      0.99957     2.01572    0.00937     3.02466
      C    2   -0.13719      0.99956     2.12931    0.00832     3.13719
      C    3    0.03455      0.99960     1.95175    0.01411     2.96545
      N    4   -0.19677      0.99967     2.68492    0.01218     3.69677
      C    5    0.12132      0.99953     1.86399    0.01516     2.87868
      C    6   -0.14320      0.99951     2.13400    0.00969     3.14320
      C    7   -0.20524      0.99959     2.19481    0.01083     3.20524
      C    8   -0.08706      0.99961     2.07556    0.01189     3.08706
      N    9   -0.35195      0.99975     2.83980    0.01240     3.85195
      C   10   -0.09155      0.99961     2.07795    0.01399     3.09155
      C   11   -0.26386      0.99958     2.25324    0.01104     3.26386
      S   12    0.06339      4.99963     2.91955    0.01744     7.93661
      C   13   -0.25706      0.99957     2.24737    0.01012     3.25706
      C   14   -0.21256      0.99961     2.20403    0.00891     3.21256
      C   15   -0.01398      0.99960     2.00127    0.01310     3.01398
      O   16   -0.37747      0.99990     3.37089    0.00668     4.37747
      H   17    0.08729      0.00000     0.41128    0.00143     0.41271
      H   18    0.09278      0.00000     0.40614    0.00108     0.40722
      H   19    0.07998      0.00000     0.41888    0.00114     0.42002
      H   20    0.09568      0.00000     0.40345    0.00087     0.40432
      H   21    0.10646      0.00000     0.39201    0.00153     0.39354
      H   22    0.09629      0.00000     0.40290    0.00081     0.40371
      H   23    0.08589      0.00000     0.41255    0.00157     0.41411
      H   24    0.08956      0.00000     0.40873    0.00171     0.41044
      H   25    0.18789      0.00000     0.30885    0.00325     0.31211
      H   26    0.09302      0.00000     0.40572    0.00125     0.40698
      H   27    0.09054      0.00000     0.40778    0.00169     0.40946
      H   28    0.10162      0.00000     0.39698    0.00139     0.39838
      H   29    0.11225      0.00000     0.38621    0.00155     0.38775
      H   30    0.11897      0.00000     0.37760    0.00344     0.38103
      H   31    0.10405      0.00000     0.39447    0.00147     0.39595
      H   32    0.10443      0.00000     0.39445    0.00113     0.39557
      H   33    0.09681      0.00000     0.40226    0.00093     0.40319
      H   34    0.07293      0.00000     0.42593    0.00113     0.42707
      H   35    0.08664      0.00000     0.41211    0.00125     0.41336
      H   36    0.24020      0.00000     0.25718    0.00262     0.25980
 =======================================================================
   * Total *   -0.00000     19.99389    44.78964    0.21647    65.00000

 Normal termination of Gaussian 16 at Fri Dec 11 00:04:34 2020.
