 Gaussian 16, Revision A.03,

 -----------------------------------------------------------
 # opt freq B3LYP/6-31G(d) empiricaldispersion=gd3bj scf=xqc
 -----------------------------------------------------------

 -------------------------------
 CID_150277564_JID_5268_neutraal
 -------------------------------
 Symbolic Z-matrix:
 Charge =  0 Multiplicity = 1

 SCF Done:  E(RB3LYP) =  -694.923521827     A.U. after   17 cycles
 SCF Done:  E(RB3LYP) =  -694.931127139     A.U. after   15 cycles
 SCF Done:  E(RB3LYP) =  -694.931795936     A.U. after   14 cycles
 SCF Done:  E(RB3LYP) =  -694.932090137     A.U. after   13 cycles
 SCF Done:  E(RB3LYP) =  -694.931875631     A.U. after   14 cycles
 SCF Done:  E(RB3LYP) =  -694.932295010     A.U. after   12 cycles
 SCF Done:  E(RB3LYP) =  -694.932337197     A.U. after   13 cycles
 SCF Done:  E(RB3LYP) =  -694.932346943     A.U. after   12 cycles
 SCF Done:  E(RB3LYP) =  -694.932349186     A.U. after   11 cycles
 SCF Done:  E(RB3LYP) =  -694.932349793     A.U. after    9 cycles
 SCF Done:  E(RB3LYP) =  -694.932349862     A.U. after    8 cycles
 SCF Done:  E(RB3LYP) =  -694.932349873     A.U. after    8 cycles
 Optimization completed.
    -- Stationary point found.
 Normal termination of Gaussian 16 at Thu Dec 10 15:18:22 2020.

 --------------------------------------------------------------------
 #N Geom=AllCheck Guess=TCheck SCRF=Check GenChk RB3LYP/6-31G(d) Freq
 --------------------------------------------------------------------

 Structure from the checkpoint file:  "JID_5268.chk"
 -------------------------------
 CID_150277564_JID_5268_neutraal
 -------------------------------
 Charge =  0 Multiplicity = 1

 SCF Done:  E(RB3LYP) =  -694.932349873     A.U. after    1 cycles

  Exact polarizability: 206.194  -4.487 147.169  -0.000   0.000  43.657
 Approx polarizability: 347.966 -14.993 286.326  -0.001   0.002  70.102

                      1                      2                      3
                      A                      A                      A
 Frequencies --     25.6845                68.6182               102.5971
 Red. masses --     13.1228                 7.0440                10.1348
 Frc consts  --      0.0051                 0.0195                 0.0629
 IR Inten    --      0.8022                 0.3623                 0.2329

                      4                      5                      6
                      A                      A                      A
 Frequencies --    119.1483               176.9711               233.2136
 Red. masses --      6.7895                 6.8241                 4.5244
 Frc consts  --      0.0568                 0.1259                 0.1450
 IR Inten    --      0.8401                 3.2219                 1.4859

                      7                      8                      9
                      A                      A                      A
 Frequencies --    235.3112               272.8103               374.7227
 Red. masses --     10.6154                 9.8944                 7.4107
 Frc consts  --      0.3463                 0.4339                 0.6131
 IR Inten    --      4.3422                 1.0544                 0.8158

                     10                     11                     12
                      A                      A                      A
 Frequencies --    393.0523               461.6827               493.2948
 Red. masses --      3.1445                 6.9223                 6.0848
 Frc consts  --      0.2862                 0.8693                 0.8724
 IR Inten    --      0.2799                 0.8180                 0.0855

                     13                     14                     15
                      A                      A                      A
 Frequencies --    520.8372               529.3827               543.3011
 Red. masses --      3.6265                12.9939                 8.5390
 Frc consts  --      0.5796                 2.1455                 1.4850
 IR Inten    --      5.6928                 0.3544                 0.1426

                     16                     17                     18
                      A                      A                      A
 Frequencies --    586.0572               590.0638               667.6887
 Red. masses --     12.4866                 8.6507                 4.9594
 Frc consts  --      2.5268                 1.7746                 1.3026
 IR Inten    --      8.0589                 1.4901                26.1707

                     19                     20                     21
                      A                      A                      A
 Frequencies --    707.1318               752.9246               815.5972
 Red. masses --      7.3299                 5.4631                 7.4842
 Frc consts  --      2.1595                 1.8247                 2.9332
 IR Inten    --     48.3143                 0.6085                13.3014

                     22                     23                     24
                      A                      A                      A
 Frequencies --    815.9762               829.0527               855.4190
 Red. masses --      2.2220                 7.7261                 2.0549
 Frc consts  --      0.8717                 3.1288                 0.8859
 IR Inten    --      0.5130                40.7597                 0.6551

                     25                     26                     27
                      A                      A                      A
 Frequencies --    881.3000               886.9644               954.9762
 Red. masses --      1.3749                 8.4802                 1.4463
 Frc consts  --      0.6292                 3.9307                 0.7772
 IR Inten    --     33.2146                 6.3052                 1.5074

                     28                     29                     30
                      A                      A                      A
 Frequencies --    979.9406               990.0251              1008.3376
 Red. masses --      7.9508                 1.3908                 1.3654
 Frc consts  --      4.4984                 0.8032                 0.8180
 IR Inten    --     78.3344                 0.0548                 0.4547

                     31                     32                     33
                      A                      A                      A
 Frequencies --   1079.7343              1118.0696              1132.6705
 Red. masses --      2.5613                 2.6424                 3.0956
 Frc consts  --      1.7594                 1.9462                 2.3400
 IR Inten    --     61.6394                37.3236               209.9637

                     34                     35                     36
                      A                      A                      A
 Frequencies --   1233.2490              1245.2479              1283.3765
 Red. masses --      1.9628                 2.0896                 1.9039
 Frc consts  --      1.7589                 1.9091                 1.8476
 IR Inten    --      9.8039                 2.6725                 3.3254

                     37                     38                     39
                      A                      A                      A
 Frequencies --   1306.3811              1324.2568              1367.4377
 Red. masses --      4.4184                 2.7184                 3.4795
 Frc consts  --      4.4428                 2.8087                 3.8334
 IR Inten    --    491.0154               240.1161                 5.9306

                     40                     41                     42
                      A                      A                      A
 Frequencies --   1388.1839              1414.0576              1439.1275
 Red. masses --      4.3805                 6.3496                 1.8338
 Frc consts  --      4.9736                 7.4805                 2.2376
 IR Inten    --     40.3492                12.3159                10.6549

                     43                     44                     45
                      A                      A                      A
 Frequencies --   1503.6843              1532.6039              1606.2056
 Red. masses --      2.0608                 3.2264                 7.2819
 Frc consts  --      2.7454                 4.4651                11.0687
 IR Inten    --      9.3194                15.2364                10.0686

                     46                     47                     48
                      A                      A                      A
 Frequencies --   1621.3142              1667.1275              1763.5854
 Red. masses --      5.4492                 6.3930                12.8743
 Frc consts  --      8.4396                10.4687                23.5921
 IR Inten    --     46.6625                16.5756               143.9412

                     49                     50                     51
                      A                      A                      A
 Frequencies --   2295.1232              3156.0819              3192.7561
 Red. masses --     13.9920                 1.0901                 1.0874
 Frc consts  --     43.4253                 6.3978                 6.5309
 IR Inten    --    679.3135                22.6236                 4.9374

                     52                     53                     54
                      A                      A                      A
 Frequencies --   3196.3872              3209.6836              3281.3018
 Red. masses --      1.0913                 1.0967                 1.0926
 Frc consts  --      6.5694                 6.6568                 6.9311
 IR Inten    --     22.4694                26.8742                 8.4307

 - Thermochemistry -
 -------------------
 Temperature   298.150 Kelvin.  Pressure   1.00000 Atm.
 Atom     1 has atomic number  6 and mass  12.00000

 Molecular mass:   199.04941 amu.
 Principal axes and moments of inertia in atomic units:
                           1         2         3
     Eigenvalues --  1312.009344575.160585887.16992
           X            1.00000  -0.00300  -0.00000
           Y            0.00300   1.00000  -0.00000
           Z            0.00000   0.00000   1.00000
 This molecule is an asymmetric top.
 Rotational symmetry number  1.
 Warning -- assumption of classical behavior for rotation
           may cause significant error
 Rotational temperatures (Kelvin)      0.06602     0.01893     0.01471
 Rotational constants (GHZ):           1.37556     0.39447     0.30655
 Zero-point vibrational energy     360253.8 (Joules/Mol)
                                   86.10272 (Kcal/Mol)
 Warning -- explicit consideration of  17 degrees of freedom as
           vibrations may cause significant error
 Vibrational temperatures:     36.95    98.73   147.61   171.43   254.62
          (Kelvin)            335.54   338.56   392.51   539.14   565.51
                              664.26   709.74   749.37   761.66   781.69
                              843.21   848.97   960.66  1017.40  1083.29
                             1173.46  1174.01  1192.82  1230.76  1267.99
                             1276.14  1374.00  1409.92  1424.43  1450.77
                             1553.50  1608.65  1629.66  1774.37  1791.63
                             1846.49  1879.59  1905.31  1967.44  1997.29
                             2034.51  2070.58  2163.47  2205.08  2310.97
                             2332.71  2398.62  2537.41  3302.17  4540.90
                             4593.66  4598.89  4618.02  4721.06

 Zero-point correction=                           0.137213 (Hartree/Particle)
 Thermal correction to Energy=                    0.148369
 Thermal correction to Enthalpy=                  0.149313
 Thermal correction to Gibbs Free Energy=         0.098403
 Sum of electronic and zero-point Energies=           -694.795136
 Sum of electronic and thermal Energies=              -694.783981
 Sum of electronic and thermal Enthalpies=            -694.783037
 Sum of electronic and thermal Free Energies=         -694.833947

                     E (Thermal)             CV                S
                      KCal/Mol        Cal/Mol-Kelvin    Cal/Mol-Kelvin
 Total                   93.103             42.072            107.149
 Electronic               0.000              0.000              0.000
 Translational            0.889              2.981             41.770
 Rotational               0.889              2.981             31.936
 Vibrational             91.325             36.111             33.443
 Vibration     1          0.593              1.985              6.138
 Vibration     2          0.598              1.969              4.193
 Vibration     3          0.605              1.947              3.404
 Vibration     4          0.609              1.933              3.114
 Vibration     5          0.628              1.871              2.360
 Vibration     6          0.654              1.790              1.854
 Vibration     7          0.655              1.787              1.838
 Vibration     8          0.676              1.723              1.578
 Vibration     9          0.746              1.524              1.060
 Vibration    10          0.760              1.485              0.989
 Vibration    11          0.819              1.335              0.761
 Vibration    12          0.849              1.265              0.675
 Vibration    13          0.876              1.204              0.608
 Vibration    14          0.884              1.185              0.589
 Vibration    15          0.898              1.154              0.558
 Vibration    16          0.943              1.062              0.474
 Vibration    17          0.947              1.053              0.467

 Optimization completed.
    -- Stationary point found.
 Normal termination of Gaussian 16 at Thu Dec 10 15:23:34 2020.

 ----------------------------------------------------------------------
 # B3LYP/6-311++G(d,p) empiricaldispersion=gd3bj scf=xqc pop=npa geom=c
 heck
 ----------------------------------------------------------------------

 ---------------------------------------
 CID_150277564_JID_5268_Energie_neutraal
 ---------------------------------------
 Structure from the checkpoint file:  "JID_5268.chk"
 Charge =  0 Multiplicity = 1

 SCF Done:  E(RB3LYP) =  -695.112139414     A.U. after   17 cycles
 Normal termination of Gaussian 16 at Thu Dec 10 15:25:56 2020.

 ----------------------------------------------------------------------
 # B3LYP/6-311++G(d,p) empiricaldispersion=gd3bj scf=xqc pop=npa geom=c
 heck
 ----------------------------------------------------------------------

 -------------------------------------
 CID_150277564_JID_5268_Energie_kation
 -------------------------------------
 Structure from the checkpoint file:  "JID_5268.chk"
 Charge =  1 Multiplicity = 2

 SCF Done:  E(UB3LYP) =  -694.782528960     A.U. after   28 cycles
 Normal termination of Gaussian 16 at Thu Dec 10 15:31:01 2020.
 Gaussian 16:  ES64L-G16RevA.03 25-Dec-2016

 ----------------------------------------------------------------------
 # B3LYP/6-311++G(d,p) empiricaldispersion=gd3bj scf=xqc pop=npa geom=c
 heck
 ----------------------------------------------------------------------

 ------------------------------------
 CID_150277564_JID_5268_Energie_anion
 ------------------------------------
 Structure from the checkpoint file:  "JID_5268.chk"
 Charge = -1 Multiplicity = 2

                         Standard orientation:
 ---------------------------------------------------------------------
 Center     Atomic      Atomic             Coordinates (Angstroms)
 Number     Number       Type             X           Y           Z
 ---------------------------------------------------------------------
      1          6           0       -1.881584    2.039167   -0.000008
      2          6           0       -0.598910    2.540903   -0.000023
      3          7           0        0.497671    1.753040   -0.000037
      4          6           0        0.359959    0.438477   -0.000042
      5          6           0       -0.920219   -0.213650   -0.000005
      6          6           0       -2.064809    0.640316    0.000007
      7          6           0       -3.355244    0.039791    0.000029
      8          7           0       -3.562676   -1.256958    0.000039
      9          6           0       -2.463885   -2.062149    0.000040
     10          6           0       -1.162908   -1.611763    0.000024
     11          6           0        1.637086   -0.347878   -0.000044
     12          8           0        1.710574   -1.563242   -0.000181
     13          7           0        2.781537    0.498223    0.000074
     14          7           0        3.864753   -0.119633    0.000072
     15          7           0        4.906295   -0.565507    0.000066
     16          1           0       -2.742232    2.702120   -0.000004
     17          1           0       -0.411095    3.611229   -0.000026
     18          1           0       -4.234843    0.683990    0.000047
     19          1           0       -2.671116   -3.129189    0.000047
     20          1           0       -0.335291   -2.305648    0.000019
 ---------------------------------------------------------------------

 SCF Done:  E(UB3LYP) =  -695.169497232     A.U. after   24 cycles

 The electronic state is 2-A.
 Alpha  occ. eigenvalues --  -18.96277 -14.36551 -14.26921 -14.23989 -14.18261
 Alpha  occ. eigenvalues --  -14.16368 -10.13756 -10.07723 -10.07440 -10.07267
 Alpha  occ. eigenvalues --  -10.07043 -10.06848 -10.06389 -10.04368 -10.04192
 Alpha  occ. eigenvalues --   -1.02982  -0.91978  -0.85064  -0.82009  -0.80499
 Alpha  occ. eigenvalues --   -0.68677  -0.66498  -0.62471  -0.57404  -0.53073
 Alpha  occ. eigenvalues --   -0.51094  -0.48528  -0.41958  -0.40433  -0.40005
 Alpha  occ. eigenvalues --   -0.38651  -0.37222  -0.35709  -0.34042  -0.32975
 Alpha  occ. eigenvalues --   -0.31140  -0.30287  -0.29850  -0.29303  -0.27623
 Alpha  occ. eigenvalues --   -0.27464  -0.24360  -0.23312  -0.20906  -0.17359
 Alpha  occ. eigenvalues --   -0.16490  -0.15408  -0.14500  -0.14176  -0.11373
 Alpha  occ. eigenvalues --   -0.11103   0.00161
 Alpha virt. eigenvalues --    0.07631   0.08277   0.08744   0.09471   0.09857
 Alpha virt. eigenvalues --    0.10566   0.12160   0.12501   0.12903   0.14662
 Alpha virt. eigenvalues --    0.15052   0.15341   0.16662   0.16746   0.17056

  Beta  occ. eigenvalues --  -18.95922 -14.36472 -14.26749 -14.24080 -14.18214
  Beta  occ. eigenvalues --  -14.15951 -10.13551 -10.07536 -10.07395 -10.07371
  Beta  occ. eigenvalues --  -10.06888 -10.06844 -10.06453 -10.04289 -10.03823
  Beta  occ. eigenvalues --   -1.02798  -0.91464  -0.84856  -0.81718  -0.79938
  Beta  occ. eigenvalues --   -0.68399  -0.66102  -0.62118  -0.56853  -0.52664
  Beta  occ. eigenvalues --   -0.51012  -0.48246  -0.41685  -0.40267  -0.39469
  Beta  occ. eigenvalues --   -0.38520  -0.37031  -0.35376  -0.33725  -0.32755
  Beta  occ. eigenvalues --   -0.30979  -0.29668  -0.29189  -0.29087  -0.27484
  Beta  occ. eigenvalues --   -0.26270  -0.23213  -0.23059  -0.20818  -0.16402
  Beta  occ. eigenvalues --   -0.15393  -0.14632  -0.14174  -0.14019  -0.10709
  Beta  occ. eigenvalues --   -0.10095
  Beta virt. eigenvalues --    0.05880   0.08407   0.08704   0.08772   0.09850
  Beta virt. eigenvalues --    0.10150   0.10554   0.12522   0.12906   0.12912
  Beta virt. eigenvalues --    0.14676   0.15368   0.15421   0.16666   0.17131

 Mulliken charges and spin densities:
               1          2
     1  C   -1.129722   0.276935
     2  C    0.069786  -0.067401
     3  N    0.040832   0.205592
     4  C   -1.110527   0.115986
     5  C    1.540271  -0.005616
     6  C    1.418516  -0.054094
     7  C   -0.491193   0.132132
     8  N   -0.060950   0.019434
     9  C   -0.689648   0.029293
    10  C   -0.665233   0.043223
    11  C   -0.349351   0.147651
    12  O   -0.365343   0.129320
    13  N   -0.218637  -0.050883
    14  N    0.396895   0.019915
    15  N   -0.138052   0.094860
    16  H    0.102746  -0.021925
    17  H    0.146630   0.004717
    18  H    0.127762  -0.009955
    19  H    0.140896  -0.002571
    20  H    0.234323  -0.006612
 Sum of Mulliken charges =  -1.00000   1.00000

 Dipole moment (field-independent basis, Debye):
    X=             -1.4734    Y=              1.7470    Z=              0.0002  Tot=              2.2854
 Quadrupole moment (field-independent basis, Debye-Ang):
   XX=           -136.7330   YY=           -100.4586   ZZ=            -90.2917
   XY=             -3.3210   XZ=              0.0005   YZ=             -0.0006

 Summary of Natural Population Analysis:

                                       Natural Population
                Natural  -----------------------------------------------
    Atom  No    Charge         Core      Valence    Rydberg      Total
 -----------------------------------------------------------------------
      C    1   -0.03278      0.99953     2.02505    0.00820     3.03278
      C    2   -0.01529      0.99959     2.00130    0.01441     3.01529
      N    3   -0.15012      0.99967     2.64104    0.00941     3.65012
      C    4    0.09235      0.99947     1.89541    0.01277     2.90765
      C    5   -0.02334      0.99948     2.01565    0.00822     3.02334
      C    6   -0.05643      0.99949     2.04928    0.00766     3.05643
      C    7    0.07600      0.99958     1.90951    0.01491     2.92400
      N    8   -0.23802      0.99971     2.72530    0.01300     3.73802
      C    9    0.01572      0.99958     1.96975    0.01495     2.98428
      C   10   -0.10008      0.99953     2.09226    0.00829     3.10008
      C   11    0.34138      0.99965     1.63530    0.02366     2.65862
      O   12   -0.27658      0.99987     3.26864    0.00807     4.27658
      N   13   -0.20055      0.99966     2.68632    0.01457     3.70055
      N   14    0.13757      0.99971     2.34531    0.01742     3.36243
      N   15   -0.02267      0.99981     2.50903    0.01383     3.52267
      H   16    0.08937      0.00000     0.40878    0.00186     0.41063
      H   17    0.08208      0.00000     0.41662    0.00130     0.41792
      H   18    0.07796      0.00000     0.42036    0.00168     0.42204
      H   19    0.08251      0.00000     0.41621    0.00128     0.41749
      H   20    0.12093      0.00000     0.37795    0.00113     0.37907
 =======================================================================
   * Total *   -0.00000     14.99434    35.80905    0.19661    51.00000

 Normal termination of Gaussian 16 at Thu Dec 10 15:35:28 2020.
