 Gaussian 16, Revision A.03,

 -----------------------------------------------------------
 # opt freq B3LYP/6-31G(d) empiricaldispersion=gd3bj scf=xqc
 -----------------------------------------------------------

 --------------------------------
 CID_137005876_JID_10568_neutraal
 --------------------------------
 Symbolic Z-matrix:
 Charge =  0 Multiplicity = 1

 SCF Done:  E(RB3LYP) =  -936.123906406     A.U. after   17 cycles
 SCF Done:  E(RB3LYP) =  -936.136586638     A.U. after   13 cycles
 SCF Done:  E(RB3LYP) =  -936.138677635     A.U. after   13 cycles
 SCF Done:  E(RB3LYP) =  -936.139462194     A.U. after   13 cycles
 SCF Done:  E(RB3LYP) =  -936.139506883     A.U. after   13 cycles
 SCF Done:  E(RB3LYP) =  -936.140877586     A.U. after   12 cycles
 SCF Done:  E(RB3LYP) =  -936.141427583     A.U. after   12 cycles
 SCF Done:  E(RB3LYP) =  -936.141979757     A.U. after   13 cycles
 SCF Done:  E(RB3LYP) =  -936.142392616     A.U. after   12 cycles
 SCF Done:  E(RB3LYP) =  -936.142585820     A.U. after   11 cycles
 SCF Done:  E(RB3LYP) =  -936.142993605     A.U. after    8 cycles
 SCF Done:  E(RB3LYP) =  -936.142993882     A.U. after    8 cycles
 SCF Done:  E(RB3LYP) =  -936.142993949     A.U. after    7 cycles
 SCF Done:  E(RB3LYP) =  -936.142993957     A.U. after    6 cycles
 SCF Done:  E(RB3LYP) =  -936.142993962     A.U. after    6 cycles
 Optimization completed.
    -- Stationary point found.
 Normal termination of Gaussian 16 at Sat Dec 12 16:19:59 2020.

 --------------------------------------------------------------------
 #N Geom=AllCheck Guess=TCheck SCRF=Check GenChk RB3LYP/6-31G(d) Freq
 --------------------------------------------------------------------

 Structure from the checkpoint file:  "JID_10568.chk"
 --------------------------------
 CID_137005876_JID_10568_neutraal
 --------------------------------
 Charge =  0 Multiplicity = 1

 SCF Done:  E(RB3LYP) =  -936.142993962     A.U. after    1 cycles

  Exact polarizability: 202.820   3.261 165.297 -11.236   7.318 145.516
 Approx polarizability: 260.346   3.728 257.957 -28.354  25.478 243.057

                      1                      2                      3
                      A                      A                      A
 Frequencies --     16.6880                27.5960                35.6478
 Red. masses --      2.9405                 3.7973                 3.7993
 Frc consts  --      0.0005                 0.0017                 0.0028
 IR Inten    --      0.2696                 0.3535                 0.7772

                      4                      5                      6
                      A                      A                      A
 Frequencies --     49.7400                80.9354                98.9906
 Red. masses --      6.6244                 3.3884                 4.0398
 Frc consts  --      0.0097                 0.0131                 0.0233
 IR Inten    --      1.2185                 0.0495                 0.3393

                      7                      8                      9
                      A                      A                      A
 Frequencies --    117.6486               132.0881               134.9651
 Red. masses --      1.6621                 4.6583                 2.5018
 Frc consts  --      0.0136                 0.0479                 0.0269
 IR Inten    --      6.8887                 1.4989                 0.8004

                     10                     11                     12
                      A                      A                      A
 Frequencies --    146.3927               182.7298               192.6565
 Red. masses --      3.8229                 3.1773                 2.6750
 Frc consts  --      0.0483                 0.0625                 0.0585
 IR Inten    --      1.3513                 4.7936                 0.9257

                     13                     14                     15
                      A                      A                      A
 Frequencies --    195.3081               199.5399               228.9222
 Red. masses --      3.2841                 2.9824                 1.4523
 Frc consts  --      0.0738                 0.0700                 0.0448
 IR Inten    --      7.6158                 6.9393                 5.9070

                     16                     17                     18
                      A                      A                      A
 Frequencies --    238.0263               251.5551               254.7306
 Red. masses --      2.1706                 1.9849                 1.3033
 Frc consts  --      0.0725                 0.0740                 0.0498
 IR Inten    --      5.0305                28.4555                 8.5333

                     19                     20                     21
                      A                      A                      A
 Frequencies --    277.4275               284.7597               308.7583
 Red. masses --      1.3823                 2.5873                 4.2852
 Frc consts  --      0.0627                 0.1236                 0.2407
 IR Inten    --     70.7472                 8.4647                 6.7613

                     22                     23                     24
                      A                      A                      A
 Frequencies --    355.1896               365.0683               388.4616
 Red. masses --      2.6019                 3.3417                 2.7666
 Frc consts  --      0.1934                 0.2624                 0.2460
 IR Inten    --      1.0136                 5.1199                 1.2654

                     25                     26                     27
                      A                      A                      A
 Frequencies --    400.2339               451.7253               490.0233
 Red. masses --      3.6495                 3.7875                 4.1407
 Frc consts  --      0.3444                 0.4554                 0.5858
 IR Inten    --      2.9300                13.6366                 8.6823

                     28                     29                     30
                      A                      A                      A
 Frequencies --    512.4203               544.9673               568.1943
 Red. masses --      2.6619                 5.7064                 2.8012
 Frc consts  --      0.4118                 0.9985                 0.5328
 IR Inten    --      9.7136                 6.9656                21.2726

                     31                     32                     33
                      A                      A                      A
 Frequencies --    579.7823               588.6634               606.7981
 Red. masses --      2.7573                 3.0015                 3.2209
 Frc consts  --      0.5461                 0.6128                 0.6987
 IR Inten    --     22.9347                 9.6668                18.8745

                     34                     35                     36
                      A                      A                      A
 Frequencies --    626.3845               676.5001               705.8047
 Red. masses --      3.5933                 2.8697                 1.8391
 Frc consts  --      0.8307                 0.7738                 0.5398
 IR Inten    --     19.5348                 6.5834                 3.1179

                     37                     38                     39
                      A                      A                      A
 Frequencies --    712.2015               754.7216               764.8919
 Red. masses --      1.8273                 4.1657                 4.2586
 Frc consts  --      0.5461                 1.3980                 1.4680
 IR Inten    --     52.9410                15.2690                 6.9038

                     40                     41                     42
                      A                      A                      A
 Frequencies --    800.2961               804.7511               826.1293
 Red. masses --      1.9860                 4.3428                 1.8456
 Frc consts  --      0.7494                 1.6571                 0.7421
 IR Inten    --     29.7006                 7.9643                 3.6893

                     43                     44                     45
                      A                      A                      A
 Frequencies --    870.2863               882.8006               924.0415
 Red. masses --      1.9462                 2.7809                 2.0141
 Frc consts  --      0.8685                 1.2769                 1.0132
 IR Inten    --      1.0586                 1.3083                 0.4536

                     46                     47                     48
                      A                      A                      A
 Frequencies --    948.8730               950.9010               960.9219
 Red. masses --      1.1893                 2.4921                 2.4179
 Frc consts  --      0.6309                 1.3277                 1.3154
 IR Inten    --      0.8539                 1.5388                16.8391

                     49                     50                     51
                      A                      A                      A
 Frequencies --    979.3881               990.8059               997.9525
 Red. masses --      1.4782                 2.8571                 2.4930
 Frc consts  --      0.8354                 1.6525                 1.4628
 IR Inten    --      0.3134                18.6537                 4.6757

                     52                     53                     54
                      A                      A                      A
 Frequencies --   1003.9886              1064.3009              1070.9489
 Red. masses --      2.6504                 2.7473                 1.5689
 Frc consts  --      1.5741                 1.8335                 1.0602
 IR Inten    --      4.1876                18.3652                27.0643

                     55                     56                     57
                      A                      A                      A
 Frequencies --   1075.3721              1095.0665              1118.9286
 Red. masses --      1.6175                 2.3788                 2.2289
 Frc consts  --      1.1020                 1.6807                 1.6442
 IR Inten    --      5.5867                36.0574                61.3854

                     58                     59                     60
                      A                      A                      A
 Frequencies --   1124.6450              1128.8806              1142.0350
 Red. masses --      2.2403                 2.3780                 2.6350
 Frc consts  --      1.6695                 1.7855                 2.0248
 IR Inten    --      2.7489                 1.7716                11.4411

                     61                     62                     63
                      A                      A                      A
 Frequencies --   1181.7863              1197.2195              1209.9556
 Red. masses --      2.3492                 2.0883                 1.6948
 Frc consts  --      1.9330                 1.7635                 1.4618
 IR Inten    --      4.2939                 0.7937                35.6706

                     64                     65                     66
                      A                      A                      A
 Frequencies --   1222.7534              1233.2870              1259.5740
 Red. masses --      1.2902                 4.9767                 1.3224
 Frc consts  --      1.1365                 4.4599                 1.2361
 IR Inten    --      8.7405                13.9465                31.0880

                     67                     68                     69
                      A                      A                      A
 Frequencies --   1275.2958              1281.5366              1288.2929
 Red. masses --      1.2519                 1.2095                 1.8500
 Frc consts  --      1.1996                 1.1704                 1.8091
 IR Inten    --      1.5674                 1.2087                 9.2551

                     70                     71                     72
                      A                      A                      A
 Frequencies --   1290.6277              1314.9569              1337.5931
 Red. masses --      1.4627                 1.7654                 2.0287
 Frc consts  --      1.4355                 1.7985                 2.1385
 IR Inten    --      1.0453                 8.8505                16.2086

                     73                     74                     75
                      A                      A                      A
 Frequencies --   1346.9216              1365.4951              1388.4214
 Red. masses --      1.7435                 1.3188                 2.9781
 Frc consts  --      1.8636                 1.4488                 3.3824
 IR Inten    --     46.0266                 1.4949                65.4380

                     76                     77                     78
                      A                      A                      A
 Frequencies --   1419.9213              1430.5394              1446.9989
 Red. masses --      2.5142                 1.2161                 1.5922
 Frc consts  --      2.9866                 1.4663                 1.9641
 IR Inten    --    135.6293                 2.5130                56.9299

                     79                     80                     81
                      A                      A                      A
 Frequencies --   1452.4371              1468.2965              1475.8604
 Red. masses --      1.2190                 1.5008                 1.7688
 Frc consts  --      1.5152                 1.9064                 2.2700
 IR Inten    --      3.0329                12.8076                33.3982

                     82                     83                     84
                      A                      A                      A
 Frequencies --   1492.3324              1506.8960              1512.2882
 Red. masses --      2.1565                 1.0875                 1.2937
 Frc consts  --      2.8297                 1.4550                 1.7432
 IR Inten    --     57.4608                 5.2677                 9.6893

                     85                     86                     87
                      A                      A                      A
 Frequencies --   1514.8988              1516.5220              1522.3090
 Red. masses --      1.0469                 1.0871                 1.0802
 Frc consts  --      1.4156                 1.4730                 1.4749
 IR Inten    --      0.3011                 2.5659                 5.4894

                     88                     89                     90
                      A                      A                      A
 Frequencies --   1523.4544              1533.7905              1538.5274
 Red. masses --      1.0453                 1.0634                 1.1166
 Frc consts  --      1.4294                 1.4740                 1.5572
 IR Inten    --      4.6723                 2.6220                13.4667

                     91                     92                     93
                      A                      A                      A
 Frequencies --   1539.1819              1551.3408              1600.8471
 Red. masses --      1.1147                 1.0887                 5.1009
 Frc consts  --      1.5560                 1.5438                 7.7019
 IR Inten    --      5.4030                14.0244               226.3565

                     94                     95                     96
                      A                      A                      A
 Frequencies --   1647.6406              1768.0023              1782.9996
 Red. masses --      7.3432                 8.5965                 9.0601
 Frc consts  --     11.7451                15.8321                16.9702
 IR Inten    --    177.0738               410.4554               473.5753

                     97                     98                     99
                      A                      A                      A
 Frequencies --   3009.5546              3047.7670              3051.1209
 Red. masses --      1.0639                 1.0371                 1.0383
 Frc consts  --      5.6774                 5.6757                 5.6952
 IR Inten    --     43.9355                16.2622                22.8249

                    100                    101                    102
                      A                      A                      A
 Frequencies --   3060.5698              3062.3284              3071.3750
 Red. masses --      1.0933                 1.0411                 1.0672
 Frc consts  --      6.0338                 5.7522                 5.9312
 IR Inten    --     39.7290                 9.3513                49.9878

                    103                    104                    105
                      A                      A                      A
 Frequencies --   3079.0271              3082.8643              3093.4252
 Red. masses --      1.0573                 1.0644                 1.0865
 Frc consts  --      5.9058                 5.9605                 6.1260
 IR Inten    --     34.4559                26.8603                 2.4820

                    106                    107                    108
                      A                      A                      A
 Frequencies --   3112.4946              3123.3759              3124.3607
 Red. masses --      1.0998                 1.0970                 1.0983
 Frc consts  --      6.2771                 6.3051                 6.3166
 IR Inten    --      5.0627                52.4440                 2.2034

                    109                    110                    111
                      A                      A                      A
 Frequencies --   3124.6218              3132.0775              3135.1647
 Red. masses --      1.1068                 1.1036                 1.1035
 Frc consts  --      6.3666                 6.3784                 6.3905
 IR Inten    --     14.5769                21.0304                24.6744

                    112                    113                    114
                      A                      A                      A
 Frequencies --   3139.6469              3159.0754              3169.9118
 Red. masses --      1.1084                 1.1044                 1.0989
 Frc consts  --      6.4376                 6.4936                 6.5058
 IR Inten    --     33.6335                 9.0154                 8.7240

                    115                    116                    117
                      A                      A                      A
 Frequencies --   3582.4444              3584.4794              3761.2825
 Red. masses --      1.0771                 1.0755                 1.0666
 Frc consts  --      8.1446                 8.1417                 8.8903
 IR Inten    --     33.7814                25.8850                21.4937

 - Thermochemistry -
 -------------------
 Temperature   298.150 Kelvin.  Pressure   1.00000 Atm.
 Atom     1 has atomic number  6 and mass  12.00000

 Molecular mass:   279.15829 amu.
 Principal axes and moments of inertia in atomic units:
                           1         2         3
     Eigenvalues --  3247.538818148.902268763.22517
           X            1.00000  -0.00098   0.00085
           Y            0.00097   0.99994   0.01130
           Z           -0.00086  -0.01130   0.99994
 This molecule is an asymmetric top.
 Rotational symmetry number  1.
 Warning -- assumption of classical behavior for rotation
           may cause significant error
 Rotational temperatures (Kelvin)      0.02667     0.01063     0.00988
 Rotational constants (GHZ):           0.55573     0.22147     0.20594
 Zero-point vibrational energy     911878.7 (Joules/Mol)
                                  217.94425 (Kcal/Mol)
 Warning -- explicit consideration of  33 degrees of freedom as
           vibrations may cause significant error
 Vibrational temperatures:     24.01    39.70    51.29    71.56   116.45
          (Kelvin)            142.43   169.27   190.05   194.18   210.63
                              262.91   277.19   281.00   287.09   329.37
                              342.47   361.93   366.50   399.16   409.71
                              444.23   511.04   525.25   558.91   575.85
                              649.93   705.03   737.26   784.09   817.50
                              834.18   846.96   873.05   901.23   973.33
                             1015.50  1024.70  1085.88  1100.51  1151.45
                             1157.86  1188.62  1252.15  1270.15  1329.49
                             1365.22  1368.13  1382.55  1409.12  1425.55
                             1435.83  1444.52  1531.29  1540.86  1547.22
                             1575.56  1609.89  1618.11  1624.21  1643.13
                             1700.33  1722.53  1740.86  1759.27  1774.42
                             1812.25  1834.87  1843.85  1853.57  1856.93
                             1891.93  1924.50  1937.92  1964.64  1997.63
                             2042.95  2058.23  2081.91  2089.73  2112.55
                             2123.43  2147.13  2168.09  2175.85  2179.60
                             2181.94  2190.26  2191.91  2206.78  2213.60
                             2214.54  2232.03  2303.26  2370.59  2543.76
                             2565.34  4330.08  4385.06  4389.88  4403.48
                             4406.01  4419.02  4430.03  4435.55  4450.75
                             4478.19  4493.84  4495.26  4495.63  4506.36
                             4510.80  4517.25  4545.20  4560.80  5154.34
                             5157.27  5411.65

 Zero-point correction=                           0.347316 (Hartree/Particle)
 Thermal correction to Energy=                    0.368147
 Thermal correction to Enthalpy=                  0.369092
 Thermal correction to Gibbs Free Energy=         0.296509
 Sum of electronic and zero-point Energies=           -935.795678
 Sum of electronic and thermal Energies=              -935.774846
 Sum of electronic and thermal Enthalpies=            -935.773902
 Sum of electronic and thermal Free Energies=         -935.846485

                     E (Thermal)             CV                S
                      KCal/Mol        Cal/Mol-Kelvin    Cal/Mol-Kelvin
 Total                  231.016             77.661            152.764
 Electronic               0.000              0.000              0.000
 Translational            0.889              2.981             42.778
 Rotational               0.889              2.981             33.805
 Vibrational            229.239             71.700             76.181
 Vibration     1          0.593              1.986              6.994
 Vibration     2          0.593              1.984              5.995
 Vibration     3          0.594              1.982              5.487
 Vibration     4          0.595              1.978              4.828
 Vibration     5          0.600              1.962              3.868
 Vibration     6          0.604              1.950              3.474
 Vibration     7          0.608              1.935              3.139
 Vibration     8          0.612              1.921              2.915
 Vibration     9          0.613              1.918              2.874
 Vibration    10          0.617              1.907              2.719
 Vibration    11          0.630              1.863              2.300
 Vibration    12          0.635              1.850              2.202
 Vibration    13          0.636              1.846              2.177
 Vibration    14          0.638              1.841              2.137
 Vibration    15          0.652              1.797              1.887
 Vibration    16          0.656              1.782              1.818
 Vibration    17          0.664              1.760              1.720
 Vibration    18          0.665              1.755              1.698
 Vibration    19          0.678              1.715              1.549
 Vibration    20          0.683              1.702              1.505
 Vibration    21          0.698              1.657              1.369
 Vibration    22          0.731              1.565              1.143
 Vibration    23          0.738              1.544              1.100
 Vibration    24          0.757              1.495              1.006
 Vibration    25          0.766              1.470              0.962
 Vibration    26          0.810              1.357              0.791
 Vibration    27          0.846              1.272              0.684
 Vibration    28          0.868              1.222              0.628
 Vibration    29          0.900              1.151              0.555
 Vibration    30          0.924              1.100              0.508
 Vibration    31          0.936              1.075              0.486
 Vibration    32          0.946              1.056              0.470
 Vibration    33          0.966              1.017              0.438

                           ! Non-Optimized Parameters !
 Normal termination of Gaussian 16 at Sat Dec 12 16:43:13 2020.

 ----------------------------------------------------------------------
 # B3LYP/6-311++G(d,p) empiricaldispersion=gd3bj scf=xqc pop=npa geom=c
 heck
 ----------------------------------------------------------------------

 ----------------------------------------
 CID_137005876_JID_10568_Energie_neutraal
 ----------------------------------------
 Structure from the checkpoint file:  "JID_10568.chk"
 Charge =  0 Multiplicity = 1

 SCF Done:  E(RB3LYP) =  -936.419308567     A.U. after   18 cycles
 Normal termination of Gaussian 16 at Sat Dec 12 16:55:47 2020.

 ----------------------------------------------------------------------
 # B3LYP/6-311++G(d,p) empiricaldispersion=gd3bj scf=xqc pop=npa geom=c
 heck
 ----------------------------------------------------------------------

 --------------------------------------
 CID_137005876_JID_10568_Energie_kation
 --------------------------------------
 Structure from the checkpoint file:  "JID_10568.chk"
 Charge =  1 Multiplicity = 2

 SCF Done:  E(UB3LYP) =  -936.117544101     A.U. after   30 cycles
 Normal termination of Gaussian 16 at Sat Dec 12 17:25:01 2020.
 Gaussian 16:  ES64L-G16RevA.03 25-Dec-2016

 ----------------------------------------------------------------------
 # B3LYP/6-311++G(d,p) empiricaldispersion=gd3bj scf=xqc pop=npa geom=c
 heck
 ----------------------------------------------------------------------

 -------------------------------------
 CID_137005876_JID_10568_Energie_anion
 -------------------------------------
 Structure from the checkpoint file:  "JID_10568.chk"
 Charge = -1 Multiplicity = 2

                         Standard orientation:
 ---------------------------------------------------------------------
 Center     Atomic      Atomic             Coordinates (Angstroms)
 Number     Number       Type             X           Y           Z
 ---------------------------------------------------------------------
      1          6           0        0.120817   -2.690849   -0.872760
      2          6           0        0.743472   -1.451528   -0.288937
      3          6           0        0.097833   -0.701256    0.665481
      4          6           0        0.761367    0.431851    1.271576
      5          8           0        0.347887    1.166307    2.161937
      6          7           0        2.038432    0.657529    0.712463
      7          6           0        2.607379   -0.109110   -0.257142
      8          7           0        1.999125   -1.144344   -0.768955
      9          6           0        3.986918    0.274096   -0.741031
     10          6           0        3.986052    1.667442   -1.393728
     11          6           0        5.025808    0.178517    0.389838
     12          6           0       -1.218606   -1.164279    1.233445
     13          8           0       -1.255729   -2.131524    1.986434
     14          7           0       -2.344402   -0.487092    0.871371
     15          6           0       -2.535919    0.510432   -0.173977
     16          6           0       -3.916875    1.215124   -0.077318
     17          6           0       -3.217024    2.572187   -0.350189
     18          6           0       -1.862685    1.903386   -0.001924
     19          6           0       -2.287400   -0.055691   -1.572053
     20          8           0       -3.077421   -1.229580   -1.726214
     21          1           0       -0.957161   -2.576408   -1.021055
     22          1           0        0.607364   -2.934509   -1.819709
     23          1           0        0.261062   -3.530157   -0.181519
     24          1           0        2.538807    1.444878    1.110544
     25          1           0        4.227613   -0.472079   -1.503684
     26          1           0        3.753579    2.456074   -0.667615
     27          1           0        4.974255    1.886762   -1.810930
     28          1           0        3.251363    1.725583   -2.203195
     29          1           0        5.024770   -0.816525    0.845525
     30          1           0        6.027962    0.375161   -0.004806
     31          1           0        4.834667    0.913698    1.181220
     32          1           0       -3.186842   -0.933769    1.214683
     33          1           0       -4.683639    0.869733   -0.776205
     34          1           0       -4.308809    1.162982    0.942899
     35          1           0       -3.524149    3.416275    0.272337
     36          1           0       -3.283939    2.875051   -1.399599
     37          1           0       -1.560783    2.057600    1.034034
     38          1           0       -1.007364    2.113924   -0.653538
     39          1           0       -2.558839    0.708957   -2.316040
     40          1           0       -1.218353   -0.274281   -1.693684
     41          1           0       -2.928373   -1.575161   -2.618751
 ---------------------------------------------------------------------

 SCF Done:  E(UB3LYP) =  -936.422781563     A.U. after   33 cycles
 SCF Done:  E(UB3LYP) =  -936.422781563     a.u. after    1 cycles

 The electronic state is 2-A.
 Alpha  occ. eigenvalues --  -19.03070 -18.96302 -18.95699 -14.22877 -14.21644
 Alpha  occ. eigenvalues --  -14.17345 -10.14928 -10.14450 -10.11737 -10.11578
 Alpha  occ. eigenvalues --  -10.11105 -10.08400 -10.07647 -10.07567 -10.07506
 Alpha  occ. eigenvalues --  -10.07390 -10.07201 -10.06285 -10.03903 -10.03328
 Alpha  occ. eigenvalues --   -0.93181  -0.91790  -0.91030  -0.85402  -0.81489
 Alpha  occ. eigenvalues --   -0.76625  -0.73822  -0.70980  -0.66058  -0.61603
 Alpha  occ. eigenvalues --   -0.59925  -0.59911  -0.57149  -0.55340  -0.53544
 Alpha  occ. eigenvalues --   -0.49824  -0.47936  -0.47648  -0.45440  -0.42466
 Alpha  occ. eigenvalues --   -0.41603  -0.40767  -0.40062  -0.38311  -0.36876
 Alpha  occ. eigenvalues --   -0.35247  -0.34904  -0.34207  -0.33828  -0.32532
 Alpha  occ. eigenvalues --   -0.31180  -0.31000  -0.30066  -0.29313  -0.29035
 Alpha  occ. eigenvalues --   -0.28999  -0.28790  -0.27402  -0.26506  -0.26268
 Alpha  occ. eigenvalues --   -0.25971  -0.25193  -0.24822  -0.24200  -0.23844
 Alpha  occ. eigenvalues --   -0.22630  -0.22028  -0.21282  -0.18960  -0.17243
 Alpha  occ. eigenvalues --   -0.15219  -0.14379  -0.13524  -0.13039  -0.10526
 Alpha  occ. eigenvalues --    0.04060
 Alpha virt. eigenvalues --    0.05847   0.06101   0.07354   0.08235   0.08823
 Alpha virt. eigenvalues --    0.09045   0.09555   0.10043   0.10602   0.11218
 Alpha virt. eigenvalues --    0.11467   0.11505   0.11768   0.12325   0.12956

  Beta  occ. eigenvalues --  -19.03056 -18.96260 -18.95680 -14.22662 -14.21644
  Beta  occ. eigenvalues --  -14.17495 -10.14922 -10.14436 -10.11733 -10.11564
  Beta  occ. eigenvalues --  -10.10677 -10.08429 -10.07640 -10.07557 -10.07360
  Beta  occ. eigenvalues --  -10.07154 -10.07146 -10.06282 -10.03928 -10.03180
  Beta  occ. eigenvalues --   -0.93147  -0.91671  -0.90930  -0.85055  -0.81462
  Beta  occ. eigenvalues --   -0.76340  -0.73801  -0.70782  -0.65729  -0.61567
  Beta  occ. eigenvalues --   -0.59830  -0.59649  -0.57110  -0.55046  -0.53477
  Beta  occ. eigenvalues --   -0.49693  -0.47781  -0.47421  -0.45372  -0.42414
  Beta  occ. eigenvalues --   -0.41483  -0.40701  -0.39881  -0.38290  -0.36742
  Beta  occ. eigenvalues --   -0.35191  -0.34783  -0.33929  -0.33377  -0.32507
  Beta  occ. eigenvalues --   -0.30912  -0.30889  -0.29888  -0.29253  -0.28984
  Beta  occ. eigenvalues --   -0.28856  -0.28411  -0.27331  -0.26439  -0.26157
  Beta  occ. eigenvalues --   -0.25847  -0.25162  -0.24759  -0.24085  -0.23721
  Beta  occ. eigenvalues --   -0.22345  -0.21858  -0.21197  -0.18733  -0.16305
  Beta  occ. eigenvalues --   -0.15179  -0.14340  -0.13437  -0.12930  -0.09602
  Beta virt. eigenvalues --    0.06097   0.06414   0.07473   0.08206   0.08762
  Beta virt. eigenvalues --    0.08985   0.09391   0.09901   0.10026   0.10700
  Beta virt. eigenvalues --    0.11203   0.11395   0.11485   0.11982   0.12339

 Mulliken charges and spin densities:
               1          2
     1  C   -0.331092  -0.283388
     2  C   -0.686786   0.542007
     3  C    0.813024  -0.023629
     4  C    0.021229  -0.014368
     5  O   -0.361062   0.007559
     6  N   -0.001900   0.084374
     7  C    0.223901  -0.249307
     8  N    0.052124  -0.081496
     9  C   -0.842660   0.824621
    10  C   -0.386486  -0.136711
    11  C   -0.030305  -0.499942
    12  C   -0.467018  -0.007640
    13  O   -0.296476   0.003109
    14  N   -0.159556   0.004718
    15  C   -0.062795   0.418556
    16  C   -0.216526   0.215061
    17  C    0.052823  -0.700107
    18  C   -0.337824   0.254993
    19  C   -0.072415  -0.780767
    20  O   -0.230079   0.018995
    21  H    0.224863  -0.064804
    22  H    0.073270   0.073937
    23  H    0.150297   0.060662
    24  H    0.319817  -0.031051
    25  H    0.171380   0.026454
    26  H    0.057673   0.069839
    27  H    0.096066   0.046853
    28  H    0.099532   0.040810
    29  H    0.098244   0.058479
    30  H   -0.126669   0.278994
    31  H    0.083041   0.037929
    32  H    0.308499   0.001625
    33  H    0.082142   0.085494
    34  H    0.106688   0.009856
    35  H    0.117561   0.019785
    36  H    0.005040   0.120240
    37  H    0.208638   0.005089
    38  H    0.121841   0.023619
    39  H   -0.266523   0.429212
    40  H    0.283323  -0.034055
    41  H    0.105155   0.144397
 Sum of Mulliken charges =  -1.00000   1.00000

 Dipole moment (field-independent basis, Debye):
    X=             -0.2900    Y=              3.0154    Z=             -2.7905  Tot=              4.1187
 Quadrupole moment (field-independent basis, Debye-Ang):
   XX=           -166.7549   YY=           -151.0644   ZZ=           -155.0993
   XY=              0.3147   XZ=             -2.4272   YZ=              4.2701

 Summary of Natural Population Analysis:

                                       Natural Population
                Natural  -----------------------------------------------
    Atom  No    Charge         Core      Valence    Rydberg      Total
 -----------------------------------------------------------------------
      C    1   -0.30938      0.99963     2.30470    0.00505     3.30938
      C    2    0.18870      0.99949     1.79733    0.01447     2.81130
      C    3   -0.12671      0.99934     2.11651    0.01086     3.12671
      C    4    0.32669      0.99959     1.65187    0.02185     2.67331
      O    5   -0.34238      0.99988     3.33697    0.00554     4.34238
      N    6   -0.27278      0.99962     2.76521    0.00794     3.77278
      C    7    0.31231      0.99958     1.67169    0.01643     2.68769
      N    8   -0.30484      0.99966     2.79579    0.00939     3.80484
      C    9   -0.13660      0.99958     2.12801    0.00900     3.13660
      C   10   -0.27686      0.99965     2.27271    0.00449     3.27686
      C   11   -0.27731      0.99965     2.27307    0.00459     3.27731
      C   12    0.35615      0.99964     1.62061    0.02360     2.64385
      O   13   -0.31832      0.99988     3.31279    0.00565     4.31832
      N   14   -0.31792      0.99962     2.80724    0.01105     3.81792
      C   15    0.05470      0.99954     1.93023    0.01553     2.94530
      C   16   -0.18588      0.99960     2.17781    0.00847     3.18588
      C   17   -0.19433      0.99965     2.18665    0.00803     3.19433
      C   18   -0.19372      0.99959     2.18464    0.00949     3.19372
      C   19   -0.01750      0.99949     2.00534    0.01267     3.01750
      O   20   -0.37189      0.99989     3.36575    0.00625     4.37189
      H   21    0.10674      0.00000     0.39204    0.00122     0.39326
      H   22    0.10259      0.00000     0.39616    0.00125     0.39741
      H   23    0.11389      0.00000     0.38506    0.00105     0.38611
      H   24    0.19287      0.00000     0.30450    0.00263     0.30713
      H   25    0.10731      0.00000     0.39065    0.00204     0.39269
      H   26    0.09294      0.00000     0.40597    0.00109     0.40706
      H   27    0.09455      0.00000     0.40458    0.00087     0.40545
      H   28    0.10268      0.00000     0.39643    0.00089     0.39732
      H   29    0.10406      0.00000     0.39506    0.00088     0.39594
      H   30    0.09595      0.00000     0.40275    0.00130     0.40405
      H   31    0.09243      0.00000     0.40645    0.00112     0.40757
      H   32    0.19072      0.00000     0.30704    0.00224     0.30928
      H   33    0.10103      0.00000     0.39804    0.00093     0.39897
      H   34    0.09819      0.00000     0.40073    0.00108     0.40181
      H   35    0.09483      0.00000     0.40435    0.00081     0.40517
      H   36    0.09441      0.00000     0.40413    0.00146     0.40559
      H   37    0.12223      0.00000     0.37659    0.00118     0.37777
      H   38    0.09948      0.00000     0.39948    0.00104     0.40052
      H   39    0.07803      0.00000     0.42039    0.00158     0.42197
      H   40    0.09295      0.00000     0.40527    0.00178     0.40705
      H   41    0.22996      0.00000     0.26722    0.00282     0.27004
 =======================================================================
   * Total *   -0.00000     19.99258    54.76780    0.23962    75.00000

 Normal termination of Gaussian 16 at Sat Dec 12 17:58:25 2020.
