 Gaussian 16, Revision A.03,

 -----------------------------------------------------------
 # opt freq B3LYP/6-31G(d) empiricaldispersion=gd3bj scf=xqc
 -----------------------------------------------------------

 -------------------------------
 CID_150073324_JID_1070_neutraal
 -------------------------------
 Symbolic Z-matrix:
 Charge =  0 Multiplicity = 1

 SCF Done:  E(RB3LYP) =  -581.922508405     A.U. after   15 cycles
 SCF Done:  E(RB3LYP) =  -581.926765555     A.U. after   15 cycles
 SCF Done:  E(RB3LYP) =  -581.928454922     A.U. after   15 cycles
 SCF Done:  E(RB3LYP) =  -581.929213612     A.U. after   13 cycles
 SCF Done:  E(RB3LYP) =  -581.929686704     A.U. after   14 cycles
 SCF Done:  E(RB3LYP) =  -581.930386186     A.U. after   16 cycles
 SCF Done:  E(RB3LYP) =  -581.930792423     A.U. after   14 cycles
 SCF Done:  E(RB3LYP) =  -581.930911994     A.U. after   12 cycles
 SCF Done:  E(RB3LYP) =  -581.930939887     A.U. after   14 cycles
 SCF Done:  E(RB3LYP) =  -581.930988783     A.U. after   12 cycles
 SCF Done:  E(RB3LYP) =  -581.932753543     A.U. after   11 cycles
 SCF Done:  E(RB3LYP) =  -581.932765110     A.U. after   11 cycles
 SCF Done:  E(RB3LYP) =  -581.932770637     A.U. after   10 cycles
 SCF Done:  E(RB3LYP) =  -581.932773073     A.U. after    9 cycles
 SCF Done:  E(RB3LYP) =  -581.932773802     A.U. after    9 cycles
 SCF Done:  E(RB3LYP) =  -581.932773883     A.U. after    8 cycles
 Optimization completed.
    -- Stationary point found.
 Normal termination of Gaussian 16 at Tue Dec  8 19:20:04 2020.

 --------------------------------------------------------------------
 #N Geom=AllCheck Guess=TCheck SCRF=Check GenChk RB3LYP/6-31G(d) Freq
 --------------------------------------------------------------------

 Structure from the checkpoint file:  "JID_1070.chk"
 -------------------------------
 CID_150073324_JID_1070_neutraal
 -------------------------------
 Charge =  0 Multiplicity = 1

 SCF Done:  E(RB3LYP) =  -581.932773883     A.U. after    1 cycles

  Exact polarizability: 110.408  -8.957  78.969   8.861  -1.815  55.721
 Approx polarizability: 191.011 -25.846 106.607  35.599  -6.241 101.934

                      1                      2                      3
                      A                      A                      A
 Frequencies --     51.3918                56.3472                67.1150
 Red. masses --      6.8526                 5.3127                 7.1015
 Frc consts  --      0.0107                 0.0099                 0.0188
 IR Inten    --      1.0725                 2.2373                 4.4688

                      4                      5                      6
                      A                      A                      A
 Frequencies --    125.0895               173.9828               211.3010
 Red. masses --      4.8833                 4.5063                 3.6082
 Frc consts  --      0.0450                 0.0804                 0.0949
 IR Inten    --      3.5782                 0.9869                 0.5917

                      7                      8                      9
                      A                      A                      A
 Frequencies --    237.7693               260.5120               269.0894
 Red. masses --      4.5690                 2.9591                 3.6226
 Frc consts  --      0.1522                 0.1183                 0.1545
 IR Inten    --     13.3427                19.7949                 6.1952

                     10                     11                     12
                      A                      A                      A
 Frequencies --    319.9388               339.1286               376.1870
 Red. masses --      2.6252                 1.6109                 1.2953
 Frc consts  --      0.1583                 0.1092                 0.1080
 IR Inten    --     16.1997                74.7245                68.9788

                     13                     14                     15
                      A                      A                      A
 Frequencies --    414.6681               446.3737               477.7289
 Red. masses --      1.0901                 2.9652                 3.2513
 Frc consts  --      0.1104                 0.3481                 0.4372
 IR Inten    --    206.6577                10.1205                45.5395

                     16                     17                     18
                      A                      A                      A
 Frequencies --    527.3904               577.0011               594.6843
 Red. masses --      2.9910                10.5540                 4.2444
 Frc consts  --      0.4902                 2.0702                 0.8844
 IR Inten    --      0.8783                 2.4199                58.0710

                     19                     20                     21
                      A                      A                      A
 Frequencies --    618.4249               696.8038               739.9766
 Red. masses --      3.5276                 2.0876                 4.7766
 Frc consts  --      0.7949                 0.5972                 1.5410
 IR Inten    --     46.7457               159.2673                27.0963

                     22                     23                     24
                      A                      A                      A
 Frequencies --    786.9509               888.6652               919.0666
 Red. masses --      2.4799                 3.5311                 3.3159
 Frc consts  --      0.9049                 1.6430                 1.6502
 IR Inten    --      1.2606                 3.0933                 8.6783

                     25                     26                     27
                      A                      A                      A
 Frequencies --    955.8951               969.4700              1078.8685
 Red. masses --      3.4247                 3.9044                 3.0619
 Frc consts  --      1.8437                 2.1621                 2.0998
 IR Inten    --     24.4286                90.8924                 5.3032

                     28                     29                     30
                      A                      A                      A
 Frequencies --   1093.8380              1111.9821              1161.0535
 Red. masses --      1.8813                 3.9661                 1.5355
 Frc consts  --      1.3262                 2.8894                 1.2195
 IR Inten    --     72.7825                46.2087                35.3580

                     31                     32                     33
                      A                      A                      A
 Frequencies --   1215.5956              1263.3919              1319.3242
 Red. masses --      1.1383                 1.2171                 2.5339
 Frc consts  --      0.9910                 1.1446                 2.5986
 IR Inten    --     15.9391                 3.8573                51.3814

                     34                     35                     36
                      A                      A                      A
 Frequencies --   1332.2455              1359.4545              1385.8521
 Red. masses --      1.2524                 1.6623                 1.4032
 Frc consts  --      1.3096                 1.8101                 1.5879
 IR Inten    --     12.9605               110.4594                41.0606

                     37                     38                     39
                      A                      A                      A
 Frequencies --   1408.6263              1415.9196              1449.3391
 Red. masses --      1.4138                 1.4572                 2.0045
 Frc consts  --      1.6528                 1.7212                 2.4808
 IR Inten    --     10.5077                 3.4224                 9.6470

                     40                     41                     42
                      A                      A                      A
 Frequencies --   1463.5931              1515.3530              1548.3017
 Red. masses --      1.3107                 1.0844                 1.0891
 Frc consts  --      1.6543                 1.4671                 1.5383
 IR Inten    --     65.3105                 3.3788                 0.6351

                     43                     44                     45
                      A                      A                      A
 Frequencies --   1676.5350              1722.3041              2244.6371
 Red. masses --      1.2990                 4.1927                13.8857
 Frc consts  --      2.1513                 7.3276                41.2203
 IR Inten    --     45.7443                92.8169               454.1595

                     46                     47                     48
                      A                      A                      A
 Frequencies --   3002.6834              3060.7926              3084.0171
 Red. masses --      1.0714                 1.0645                 1.0942
 Frc consts  --      5.6915                 5.8755                 6.1319
 IR Inten    --     78.4391                17.6021                18.8489

                     49                     50                     51
                      A                      A                      A
 Frequencies --   3112.0770              3133.3759              3547.4649
 Red. masses --      1.0987                 1.0847                 1.0474
 Frc consts  --      6.2694                 6.2743                 7.7662
 IR Inten    --     25.1619                 4.0884                14.2105

                     52                     53                     54
                      A                      A                      A
 Frequencies --   3651.3500              3701.7369              3783.1092
 Red. masses --      1.0989                 1.0663                 1.0678
 Frc consts  --      8.6324                 8.6090                 9.0043
 IR Inten    --     19.1315                54.4632                85.5000

 - Thermochemistry -
 -------------------
 Temperature   298.150 Kelvin.  Pressure   1.00000 Atm.
 Atom     1 has atomic number  6 and mass  12.00000

 Molecular mass:   159.07562 amu.
 Principal axes and moments of inertia in atomic units:
                           1         2         3
     Eigenvalues --  1368.095831872.153982957.27094
           X            0.99770   0.06775  -0.00068
           Y           -0.06775   0.99767  -0.00797
           Z            0.00014   0.00800   0.99997
 This molecule is an asymmetric top.
 Rotational symmetry number  1.
 Warning -- assumption of classical behavior for rotation
           may cause significant error
 Rotational temperatures (Kelvin)      0.06331     0.04626     0.02929
 Rotational constants (GHZ):           1.31916     0.96399     0.61027
 Zero-point vibrational energy     412375.3 (Joules/Mol)
                                   98.56007 (Kcal/Mol)
 Warning -- explicit consideration of  19 degrees of freedom as
           vibrations may cause significant error
 Vibrational temperatures:     73.94    81.07    96.56   179.98   250.32
          (Kelvin)            304.02   342.10   374.82   387.16   460.32
                              487.93   541.25   596.61   642.23   687.35
                              758.80   830.18   855.62   889.78  1002.55
                             1064.66  1132.25  1278.59  1322.33  1375.32
                             1394.85  1552.25  1573.79  1599.89  1670.50
                             1748.97  1817.74  1898.21  1916.80  1955.95
                             1993.93  2026.70  2037.19  2085.28  2105.78
                             2180.25  2227.66  2412.16  2478.01  3229.53
                             4320.19  4403.80  4437.21  4477.58  4508.23
                             5104.01  5253.48  5325.97  5443.05

 Zero-point correction=                           0.157065 (Hartree/Particle)
 Thermal correction to Energy=                    0.168903
 Thermal correction to Enthalpy=                  0.169848
 Thermal correction to Gibbs Free Energy=         0.118835
 Sum of electronic and zero-point Energies=           -581.775708
 Sum of electronic and thermal Energies=              -581.763870
 Sum of electronic and thermal Enthalpies=            -581.762926
 Sum of electronic and thermal Free Energies=         -581.813939

                     E (Thermal)             CV                S
                      KCal/Mol        Cal/Mol-Kelvin    Cal/Mol-Kelvin
 Total                  105.988             42.569            107.365
 Electronic               0.000              0.000              0.000
 Translational            0.889              2.981             41.102
 Rotational               0.889              2.981             30.405
 Vibrational            104.211             36.607             35.858
 Vibration     1          0.596              1.977              4.763
 Vibration     2          0.596              1.975              4.581
 Vibration     3          0.598              1.970              4.236
 Vibration     4          0.610              1.928              3.020
 Vibration     5          0.627              1.874              2.392
 Vibration     6          0.643              1.824              2.032
 Vibration     7          0.656              1.783              1.820
 Vibration     8          0.669              1.745              1.658
 Vibration     9          0.673              1.730              1.602
 Vibration    10          0.706              1.635              1.310
 Vibration    11          0.719              1.597              1.216
 Vibration    12          0.747              1.521              1.054
 Vibration    13          0.778              1.438              0.910
 Vibration    14          0.806              1.369              0.807
 Vibration    15          0.834              1.299              0.716
 Vibration    16          0.882              1.189              0.593
 Vibration    17          0.933              1.081              0.491
 Vibration    18          0.952              1.043              0.459
 Vibration    19          0.978              0.993              0.419

 Optimization completed.
    -- Stationary point found.
 Normal termination of Gaussian 16 at Tue Dec  8 19:23:46 2020.

 ----------------------------------------------------------------------
 # B3LYP/6-311++G(d,p) empiricaldispersion=gd3bj scf=xqc pop=npa geom=c
 heck
 ----------------------------------------------------------------------

 ---------------------------------------
 CID_150073324_JID_1070_Energie_neutraal
 ---------------------------------------
 Structure from the checkpoint file:  "JID_1070.chk"
 Charge =  0 Multiplicity = 1

 SCF Done:  E(RB3LYP) =  -582.125630074     A.U. after   16 cycles
 Normal termination of Gaussian 16 at Tue Dec  8 19:25:23 2020.

 ----------------------------------------------------------------------
 # B3LYP/6-311++G(d,p) empiricaldispersion=gd3bj scf=xqc pop=npa geom=c
 heck
 ----------------------------------------------------------------------

 -------------------------------------
 CID_150073324_JID_1070_Energie_kation
 -------------------------------------
 Structure from the checkpoint file:  "JID_1070.chk"
 Charge =  1 Multiplicity = 2

 SCF Done:  E(UB3LYP) =  -581.803099518     A.U. after   28 cycles
 Normal termination of Gaussian 16 at Tue Dec  8 19:29:15 2020.
 Gaussian 16:  ES64L-G16RevA.03 25-Dec-2016

 ----------------------------------------------------------------------
 # B3LYP/6-311++G(d,p) empiricaldispersion=gd3bj scf=xqc pop=npa geom=c
 heck
 ----------------------------------------------------------------------

 ------------------------------------
 CID_150073324_JID_1070_Energie_anion
 ------------------------------------
 Structure from the checkpoint file:  "JID_1070.chk"
 Charge = -1 Multiplicity = 2

                         Standard orientation:
 ---------------------------------------------------------------------
 Center     Atomic      Atomic             Coordinates (Angstroms)
 Number     Number       Type             X           Y           Z
 ---------------------------------------------------------------------
      1          6           0       -0.437635   -0.885722    0.823604
      2          6           0       -1.331706   -2.040507    0.370499
      3          8           0       -2.397883   -1.590998   -0.452342
      4          6           0        0.066600   -0.048715   -0.374948
      5          6           0        0.165213    1.423830   -0.008911
      6          7           0       -0.871475    2.165086    0.186303
      7          8           0       -2.078391    1.439944   -0.088174
      8          7           0        1.409296    2.021596    0.078548
      9          7           0        1.297924   -0.592802   -0.994421
     10          7           0        2.234329   -0.838020   -0.232171
     11          7           0        3.170254   -1.099619    0.372962
     12          1           0        0.407792   -1.260555    1.414381
     13          1           0       -1.015870   -0.231804    1.484153
     14          1           0       -0.761451   -2.759788   -0.227986
     15          1           0       -1.708283   -2.571789    1.259071
     16          1           0       -2.663953   -0.710602   -0.135522
     17          1           0       -0.680933   -0.120871   -1.166438
     18          1           0       -2.743194    2.136468    0.013564
     19          1           0        2.150667    1.474209    0.497400
     20          1           0        1.368282    2.966167    0.445485
 ---------------------------------------------------------------------

 SCF Done:  E(UB3LYP) =  -582.118144895     A.U. after   31 cycles

 The electronic state is 2-A.
 Alpha  occ. eigenvalues --  -19.03718 -19.00267 -14.31026 -14.22547 -14.22128
 Alpha  occ. eigenvalues --  -14.21781 -14.21346 -10.12793 -10.10696 -10.10102
 Alpha  occ. eigenvalues --  -10.06543  -0.98873  -0.95083  -0.90676  -0.84243
 Alpha  occ. eigenvalues --   -0.82237  -0.71513  -0.67397  -0.59789  -0.51382
 Alpha  occ. eigenvalues --   -0.47874  -0.44739  -0.41730  -0.39303  -0.36732
 Alpha  occ. eigenvalues --   -0.36613  -0.36156  -0.34926  -0.33831  -0.33419
 Alpha  occ. eigenvalues --   -0.31155  -0.30311  -0.27525  -0.27197  -0.24806
 Alpha  occ. eigenvalues --   -0.22048  -0.21737  -0.18371  -0.16246  -0.15785
 Alpha  occ. eigenvalues --   -0.11747  -0.11032   0.05585
 Alpha virt. eigenvalues --    0.07589   0.08579   0.08889   0.11348   0.11773
 Alpha virt. eigenvalues --    0.12117   0.12425   0.13173   0.13874   0.14590
 Alpha virt. eigenvalues --    0.15933   0.16660   0.17429   0.18161   0.18898

  Beta  occ. eigenvalues --  -19.03629 -19.00246 -14.30585 -14.22512 -14.22128
  Beta  occ. eigenvalues --  -14.21392 -14.21295 -10.12791 -10.10689 -10.09972
  Beta  occ. eigenvalues --  -10.06538  -0.98092  -0.94917  -0.90630  -0.84031
  Beta  occ. eigenvalues --   -0.82034  -0.71398  -0.67257  -0.59607  -0.51282
  Beta  occ. eigenvalues --   -0.47762  -0.44604  -0.41368  -0.39126  -0.36458
  Beta  occ. eigenvalues --   -0.36197  -0.35890  -0.34347  -0.33371  -0.33219
  Beta  occ. eigenvalues --   -0.30884  -0.29471  -0.27418  -0.26841  -0.24718
  Beta  occ. eigenvalues --   -0.22003  -0.21696  -0.17923  -0.16193  -0.15069
  Beta  occ. eigenvalues --   -0.11600  -0.10947
  Beta virt. eigenvalues --    0.08283   0.08722   0.09806   0.10625   0.11754
  Beta virt. eigenvalues --    0.12092   0.12392   0.12856   0.13379   0.14040
  Beta virt. eigenvalues --    0.14830   0.16164   0.16644   0.17457   0.18280

 Mulliken charges and spin densities:
               1          2
     1  C   -0.372354   0.053128
     2  C   -0.104843  -0.295761
     3  O   -0.264046   0.006472
     4  C    0.011840  -0.376815
     5  C    0.124019  -0.169319
     6  N   -0.188672  -0.080930
     7  O   -0.112960  -0.045089
     8  N   -0.319720  -0.019719
     9  N   -0.402040  -0.198710
    10  N    0.492868   0.209560
    11  N   -0.340859   0.398938
    12  H    0.198326  -0.068151
    13  H   -0.012706   0.220512
    14  H    0.053900   0.101813
    15  H   -0.007769   0.139997
    16  H    0.187114   0.084799
    17  H    0.041517   0.260566
    18  H   -0.471145   0.771504
    19  H    0.255918  -0.017891
    20  H    0.231612   0.025096
 Sum of Mulliken charges =  -1.00000   1.00000

 Dipole moment (field-independent basis, Debye):
    X=              3.5055    Y=             -0.9221    Z=              2.5030  Tot=              4.4049
 Quadrupole moment (field-independent basis, Debye-Ang):
   XX=           -121.1888   YY=            -92.3756   ZZ=            -81.3515
   XY=             17.2009   XZ=             -0.2562   YZ=             -0.5443

 Summary of Natural Population Analysis:

                                       Natural Population
                Natural  -----------------------------------------------
    Atom  No    Charge         Core      Valence    Rydberg      Total
 -----------------------------------------------------------------------
      C    1   -0.21103      0.99960     2.20283    0.00860     3.21103
      C    2   -0.00613      0.99961     1.99471    0.01181     3.00613
      O    3   -0.37574      0.99990     3.36940    0.00643     4.37574
      C    4   -0.04169      0.99950     2.02648    0.01571     3.04169
      C    5    0.19944      0.99958     1.78180    0.01918     2.80056
      N    6   -0.13097      0.99959     2.61573    0.01566     3.63097
      O    7   -0.30595      0.99990     3.29788    0.00817     4.30595
      N    8   -0.39763      0.99970     2.88930    0.00863     3.89763
      N    9   -0.20811      0.99970     2.69346    0.01496     3.70811
      N   10    0.14222      0.99970     2.34136    0.01673     3.35778
      N   11   -0.01720      0.99982     2.50374    0.01364     3.51720
      H   12    0.10340      0.00000     0.39568    0.00092     0.39660
      H   13    0.10625      0.00000     0.39222    0.00153     0.39375
      H   14    0.08446      0.00000     0.41400    0.00154     0.41554
      H   15    0.07249      0.00000     0.42604    0.00147     0.42751
      H   16    0.23867      0.00000     0.25707    0.00426     0.26133
      H   17    0.12384      0.00000     0.37366    0.00250     0.37616
      H   18    0.24536      0.00000     0.21540    0.03924     0.25464
      H   19    0.19127      0.00000     0.30722    0.00151     0.30873
      H   20    0.18704      0.00000     0.31143    0.00153     0.31296
 =======================================================================
   * Total *    0.00000     10.99659    30.80941    0.19400    42.00000

 Normal termination of Gaussian 16 at Tue Dec  8 19:33:36 2020.
