 Gaussian 16, Revision A.03,

 -----------------------------------------------------------
 # opt freq B3LYP/6-31G(d) empiricaldispersion=gd3bj scf=xqc
 -----------------------------------------------------------

 ------------------------------
 CID_152640398_JID_986_neutraal
 ------------------------------
 Symbolic Z-matrix:
 Charge =  0 Multiplicity = 1

 SCF Done:  E(RB3LYP) =  -782.834640437     A.U. after   15 cycles
 SCF Done:  E(RB3LYP) =  -782.844983319     A.U. after   13 cycles
 SCF Done:  E(RB3LYP) =  -782.850030283     A.U. after   13 cycles
 SCF Done:  E(RB3LYP) =  -782.851286724     A.U. after   12 cycles
 SCF Done:  E(RB3LYP) =  -782.851659745     A.U. after   12 cycles
 SCF Done:  E(RB3LYP) =  -782.851788423     A.U. after   11 cycles
 SCF Done:  E(RB3LYP) =  -782.851814211     A.U. after   10 cycles
 SCF Done:  E(RB3LYP) =  -782.851824621     A.U. after   10 cycles
 SCF Done:  E(RB3LYP) =  -782.851833775     A.U. after   10 cycles
 SCF Done:  E(RB3LYP) =  -782.851845821     A.U. after   10 cycles
 SCF Done:  E(RB3LYP) =  -782.851874762     A.U. after   11 cycles
 SCF Done:  E(RB3LYP) =  -782.851880690     A.U. after   11 cycles
 SCF Done:  E(RB3LYP) =  -782.851882694     A.U. after    8 cycles
 SCF Done:  E(RB3LYP) =  -782.851883100     A.U. after    8 cycles
 SCF Done:  E(RB3LYP) =  -782.851883089     A.U. after    8 cycles
 SCF Done:  E(RB3LYP) =  -782.851883064     A.U. after    8 cycles
 Optimization completed.
    -- Stationary point found.
 Normal termination of Gaussian 16 at Tue Dec  8 13:26:58 2020.

 --------------------------------------------------------------------
 #N Geom=AllCheck Guess=TCheck SCRF=Check GenChk RB3LYP/6-31G(d) Freq
 --------------------------------------------------------------------

 Structure from the checkpoint file:  "JID_986.chk"
 ------------------------------
 CID_152640398_JID_986_neutraal
 ------------------------------
 Charge =  0 Multiplicity = 1

 SCF Done:  E(RB3LYP) =  -782.851883064     A.U. after    1 cycles

  Exact polarizability: 115.276  13.595 102.018   7.875   0.530  85.040
 Approx polarizability: 154.742  27.481 153.419  18.592   6.388 132.138

                      1                      2                      3
                      A                      A                      A
 Frequencies --     13.8474                52.0324                94.4781
 Red. masses --      4.6296                 3.6547                 2.8368
 Frc consts  --      0.0005                 0.0058                 0.0149
 IR Inten    --      0.0982                 0.2311                 0.0674

                      4                      5                      6
                      A                      A                      A
 Frequencies --    143.1267               176.1054               213.4550
 Red. masses --      3.5063                 1.6768                 3.7450
 Frc consts  --      0.0423                 0.0306                 0.1005
 IR Inten    --      1.9229                 0.1085                 1.2868

                      7                      8                      9
                      A                      A                      A
 Frequencies --    254.0437               280.5725               300.7189
 Red. masses --      1.7554                 2.3105                 1.1444
 Frc consts  --      0.0667                 0.1072                 0.0610
 IR Inten    --      2.7657                 4.3282                11.3865

                     10                     11                     12
                      A                      A                      A
 Frequencies --    332.2675               366.2949               434.9980
 Red. masses --      2.0671                 2.5279                 2.0358
 Frc consts  --      0.1345                 0.1998                 0.2270
 IR Inten    --      2.1884                 4.1094                 0.7395

                     13                     14                     15
                      A                      A                      A
 Frequencies --    452.2720               511.2836               605.4592
 Red. masses --      6.8785                 2.4613                 2.9059
 Frc consts  --      0.8290                 0.3791                 0.6276
 IR Inten    --      2.1058                30.3808                 2.8205

                     16                     17                     18
                      A                      A                      A
 Frequencies --    682.6010               741.3126               754.4465
 Red. masses --      1.9919                 1.5152                 1.2765
 Frc consts  --      0.5468                 0.4906                 0.4281
 IR Inten    --    122.1744                50.2866                17.2888

                     19                     20                     21
                      A                      A                      A
 Frequencies --    773.9506               827.9835               836.1446
 Red. masses --      2.4572                 1.4417                 3.0971
 Frc consts  --      0.8672                 0.5823                 1.2758
 IR Inten    --     15.0321                 4.4538                25.0533

                     22                     23                     24
                      A                      A                      A
 Frequencies --    873.3360               878.4786               909.3274
 Red. masses --      1.7798                 2.7205                 2.0619
 Frc consts  --      0.7998                 1.2370                 1.0045
 IR Inten    --      2.4992                 2.9497                29.3410

                     25                     26                     27
                      A                      A                      A
 Frequencies --    936.1497               984.5291               985.4736
 Red. masses --      1.6947                 1.5766                 2.0528
 Frc consts  --      0.8750                 0.9004                 1.1746
 IR Inten    --      5.6545                 3.2823                 8.1504

                     28                     29                     30
                      A                      A                      A
 Frequencies --   1038.5583              1073.9823              1103.6922
 Red. masses --      1.6384                 2.0491                 1.9836
 Frc consts  --      1.0412                 1.3925                 1.4236
 IR Inten    --      9.7031                 3.9179                15.2798

                     31                     32                     33
                      A                      A                      A
 Frequencies --   1116.0485              1132.8439              1149.0093
 Red. masses --      2.3317                 1.7670                 1.5305
 Frc consts  --      1.7112                 1.3361                 1.1905
 IR Inten    --      0.4279                 3.1606                 1.9273

                     34                     35                     36
                      A                      A                      A
 Frequencies --   1154.8685              1201.7904              1241.0518
 Red. masses --      2.2007                 2.1727                 1.2171
 Frc consts  --      1.7293                 1.8489                 1.1045
 IR Inten    --      5.1292                52.1037                 0.7489

                     37                     38                     39
                      A                      A                      A
 Frequencies --   1282.4117              1311.7910              1341.9828
 Red. masses --      1.2874                 1.2966                 1.1501
 Frc consts  --      1.2475                 1.3146                 1.2203
 IR Inten    --      4.5175                 4.6323                 7.7268

                     40                     41                     42
                      A                      A                      A
 Frequencies --   1372.8364              1392.6878              1403.2146
 Red. masses --      1.5575                 1.3114                 1.4344
 Frc consts  --      1.7295                 1.4986                 1.6640
 IR Inten    --     17.0434                12.9572                22.3614

                     43                     44                     45
                      A                      A                      A
 Frequencies --   1421.0670              1429.8741              1440.7636
 Red. masses --      1.4346                 1.3159                 1.3457
 Frc consts  --      1.7070                 1.5851                 1.6458
 IR Inten    --      1.7666                14.3405                 4.8073

                     46                     47                     48
                      A                      A                      A
 Frequencies --   1445.5167              1502.4492              1513.3881
 Red. masses --      1.4550                 1.0820                 1.0914
 Frc consts  --      1.7912                 1.4390                 1.4728
 IR Inten    --     10.7011                 2.0468                 5.2546

                     49                     50                     51
                      A                      A                      A
 Frequencies --   1521.6507              1531.0255              1545.8818
 Red. masses --      1.0551                 1.0730                 1.0555
 Frc consts  --      1.4394                 1.4819                 1.4861
 IR Inten    --      1.1883                 7.0862                 2.6759

                     52                     53                     54
                      A                      A                      A
 Frequencies --   1693.4444              2632.8097              3018.2834
 Red. masses --      5.6342                 1.0400                 1.0774
 Frc consts  --      9.5197                 4.2474                 5.7828
 IR Inten    --     16.4031                34.3221                 5.7793

                     55                     56                     57
                      A                      A                      A
 Frequencies --   3024.5224              3034.8815              3038.7962
 Red. masses --      1.0730                 1.0701                 1.0469
 Frc consts  --      5.7830                 5.8072                 5.6956
 IR Inten    --     20.5345                79.8051                29.6549

                     58                     59                     60
                      A                      A                      A
 Frequencies --   3044.0241              3070.8175              3084.8731
 Red. masses --      1.0622                 1.0972                 1.0958
 Frc consts  --      5.7992                 6.0962                 6.1441
 IR Inten    --     44.7709                 4.8711                40.4572

                     61                     62                     63
                      A                      A                      A
 Frequencies --   3095.1273              3114.7628              3128.2971
 Red. masses --      1.0975                 1.0936                 1.1004
 Frc consts  --      6.1943                 6.2511                 6.3446
 IR Inten    --     21.3993                40.6306                47.5315

                     64                     65                     66
                      A                      A                      A
 Frequencies --   3252.3737              3282.3254              3492.3218
 Red. masses --      1.0896                 1.1051                 1.0762
 Frc consts  --      6.7906                 7.0147                 7.7334
 IR Inten    --      2.4742                 5.5033                 1.0634

 - Thermochemistry -
 -------------------
 Temperature   298.150 Kelvin.  Pressure   1.00000 Atm.
 Atom     1 has atomic number  6 and mass  12.00000

 Molecular mass:   158.08777 amu.
 Principal axes and moments of inertia in atomic units:
                           1         2         3
     Eigenvalues --   916.268142455.587672832.49005
           X            0.99998  -0.00699   0.00063
           Y            0.00699   0.99997  -0.00280
           Z           -0.00061   0.00281   1.00000
 This molecule is an asymmetric top.
 Rotational symmetry number  1.
 Warning -- assumption of classical behavior for rotation
           may cause significant error
 Rotational temperatures (Kelvin)      0.09453     0.03527     0.03058
 Rotational constants (GHZ):           1.96966     0.73495     0.63716
 Zero-point vibrational energy     544843.6 (Joules/Mol)
                                  130.22074 (Kcal/Mol)
 Warning -- explicit consideration of  15 degrees of freedom as
           vibrations may cause significant error
 Vibrational temperatures:     19.92    74.86   135.93   205.93   253.38
          (Kelvin)            307.11   365.51   403.68   432.67   478.06
                              527.02   625.87   650.72   735.62   871.12
                              982.11  1066.58  1085.48  1113.54  1191.28
                             1203.03  1256.54  1263.93  1308.32  1346.91
                             1416.52  1417.88  1494.25  1545.22  1587.97
                             1605.74  1629.91  1653.17  1661.60  1729.11
                             1785.60  1845.10  1887.37  1930.81  1975.21
                             2003.77  2018.91  2044.60  2057.27  2072.94
                             2079.78  2161.69  2177.43  2189.32  2202.80
                             2224.18  2436.49  3788.03  4342.64  4351.61
                             4366.52  4372.15  4379.67  4418.22  4438.44
                             4453.20  4481.45  4500.92  4679.44  4722.53
                             5024.67

 Zero-point correction=                           0.207520 (Hartree/Particle)
 Thermal correction to Energy=                    0.218755
 Thermal correction to Enthalpy=                  0.219699
 Thermal correction to Gibbs Free Energy=         0.168969
 Sum of electronic and zero-point Energies=           -782.644363
 Sum of electronic and thermal Energies=              -782.633128
 Sum of electronic and thermal Enthalpies=            -782.632184
 Sum of electronic and thermal Free Energies=         -782.682914

                     E (Thermal)             CV                S
                      KCal/Mol        Cal/Mol-Kelvin    Cal/Mol-Kelvin
 Total                  137.271             41.615            106.771
 Electronic               0.000              0.000              0.000
 Translational            0.889              2.981             41.083
 Rotational               0.889              2.981             30.234
 Vibrational            135.493             35.653             35.454
 Vibration     1          0.593              1.986              7.364
 Vibration     2          0.596              1.977              4.739
 Vibration     3          0.603              1.953              3.565
 Vibration     4          0.616              1.910              2.762
 Vibration     5          0.628              1.872              2.369
 Vibration     6          0.644              1.820              2.014
 Vibration     7          0.665              1.756              1.702
 Vibration     8          0.680              1.710              1.530
 Vibration     9          0.693              1.672              1.413
 Vibration    10          0.714              1.611              1.249
 Vibration    11          0.739              1.542              1.095
 Vibration    12          0.796              1.394              0.842
 Vibration    13          0.811              1.356              0.789
 Vibration    14          0.866              1.225              0.631
 Vibration    15          0.964              1.020              0.440

 Optimization completed.
    -- Stationary point found.
 Normal termination of Gaussian 16 at Tue Dec  8 13:34:11 2020.

 ----------------------------------------------------------------------
 # B3LYP/6-311++G(d,p) empiricaldispersion=gd3bj scf=xqc pop=npa geom=c
 heck
 ----------------------------------------------------------------------

 --------------------------------------
 CID_152640398_JID_986_Energie_neutraal
 --------------------------------------
 Structure from the checkpoint file:  "JID_986.chk"
 Charge =  0 Multiplicity = 1

 SCF Done:  E(RB3LYP) =  -782.994487050     A.U. after   15 cycles
 Normal termination of Gaussian 16 at Tue Dec  8 13:38:52 2020.

 ----------------------------------------------------------------------
 # B3LYP/6-311++G(d,p) empiricaldispersion=gd3bj scf=xqc pop=npa geom=c
 heck
 ----------------------------------------------------------------------

 ------------------------------------
 CID_152640398_JID_986_Energie_kation
 ------------------------------------
 Structure from the checkpoint file:  "JID_986.chk"
 Charge =  1 Multiplicity = 2

 SCF Done:  E(UB3LYP) =  -782.731327032     A.U. after   21 cycles
 Normal termination of Gaussian 16 at Tue Dec  8 13:46:24 2020.
 Gaussian 16:  ES64L-G16RevA.03 25-Dec-2016

 ----------------------------------------------------------------------
 # B3LYP/6-311++G(d,p) empiricaldispersion=gd3bj scf=xqc pop=npa geom=c
 heck
 ----------------------------------------------------------------------

 -----------------------------------
 CID_152640398_JID_986_Energie_anion
 -----------------------------------
 Structure from the checkpoint file:  "JID_986.chk"
 Charge = -1 Multiplicity = 2

                         Standard orientation:
 ---------------------------------------------------------------------
 Center     Atomic      Atomic             Coordinates (Angstroms)
 Number     Number       Type             X           Y           Z
 ---------------------------------------------------------------------
      1          6           0        3.465441    0.085135    0.111457
      2          6           0        2.379475   -0.226156   -0.920484
      3          6           0        1.421439   -1.354274   -0.506223
      4          6           0        0.677214   -1.187462    0.825931
      5          6           0       -0.332137   -0.038423    0.911470
      6          7           0        0.299401    1.305123    0.920066
      7          6           0       -0.294719    2.040014   -0.138940
      8          6           0       -1.151880    1.286015   -0.835059
      9          7           0       -1.234420   -0.022333   -0.285314
     10         16           0       -2.845027   -0.664010   -0.062542
     11          1           0        3.028930    0.514547    1.018408
     12          1           0        4.187534    0.809320   -0.283254
     13          1           0        4.021295   -0.819046    0.392560
     14          1           0        1.810145    0.683371   -1.133975
     15          1           0        2.853330   -0.524202   -1.866077
     16          1           0        0.676182   -1.496206   -1.297745
     17          1           0        1.993020   -2.291305   -0.443890
     18          1           0        0.119776   -2.113548    1.024921
     19          1           0        1.383479   -1.068653    1.657451
     20          1           0       -0.930857   -0.177792    1.821290
     21          1           0        0.224197    1.770224    1.821819
     22          1           0        0.048824    3.042093   -0.359389
     23          1           0       -1.683008    1.510294   -1.748751
     24          1           0       -2.656282   -1.823559   -0.734874
 ---------------------------------------------------------------------

 SCF Done:  E(UB3LYP) =  -782.980887117     A.U. after   32 cycles

 The electronic state is 2-A.
 Alpha  occ. eigenvalues --  -88.75321 -14.22904 -14.20110 -10.11969 -10.07974
 Alpha  occ. eigenvalues --  -10.07847 -10.04968 -10.04823 -10.04753 -10.04317
 Alpha  occ. eigenvalues --   -7.83779  -5.80243  -5.79814  -5.79110  -0.86552
 Alpha  occ. eigenvalues --   -0.76600  -0.68765  -0.64882  -0.62296  -0.58505
 Alpha  occ. eigenvalues --   -0.53726  -0.48775  -0.46674  -0.43868  -0.41950
 Alpha  occ. eigenvalues --   -0.37113  -0.35175  -0.33113  -0.32762  -0.30978
 Alpha  occ. eigenvalues --   -0.30569  -0.29414  -0.27801  -0.26211  -0.25961
 Alpha  occ. eigenvalues --   -0.25410  -0.22980  -0.21164  -0.20842  -0.19670
 Alpha  occ. eigenvalues --   -0.16728  -0.13795  -0.07313   0.04823
 Alpha virt. eigenvalues --    0.07436   0.07803   0.08168   0.08949   0.09926
 Alpha virt. eigenvalues --    0.10165   0.10371   0.10942   0.12029   0.12737
 Alpha virt. eigenvalues --    0.13075   0.13757   0.14409   0.14707   0.15254

  Beta  occ. eigenvalues --  -88.75288 -14.22866 -14.20068 -10.11945 -10.07963
  Beta  occ. eigenvalues --  -10.07838 -10.04952 -10.04809 -10.04744 -10.04297
  Beta  occ. eigenvalues --   -7.83748  -5.80135  -5.79800  -5.79091  -0.86491
  Beta  occ. eigenvalues --   -0.76509  -0.68732  -0.64835  -0.62178  -0.58420
  Beta  occ. eigenvalues --   -0.53658  -0.48695  -0.46617  -0.43772  -0.41834
  Beta  occ. eigenvalues --   -0.37054  -0.35104  -0.33075  -0.32654  -0.30910
  Beta  occ. eigenvalues --   -0.30504  -0.29372  -0.27663  -0.26164  -0.25898
  Beta  occ. eigenvalues --   -0.25346  -0.22947  -0.21135  -0.20804  -0.19635
  Beta  occ. eigenvalues --   -0.16671  -0.13715  -0.07259
  Beta virt. eigenvalues --    0.07214   0.08094   0.08461   0.08813   0.09326
  Beta virt. eigenvalues --    0.10379   0.10686   0.10838   0.11623   0.12453
  Beta virt. eigenvalues --    0.13060   0.13191   0.14084   0.14584   0.14830

 Mulliken charges and spin densities:
               1          2
     1  C    0.419445  -1.142551
     2  C   -0.903948   0.832872
     3  C    0.704702  -0.868571
     4  C    0.967250  -0.924226
     5  C   -0.509173  -0.703421
     6  N   -0.031737  -0.029841
     7  C    0.450366  -0.526738
     8  C   -0.021377  -0.159476
     9  N    0.228776   0.076902
    10  S    0.220681  -0.189197
    11  H    0.024920   0.145862
    12  H   -0.098919   0.212803
    13  H   -0.048309   0.164493
    14  H    0.256473  -0.106646
    15  H   -0.124644   0.272902
    16  H    0.024496   0.132002
    17  H   -0.142511   0.304099
    18  H   -0.134748   0.288101
    19  H   -0.101068   0.236897
    20  H   -0.676929   0.845420
    21  H   -0.377443   0.665537
    22  H   -0.710177   0.874360
    23  H   -0.206109   0.319474
    24  H   -0.210019   0.278945
 Sum of Mulliken charges =  -1.00000   1.00000

 Dipole moment (field-independent basis, Debye):
    X=             -0.7689    Y=             -2.0010    Z=             -3.0714  Tot=              3.7454
 Quadrupole moment (field-independent basis, Debye-Ang):
   XX=           -115.0172   YY=           -109.8503   ZZ=           -104.9436
   XY=              1.5704   XZ=              1.1912   YZ=             -5.3237

 Summary of Natural Population Analysis:

                                       Natural Population
                Natural  -----------------------------------------------
    Atom  No    Charge         Core      Valence    Rydberg      Total
 -----------------------------------------------------------------------
      C    1   -0.28633      0.99967     2.28231    0.00436     3.28633
      C    2   -0.19112      0.99963     2.18419    0.00729     3.19112
      C    3   -0.19025      0.99962     2.18125    0.00938     3.19025
      C    4   -0.19668      0.99959     2.18648    0.01061     3.19668
      C    5    0.09803      0.99959     1.88525    0.01713     2.90197
      N    6   -0.33771      0.99972     2.82222    0.01576     3.83771
      C    7   -0.02597      0.99950     2.01217    0.01429     3.02597
      C    8   -0.03126      0.99948     2.01866    0.01311     3.03126
      N    9   -0.32988      0.99970     2.81527    0.01490     3.82988
      S   10    0.07900      4.99963     2.90304    0.01833     7.92100
      H   11    0.10357      0.00000     0.39503    0.00141     0.39643
      H   12    0.09428      0.00000     0.40466    0.00106     0.40572
      H   13    0.08994      0.00000     0.40885    0.00121     0.41006
      H   14    0.10113      0.00000     0.39656    0.00231     0.39887
      H   15    0.08808      0.00000     0.41077    0.00115     0.41192
      H   16    0.10195      0.00000     0.39641    0.00163     0.39805
      H   17    0.09188      0.00000     0.40699    0.00114     0.40812
      H   18    0.09988      0.00000     0.39845    0.00167     0.40012
      H   19    0.10006      0.00000     0.39843    0.00151     0.39994
      H   20    0.09312      0.00000     0.40346    0.00342     0.40688
      H   21    0.19170      0.00000     0.29801    0.01029     0.30830
      H   22    0.10151      0.00000     0.39712    0.00137     0.39849
      H   23    0.10290      0.00000     0.39607    0.00103     0.39710
      H   24    0.05217      0.00000     0.44399    0.00384     0.44783
 =======================================================================
   * Total *   -0.00000     13.99614    28.84565    0.15821    43.00000

 Normal termination of Gaussian 16 at Tue Dec  8 13:56:12 2020.
