 Gaussian 16, Revision A.03,

 -----------------------------------------------------------
 # opt freq B3LYP/6-31G(d) empiricaldispersion=gd3bj scf=xqc
 -----------------------------------------------------------

 ------------------------------
 CID_85865998_JID_1839_neutraal
 ------------------------------
 Symbolic Z-matrix:
 Charge =  0 Multiplicity = 1

 SCF Done:  E(RB3LYP) =  -898.991652540     A.U. after   14 cycles
 SCF Done:  E(RB3LYP) =  -898.994840312     A.U. after   12 cycles
 SCF Done:  E(RB3LYP) =  -898.995317930     A.U. after   11 cycles
 SCF Done:  E(RB3LYP) =  -898.995354787     A.U. after   10 cycles
 SCF Done:  E(RB3LYP) =  -898.995376822     A.U. after   11 cycles
 SCF Done:  E(RB3LYP) =  -898.995397552     A.U. after   10 cycles
 SCF Done:  E(RB3LYP) =  -898.995412368     A.U. after   10 cycles
 SCF Done:  E(RB3LYP) =  -898.995435739     A.U. after   11 cycles
 SCF Done:  E(RB3LYP) =  -898.995449902     A.U. after   11 cycles
 SCF Done:  E(RB3LYP) =  -898.995468346     A.U. after   10 cycles
 SCF Done:  E(RB3LYP) =  -898.995490001     A.U. after   11 cycles
 SCF Done:  E(RB3LYP) =  -898.995486898     A.U. after   10 cycles
 SCF Done:  E(RB3LYP) =  -898.995492390     A.U. after   11 cycles
 SCF Done:  E(RB3LYP) =  -898.995492546     A.U. after    8 cycles
 SCF Done:  E(RB3LYP) =  -898.995492632     A.U. after    7 cycles
 Optimization completed.
    -- Stationary point found.
 Normal termination of Gaussian 16 at Tue Dec  8 21:19:55 2020.

 --------------------------------------------------------------------
 #N Geom=AllCheck Guess=TCheck SCRF=Check GenChk RB3LYP/6-31G(d) Freq
 --------------------------------------------------------------------

 Structure from the checkpoint file:  "JID_1839.chk"
 ------------------------------
 CID_85865998_JID_1839_neutraal
 ------------------------------
 Charge =  0 Multiplicity = 1

 SCF Done:  E(RB3LYP) =  -898.995492632     A.U. after    1 cycles

  Exact polarizability: 118.707  -1.601  92.869   1.089  -5.556  84.249
 Approx polarizability: 158.034  -8.409 126.611  -0.201  -9.322 134.432

                      1                      2                      3
                      A                      A                      A
 Frequencies --     24.8440                39.4556                61.8641
 Red. masses --      2.9861                 4.6643                 3.9862
 Frc consts  --      0.0011                 0.0043                 0.0090
 IR Inten    --      0.4030                 3.0020                 0.1383

                      4                      5                      6
                      A                      A                      A
 Frequencies --     78.8873                94.8898               138.1473
 Red. masses --      2.6843                 3.1603                 3.2499
 Frc consts  --      0.0098                 0.0168                 0.0365
 IR Inten    --      0.0437                 1.5027                 0.9531

                      7                      8                      9
                      A                      A                      A
 Frequencies --    183.4795               222.2399               234.7122
 Red. masses --      2.7770                 1.9771                 2.6016
 Frc consts  --      0.0551                 0.0575                 0.0844
 IR Inten    --      1.9941                 5.2330                 0.8217

                     10                     11                     12
                      A                      A                      A
 Frequencies --    278.0449               309.9806               342.0933
 Red. masses --      1.8543                 2.4885                 2.2481
 Frc consts  --      0.0845                 0.1409                 0.1550
 IR Inten    --      3.1504                 1.6741                 0.9830

                     13                     14                     15
                      A                      A                      A
 Frequencies --    388.7966               421.1640               440.2151
 Red. masses --      3.7827                 2.8029                 1.9843
 Frc consts  --      0.3369                 0.2929                 0.2266
 IR Inten    --     13.7670                10.9225                 1.4988

                     16                     17                     18
                      A                      A                      A
 Frequencies --    479.2693               485.2063               569.2373
 Red. masses --      5.3486                 5.9935                 3.1992
 Frc consts  --      0.7239                 0.8313                 0.6108
 IR Inten    --     16.4270                 6.0154                17.1114

                     19                     20                     21
                      A                      A                      A
 Frequencies --    660.0217               678.0536               727.6759
 Red. masses --      3.9364                 2.0820                 2.5045
 Frc consts  --      1.0103                 0.5640                 0.7814
 IR Inten    --     57.4854                15.3033                67.8155

                     22                     23                     24
                      A                      A                      A
 Frequencies --    798.5002               822.3206               866.6466
 Red. masses --      2.1246                 1.1409                 2.1667
 Frc consts  --      0.7981                 0.4546                 0.9588
 IR Inten    --     57.7783                 0.3948                 2.2113

                     25                     26                     27
                      A                      A                      A
 Frequencies --    896.7263               916.2866               943.7112
 Red. masses --      3.0328                 1.9938                 1.3527
 Frc consts  --      1.4369                 0.9863                 0.7098
 IR Inten    --    158.1540                 0.9526                36.0011

                     28                     29                     30
                      A                      A                      A
 Frequencies --    980.0123              1025.7811              1039.3306
 Red. masses --      1.4870                 1.7082                 3.5963
 Frc consts  --      0.8414                 1.0590                 2.2888
 IR Inten    --     12.6828                14.2687               136.2852

                     31                     32                     33
                      A                      A                      A
 Frequencies --   1055.0038              1096.0203              1127.7863
 Red. masses --      1.1293                 2.3011                 2.1330
 Frc consts  --      0.7406                 1.6286                 1.5984
 IR Inten    --     18.4624                 2.3432                30.2795

                     34                     35                     36
                      A                      A                      A
 Frequencies --   1128.8471              1146.6281              1185.8521
 Red. masses --      2.5854                 2.6822                 1.1882
 Frc consts  --      1.9411                 2.0777                 0.9845
 IR Inten    --     42.8116                92.0038                 5.6702

                     37                     38                     39
                      A                      A                      A
 Frequencies --   1200.5928              1242.2463              1315.3505
 Red. masses --      1.6134                 1.3873                 1.4326
 Frc consts  --      1.3702                 1.2614                 1.4604
 IR Inten    --     17.5107                 2.3054                19.5533

                     40                     41                     42
                      A                      A                      A
 Frequencies --   1319.6928              1331.9135              1332.8876
 Red. masses --      2.0292                 1.1635                 1.4173
 Frc consts  --      2.0822                 1.2161                 1.4835
 IR Inten    --     96.8066                 3.8107                35.9487

                     43                     44                     45
                      A                      A                      A
 Frequencies --   1350.8009              1388.4056              1405.3484
 Red. masses --      1.6480                 1.3247                 1.3926
 Frc consts  --      1.7717                 1.5045                 1.6205
 IR Inten    --     35.7237                 1.1365                13.7856

                     46                     47                     48
                      A                      A                      A
 Frequencies --   1413.7028              1449.1341              1476.8902
 Red. masses --      1.2337                 1.2663                 1.1882
 Frc consts  --      1.4528                 1.5667                 1.5270
 IR Inten    --     14.9819                19.7498                 2.4958

                     49                     50                     51
                      A                      A                      A
 Frequencies --   1485.4708              1507.3362              1517.4394
 Red. masses --      1.0858                 1.0826                 1.0412
 Frc consts  --      1.4116                 1.4493                 1.4126
 IR Inten    --      9.3784                 5.0734                 5.3768

                     52                     53                     54
                      A                      A                      A
 Frequencies --   1521.8715              1524.1364              1534.9581
 Red. masses --      1.1071                 1.0635                 1.0757
 Frc consts  --      1.5107                 1.4556                 1.4933
 IR Inten    --     13.1923                 0.1605                 6.2507

                     55                     56                     57
                      A                      A                      A
 Frequencies --   1734.2007              3057.1347              3059.1009
 Red. masses --      4.4650                 1.0636                 1.0619
 Frc consts  --      7.9118                 5.8567                 5.8551
 IR Inten    --      4.5722                17.5010                19.1187

                     58                     59                     60
                      A                      A                      A
 Frequencies --   3063.9465              3093.2446              3094.8708
 Red. masses --      1.0373                 1.0595                 1.0614
 Frc consts  --      5.7376                 5.9730                 5.9898
 IR Inten    --     12.8965                19.9962                 2.9055

                     61                     62                     63
                      A                      A                      A
 Frequencies --   3100.8027              3113.2114              3133.3049
 Red. masses --      1.1000                 1.1018                 1.1010
 Frc consts  --      6.2316                 6.2920                 6.3683
 IR Inten    --     15.8881                15.3589                20.8386

                     64                     65                     66
                      A                      A                      A
 Frequencies --   3138.4747              3152.1880              3156.4431
 Red. masses --      1.1056                 1.0603                 1.1021
 Frc consts  --      6.4165                 6.2073                 6.4695
 IR Inten    --      6.7048                16.2860                 0.9715

                     67                     68                     69
                      A                      A                      A
 Frequencies --   3161.2108              3168.0886              3233.9472
 Red. masses --      1.1062                 1.0919                 1.1152
 Frc consts  --      6.5133                 6.4568                 6.8720
 IR Inten    --     19.4467                 8.1348                20.4134

 - Thermochemistry -
 -------------------
 Temperature   298.150 Kelvin.  Pressure   1.00000 Atm.
 Atom     1 has atomic number  6 and mass  12.00000

 Molecular mass:   178.06637 amu.
 Principal axes and moments of inertia in atomic units:
                           1         2         3
     Eigenvalues --  1302.731412844.735373438.79210
           X            0.99927   0.03796   0.00507
           Y           -0.03797   0.99928   0.00201
           Z           -0.00499  -0.00221   0.99999
 This molecule is an asymmetric top.
 Rotational symmetry number  1.
 Warning -- assumption of classical behavior for rotation
           may cause significant error
 Rotational temperatures (Kelvin)      0.06649     0.03045     0.02519
 Rotational constants (GHZ):           1.38535     0.63441     0.52482
 Zero-point vibrational energy     554266.2 (Joules/Mol)
                                  132.47281 (Kcal/Mol)
 Warning -- explicit consideration of  18 degrees of freedom as
           vibrations may cause significant error
 Vibrational temperatures:     35.74    56.77    89.01   113.50   136.53
          (Kelvin)            198.76   263.99   319.75   337.70   400.04
                              445.99   492.20   559.39   605.96   633.37
                              689.56   698.10   819.01   949.62   975.57
                             1046.96  1148.86  1183.14  1246.91  1290.19
                             1318.33  1357.79  1410.02  1475.87  1495.36
                             1517.92  1576.93  1622.63  1624.16  1649.74
                             1706.18  1727.39  1787.32  1892.50  1898.74
                             1916.33  1917.73  1943.50  1997.61  2021.98
                             2034.00  2084.98  2124.92  2137.26  2168.72
                             2183.26  2189.63  2192.89  2208.46  2495.13
                             4398.53  4401.36  4408.34  4450.49  4452.83
                             4461.36  4479.22  4508.13  4515.57  4535.30
                             4541.42  4548.28  4558.17  4652.93

 Zero-point correction=                           0.211109 (Hartree/Particle)
 Thermal correction to Energy=                    0.224169
 Thermal correction to Enthalpy=                  0.225113
 Thermal correction to Gibbs Free Energy=         0.169883
 Sum of electronic and zero-point Energies=           -898.784384
 Sum of electronic and thermal Energies=              -898.771324
 Sum of electronic and thermal Enthalpies=            -898.770380
 Sum of electronic and thermal Free Energies=         -898.825610

                     E (Thermal)             CV                S
                      KCal/Mol        Cal/Mol-Kelvin    Cal/Mol-Kelvin
 Total                  140.668             46.584            116.242
 Electronic               0.000              0.000              0.000
 Translational            0.889              2.981             41.438
 Rotational               0.889              2.981             30.922
 Vibrational            138.891             40.622             43.881
 Vibration     1          0.593              1.985              6.204
 Vibration     2          0.594              1.981              5.286
 Vibration     3          0.597              1.973              4.397
 Vibration     4          0.600              1.963              3.918
 Vibration     5          0.603              1.953              3.557
 Vibration     6          0.614              1.915              2.829
 Vibration     7          0.631              1.862              2.293
 Vibration     8          0.648              1.807              1.941
 Vibration     9          0.655              1.788              1.843
 Vibration    10          0.679              1.714              1.546
 Vibration    11          0.699              1.655              1.362
 Vibration    12          0.721              1.591              1.202
 Vibration    13          0.757              1.494              1.005
 Vibration    14          0.784              1.424              0.888
 Vibration    15          0.800              1.382              0.826
 Vibration    16          0.836              1.296              0.712
 Vibration    17          0.841              1.283              0.696
 Vibration    18          0.925              1.098              0.506

                           ! Non-Optimized Parameters !
 Normal termination of Gaussian 16 at Tue Dec  8 21:25:28 2020.

 ----------------------------------------------------------------------
 # B3LYP/6-311++G(d,p) empiricaldispersion=gd3bj scf=xqc pop=npa geom=c
 heck
 ----------------------------------------------------------------------

 --------------------------------------
 CID_85865998_JID_1839_Energie_neutraal
 --------------------------------------
 Structure from the checkpoint file:  "JID_1839.chk"
 Charge =  0 Multiplicity = 1

 SCF Done:  E(RB3LYP) =  -899.170967692     A.U. after   14 cycles
 Normal termination of Gaussian 16 at Tue Dec  8 21:29:02 2020.

 ----------------------------------------------------------------------
 # B3LYP/6-311++G(d,p) empiricaldispersion=gd3bj scf=xqc pop=npa geom=c
 heck
 ----------------------------------------------------------------------

 ------------------------------------
 CID_85865998_JID_1839_Energie_kation
 ------------------------------------
 Structure from the checkpoint file:  "JID_1839.chk"
 Charge =  1 Multiplicity = 2

 SCF Done:  E(UB3LYP) =  -898.821303356     A.U. after   25 cycles
 Normal termination of Gaussian 16 at Tue Dec  8 21:36:29 2020.
 Gaussian 16:  ES64L-G16RevA.03 25-Dec-2016

 ----------------------------------------------------------------------
 # B3LYP/6-311++G(d,p) empiricaldispersion=gd3bj scf=xqc pop=npa geom=c
 heck
 ----------------------------------------------------------------------

 -----------------------------------
 CID_85865998_JID_1839_Energie_anion
 -----------------------------------
 Structure from the checkpoint file:  "JID_1839.chk"
 Charge = -1 Multiplicity = 2

                         Standard orientation:
 ---------------------------------------------------------------------
 Center     Atomic      Atomic             Coordinates (Angstroms)
 Number     Number       Type             X           Y           Z
 ---------------------------------------------------------------------
      1          6           0        2.615405    1.878193    0.759064
      2          6           0        1.824652    1.651812   -0.517884
      3          8           0        0.670123    0.787744   -0.305472
      4         16           0        0.985679   -0.818534   -0.134457
      5          8           0        1.957883   -1.205889   -1.158885
      6          8           0        1.255719   -1.114740    1.272884
      7          6           0       -0.649186   -1.446998   -0.583685
      8          6           0       -1.698744   -1.327529    0.522247
      9          6           0       -2.108599    0.105605    0.916808
     10          6           0       -2.600375    0.929210   -0.241867
     11          6           0       -3.877242    1.245793   -0.458566
     12          1           0        1.963189    2.254469    1.552849
     13          1           0        3.403600    2.616854    0.573771
     14          1           0        3.082962    0.953795    1.107828
     15          1           0        1.375223    2.577412   -0.884257
     16          1           0        2.438715    1.217729   -1.311752
     17          1           0       -0.928978   -0.931381   -1.505005
     18          1           0       -0.450879   -2.496242   -0.824130
     19          1           0       -2.585854   -1.862813    0.162076
     20          1           0       -1.333691   -1.858273    1.407415
     21          1           0       -2.896381    0.028503    1.675363
     22          1           0       -1.253954    0.603500    1.388555
     23          1           0       -1.838828    1.271626   -0.941333
     24          1           0       -4.185116    1.835446   -1.317893
     25          1           0       -4.666137    0.932481    0.222913
 ---------------------------------------------------------------------

 SCF Done:  E(UB3LYP) =  -899.155814400     A.U. after   32 cycles

 The electronic state is 2-A.
 Alpha  occ. eigenvalues --  -88.97898 -19.07396 -19.03054 -19.02940 -10.13868
 Alpha  occ. eigenvalues --  -10.12011 -10.08872 -10.07551 -10.07502 -10.07136
 Alpha  occ. eigenvalues --  -10.06471  -8.04054  -6.00444  -6.00243  -6.00072
 Alpha  occ. eigenvalues --   -1.04905  -0.94517  -0.92094  -0.73299  -0.69043
 Alpha  occ. eigenvalues --   -0.66968  -0.61895  -0.57372  -0.52883  -0.49143
 Alpha  occ. eigenvalues --   -0.45572  -0.43588  -0.42050  -0.38726  -0.38390
 Alpha  occ. eigenvalues --   -0.37640  -0.35680  -0.35031  -0.34034  -0.32526
 Alpha  occ. eigenvalues --   -0.31509  -0.29644  -0.28920  -0.27741  -0.27677
 Alpha  occ. eigenvalues --   -0.26253  -0.24344  -0.24213  -0.23627  -0.22595
 Alpha  occ. eigenvalues --   -0.21924  -0.20144  -0.16511   0.04531
 Alpha virt. eigenvalues --    0.06219   0.07474   0.07740   0.08789   0.09208
 Alpha virt. eigenvalues --    0.09647   0.10263   0.10515   0.10831   0.11837
 Alpha virt. eigenvalues --    0.12409   0.12744   0.13203   0.14065   0.14456

  Beta  occ. eigenvalues --  -88.97897 -19.07387 -19.03044 -19.02929 -10.13838
  Beta  occ. eigenvalues --  -10.11977 -10.08846 -10.07539 -10.07491 -10.07107
  Beta  occ. eigenvalues --  -10.06433  -8.04052  -6.00443  -6.00242  -6.00070
  Beta  occ. eigenvalues --   -1.04883  -0.94495  -0.92069  -0.73259  -0.69004
  Beta  occ. eigenvalues --   -0.66918  -0.61844  -0.57319  -0.52809  -0.49080
  Beta  occ. eigenvalues --   -0.45509  -0.43548  -0.42008  -0.38696  -0.38353
  Beta  occ. eigenvalues --   -0.37601  -0.35629  -0.34991  -0.33994  -0.32478
  Beta  occ. eigenvalues --   -0.31473  -0.29600  -0.28872  -0.27714  -0.27632
  Beta  occ. eigenvalues --   -0.26225  -0.24321  -0.24184  -0.23594  -0.22572
  Beta  occ. eigenvalues --   -0.21895  -0.20121  -0.16449
  Beta virt. eigenvalues --    0.06900   0.07447   0.08161   0.08415   0.09091
  Beta virt. eigenvalues --    0.09750   0.10005   0.10699   0.10943   0.11458
  Beta virt. eigenvalues --    0.12311   0.12606   0.12987   0.13396   0.14248

 Mulliken charges and spin densities:
               1          2
     1  C    0.556362  -0.869743
     2  C    0.010079  -0.329898
     3  O   -0.111406   0.054781
     4  S    0.919392  -0.762293
     5  O   -0.229847   0.049295
     6  O   -0.186463   0.019440
     7  C   -0.900815   0.203101
     8  C    1.285663  -1.554059
     9  C   -0.057688  -0.102678
    10  C   -1.069552   1.305098
    11  C    1.368877  -2.036343
    12  H    0.019158   0.134770
    13  H   -0.503618   0.647973
    14  H    0.063403   0.112791
    15  H   -0.579117   0.755697
    16  H    0.113007   0.066514
    17  H   -0.102696   0.364406
    18  H   -0.487177   0.721289
    19  H   -0.310442   0.472232
    20  H   -0.009341   0.207710
    21  H   -0.402257   0.590166
    22  H    0.236699  -0.090264
    23  H   -0.207768   0.397780
    24  H   -0.211802   0.325631
    25  H   -0.202652   0.316604
 Sum of Mulliken charges =  -1.00000   1.00000

 Dipole moment (field-independent basis, Debye):
    X=              1.4735    Y=             -1.5435    Z=              1.0220  Tot=              2.3660
 Quadrupole moment (field-independent basis, Debye-Ang):
   XX=           -139.5655   YY=           -129.0436   ZZ=           -106.6085
   XY=             -5.2188   XZ=             -0.7325   YZ=              2.1112

 Summary of Natural Population Analysis:

                                       Natural Population
                Natural  -----------------------------------------------
    Atom  No    Charge         Core      Valence    Rydberg      Total
 -----------------------------------------------------------------------
      C    1   -0.30222      0.99966     2.29672    0.00584     3.30222
      C    2   -0.01603      0.99959     2.00412    0.01232     3.01603
      O    3   -0.37831      0.99991     3.36812    0.01028     4.37831
      S    4    1.12092      4.99931     1.78075    0.09901     6.87908
      O    5   -0.45714      0.99990     3.45191    0.00532     4.45714
      O    6   -0.45439      0.99990     3.44892    0.00556     4.45439
      C    7   -0.28571      0.99956     2.27426    0.01189     3.28571
      C    8   -0.19453      0.99961     2.18489    0.01002     3.19453
      C    9   -0.21240      0.99960     2.20232    0.01048     3.21240
      C   10   -0.08620      0.99956     2.07633    0.01032     3.08620
      C   11   -0.18695      0.99956     2.18067    0.00672     3.18695
      H   12    0.10328      0.00000     0.39555    0.00117     0.39672
      H   13    0.10434      0.00000     0.39391    0.00175     0.39566
      H   14    0.10501      0.00000     0.39391    0.00108     0.39499
      H   15    0.09807      0.00000     0.39948    0.00245     0.40193
      H   16    0.09506      0.00000     0.40368    0.00126     0.40494
      H   17    0.12129      0.00000     0.37695    0.00177     0.37871
      H   18    0.12152      0.00000     0.37688    0.00160     0.37848
      H   19    0.10707      0.00000     0.39060    0.00234     0.39293
      H   20    0.10816      0.00000     0.39051    0.00133     0.39184
      H   21    0.10113      0.00000     0.39760    0.00126     0.39887
      H   22    0.10835      0.00000     0.38970    0.00195     0.39165
      H   23    0.09769      0.00000     0.40034    0.00198     0.40231
      H   24    0.09365      0.00000     0.40505    0.00131     0.40635
      H   25    0.08834      0.00000     0.41014    0.00152     0.41166
 =======================================================================
   * Total *    0.00000     14.99617    32.79331    0.21052    48.00000

 Normal termination of Gaussian 16 at Tue Dec  8 21:44:59 2020.
