 Gaussian 16, Revision A.03,

 -----------------------------------------------------------
 # opt freq B3LYP/6-31G(d) empiricaldispersion=gd3bj scf=xqc
 -----------------------------------------------------------

 -------------------------------
 CID_145361123_JID_6384_neutraal
 -------------------------------
 Symbolic Z-matrix:
 Charge =  0 Multiplicity = 1

 SCF Done:  E(RB3LYP) =  -721.811668466     A.U. after   16 cycles
 SCF Done:  E(RB3LYP) =  -721.821777194     A.U. after   14 cycles
 SCF Done:  E(RB3LYP) =  -721.823288003     A.U. after   13 cycles
 SCF Done:  E(RB3LYP) =  -721.823957566     A.U. after   14 cycles
 SCF Done:  E(RB3LYP) =  -721.824748988     A.U. after   12 cycles
 SCF Done:  E(RB3LYP) =  -721.824886891     A.U. after   13 cycles
 SCF Done:  E(RB3LYP) =  -721.824967903     A.U. after   11 cycles
 SCF Done:  E(RB3LYP) =  -721.825003619     A.U. after   10 cycles
 SCF Done:  E(RB3LYP) =  -721.825011794     A.U. after   10 cycles
 SCF Done:  E(RB3LYP) =  -721.825012509     A.U. after    9 cycles
 SCF Done:  E(RB3LYP) =  -721.825012649     A.U. after    8 cycles
 Optimization completed.
    -- Stationary point found.
 Normal termination of Gaussian 16 at Thu Dec 10 22:25:51 2020.

 --------------------------------------------------------------------
 #N Geom=AllCheck Guess=TCheck SCRF=Check GenChk RB3LYP/6-31G(d) Freq
 --------------------------------------------------------------------

 Structure from the checkpoint file:  "JID_6384.chk"
 -------------------------------
 CID_145361123_JID_6384_neutraal
 -------------------------------
 Charge =  0 Multiplicity = 1

 SCF Done:  E(RB3LYP) =  -721.825012649     A.U. after    1 cycles

  Exact polarizability: 215.427  13.119 137.496 -13.597   4.628  89.936
 Approx polarizability: 326.684  29.200 218.028 -34.585  11.981 140.150

                      1                      2                      3
                      A                      A                      A
 Frequencies --     42.8399                54.7914                86.6583
 Red. masses --      6.0911                 3.4994                 7.1889
 Frc consts  --      0.0066                 0.0062                 0.0318
 IR Inten    --      0.9518                 1.5988                 2.8217

                      4                      5                      6
                      A                      A                      A
 Frequencies --    119.5928               147.8366               156.8244
 Red. masses --      4.8111                 3.9987                 4.5951
 Frc consts  --      0.0405                 0.0515                 0.0666
 IR Inten    --      1.7030                 2.1662                 6.3595

                      7                      8                      9
                      A                      A                      A
 Frequencies --    212.2837               229.0866               247.2783
 Red. masses --      1.9619                 2.3075                 1.3501
 Frc consts  --      0.0521                 0.0714                 0.0486
 IR Inten    --      1.4285                 4.8758                 2.9747

                     10                     11                     12
                      A                      A                      A
 Frequencies --    261.7528               276.2277               316.4551
 Red. masses --      1.3260                 4.6611                 2.6822
 Frc consts  --      0.0535                 0.2095                 0.1583
 IR Inten    --      1.1452                 0.4309                 2.4225

                     13                     14                     15
                      A                      A                      A
 Frequencies --    336.4831               363.0062               414.7001
 Red. masses --      3.3558                 2.8201                 2.6780
 Frc consts  --      0.2239                 0.2189                 0.2714
 IR Inten    --      2.1090                 3.3312                11.8464

                     16                     17                     18
                      A                      A                      A
 Frequencies --    435.9489               449.8766               464.0522
 Red. masses --      3.7375                 3.3915                 3.2369
 Frc consts  --      0.4185                 0.4044                 0.4107
 IR Inten    --     11.9285                 1.7988                 3.8158

                     19                     20                     21
                      A                      A                      A
 Frequencies --    489.2583               518.2188               540.6630
 Red. masses --      5.7548                 8.1512                 3.9539
 Frc consts  --      0.8116                 1.2897                 0.6810
 IR Inten    --      4.4968                 5.5957                 4.2225

                     22                     23                     24
                      A                      A                      A
 Frequencies --    544.8617               608.6454               637.5850
 Red. masses --      3.3073                 5.3564                 5.9701
 Frc consts  --      0.5785                 1.1691                 1.4299
 IR Inten    --      1.6215                 1.8637                 2.3506

                     25                     26                     27
                      A                      A                      A
 Frequencies --    664.4168               724.9375               741.8871
 Red. masses --      5.2804                 2.4583                 7.2784
 Frc consts  --      1.3734                 0.7612                 2.3603
 IR Inten    --      3.9159                 4.7400                 5.6215

                     28                     29                     30
                      A                      A                      A
 Frequencies --    772.2692               795.0926               884.7776
 Red. masses --      7.4699                 3.2283                 2.2699
 Frc consts  --      2.6248                 1.2024                 1.0469
 IR Inten    --      1.9887                 9.3618                 1.7575

                     31                     32                     33
                      A                      A                      A
 Frequencies --    900.0521               924.0640               926.7858
 Red. masses --      2.0611                 1.8208                 1.7362
 Frc consts  --      0.9838                 0.9160                 0.8786
 IR Inten    --      7.1181                23.8428                17.4925

                     34                     35                     36
                      A                      A                      A
 Frequencies --    974.6693               981.6318              1006.5144
 Red. masses --      2.1845                 3.3628                 3.2940
 Frc consts  --      1.2227                 1.9092                 1.9661
 IR Inten    --      7.0361                 1.0510                31.5370

                     37                     38                     39
                      A                      A                      A
 Frequencies --   1036.6702              1075.3813              1083.2269
 Red. masses --      1.5336                 1.4966                 1.9096
 Frc consts  --      0.9711                 1.0197                 1.3202
 IR Inten    --      8.0528                 3.9130                25.6693

                     40                     41                     42
                      A                      A                      A
 Frequencies --   1108.1818              1116.6039              1150.6160
 Red. masses --      2.7953                 1.9143                 2.4851
 Frc consts  --      2.0226                 1.4062                 1.9385
 IR Inten    --     52.3490                21.7283                11.8563

                     43                     44                     45
                      A                      A                      A
 Frequencies --   1174.0718              1182.6884              1184.9121
 Red. masses --      3.6003                 2.2475                 3.3039
 Frc consts  --      2.9240                 1.8523                 2.7331
 IR Inten    --     45.3499                 2.6772                34.1015

                     46                     47                     48
                      A                      A                      A
 Frequencies --   1230.7175              1262.3854              1287.2075
 Red. masses --      6.1792                 3.9318                 1.3891
 Frc consts  --      5.5144                 3.6916                 1.3561
 IR Inten    --     31.6615                11.7191                51.7636

                     49                     50                     51
                      A                      A                      A
 Frequencies --   1299.4636              1313.7741              1369.9713
 Red. masses --      1.3010                 1.2736                 1.5103
 Frc consts  --      1.2944                 1.2952                 1.6701
 IR Inten    --     48.7831                39.8733                 5.0196

                     52                     53                     54
                      A                      A                      A
 Frequencies --   1383.1041              1393.7866              1399.2729
 Red. masses --      1.2545                 1.8234                 1.4327
 Frc consts  --      1.4139                 2.0870                 1.6528
 IR Inten    --      0.5218                48.0675                46.4618

                     55                     56                     57
                      A                      A                      A
 Frequencies --   1405.4610              1420.6444              1434.5928
 Red. masses --      5.1497                 1.4170                 1.4286
 Frc consts  --      5.9933                 1.6850                 1.7323
 IR Inten    --     22.3579                 2.4176                 1.8343

                     58                     59                     60
                      A                      A                      A
 Frequencies --   1441.7979              1444.4363              1478.1270
 Red. masses --      1.2792                 1.2775                 1.5277
 Frc consts  --      1.5668                 1.5704                 1.9666
 IR Inten    --     11.9581                16.6439               102.7360

                     61                     62                     63
                      A                      A                      A
 Frequencies --   1496.1563              1505.0767              1510.1259
 Red. masses --      1.2572                 1.1798                 1.2113
 Frc consts  --      1.6582                 1.5747                 1.6275
 IR Inten    --     53.2474                10.2128                 5.7258

                     64                     65                     66
                      A                      A                      A
 Frequencies --   1521.6398              1524.1123              1526.4128
 Red. masses --      1.1235                 1.0705                 1.2345
 Frc consts  --      1.5327                 1.4652                 1.6946
 IR Inten    --     12.6935                 7.1096                19.6580

                     67                     68                     69
                      A                      A                      A
 Frequencies --   1533.3928              1576.1690              1635.5628
 Red. masses --      1.0930                 3.9380                 5.6176
 Frc consts  --      1.5142                 5.7642                 8.8539
 IR Inten    --     11.5683               283.2847                74.7222

                     70                     71                     72
                      A                      A                      A
 Frequencies --   2355.8299              3018.9466              3043.4447
 Red. masses --     12.6816                 1.0683                 1.0718
 Frc consts  --     41.4679                 5.7367                 5.8494
 IR Inten    --     39.0777                32.1153                23.1468

                     73                     74                     75
                      A                      A                      A
 Frequencies --   3050.2999              3052.2190              3070.4911
 Red. masses --      1.0592                 1.0512                 1.0418
 Frc consts  --      5.8063                 5.7699                 5.7869
 IR Inten    --     26.8859                53.0030                20.0214

                     76                     77                     78
                      A                      A                      A
 Frequencies --   3076.4518              3105.7890              3111.4022
 Red. masses --      1.0812                 1.0971                 1.0963
 Frc consts  --      6.0293                 6.2353                 6.2529
 IR Inten    --     45.6133                51.1902                13.4726

                     79                     80                     81
                      A                      A                      A
 Frequencies --   3138.9135              3141.9291              3152.9113
 Red. masses --      1.1034                 1.1032                 1.1003
 Frc consts  --      6.4054                 6.4164                 6.4447
 IR Inten    --      9.9129                18.8324                33.4573

                     82                     83                     84
                      A                      A                      A
 Frequencies --   3177.8070              3185.3718              3206.8937
 Red. masses --      1.0936                 1.0914                 1.0926
 Frc consts  --      6.5069                 6.5248                 6.6201
 IR Inten    --      2.1544                13.2799                 3.7921

 - Thermochemistry -
 -------------------
 Temperature   298.150 Kelvin.  Pressure   1.00000 Atm.
 Atom     1 has atomic number  6 and mass  12.00000

 Molecular mass:   218.11676 amu.
 Principal axes and moments of inertia in atomic units:
                           1         2         3
     Eigenvalues --  1668.599555511.319136586.41112
           X            0.99979  -0.02018   0.00245
           Y            0.02017   0.99979   0.00249
           Z           -0.00250  -0.00244   0.99999
 This molecule is an asymmetric top.
 Rotational symmetry number  1.
 Warning -- assumption of classical behavior for rotation
           may cause significant error
 Rotational temperatures (Kelvin)      0.05191     0.01572     0.01315
 Rotational constants (GHZ):           1.08159     0.32746     0.27401
 Zero-point vibrational energy     649850.2 (Joules/Mol)
                                  155.31793 (Kcal/Mol)
 Warning -- explicit consideration of  23 degrees of freedom as
           vibrations may cause significant error
 Vibrational temperatures:     61.64    78.83   124.68   172.07   212.70
          (Kelvin)            225.64   305.43   329.60   355.78   376.60
                              397.43   455.31   484.12   522.28   596.66
                              627.23   647.27   667.67   703.93   745.60
                              777.89   783.93   875.70   917.34   955.95
                             1043.02  1067.41  1111.12  1143.96  1273.00
                             1294.97  1329.52  1333.44  1402.33  1412.35
                             1448.15  1491.54  1547.23  1558.52  1594.43
                             1606.54  1655.48  1689.23  1701.62  1704.82
                             1770.73  1816.29  1852.00  1869.64  1890.23
                             1971.08  1989.98  2005.35  2013.24  2022.14
                             2043.99  2064.06  2074.43  2078.22  2126.70
                             2152.64  2165.47  2172.73  2189.30  2192.86
                             2196.17  2206.21  2267.76  2353.21  3389.51
                             4343.59  4378.84  4388.70  4391.46  4417.75
                             4426.33  4468.54  4476.61  4516.20  4520.54
                             4536.34  4572.16  4583.04  4614.00

 Zero-point correction=                           0.247515 (Hartree/Particle)
 Thermal correction to Energy=                    0.261765
 Thermal correction to Enthalpy=                  0.262709
 Thermal correction to Gibbs Free Energy=         0.206370
 Sum of electronic and zero-point Energies=           -721.577498
 Sum of electronic and thermal Energies=              -721.563248
 Sum of electronic and thermal Enthalpies=            -721.562303
 Sum of electronic and thermal Free Energies=         -721.618643

                     E (Thermal)             CV                S
                      KCal/Mol        Cal/Mol-Kelvin    Cal/Mol-Kelvin
 Total                  164.260             55.218            118.577
 Electronic               0.000              0.000              0.000
 Translational            0.889              2.981             42.043
 Rotational               0.889              2.981             32.471
 Vibrational            162.483             49.257             44.063
 Vibration     1          0.595              1.980              5.123
 Vibration     2          0.596              1.976              4.637
 Vibration     3          0.601              1.958              3.734
 Vibration     4          0.609              1.933              3.107
 Vibration     5          0.617              1.905              2.700
 Vibration     6          0.620              1.895              2.588
 Vibration     7          0.643              1.822              2.024
 Vibration     8          0.652              1.797              1.886
 Vibration     9          0.661              1.767              1.750
 Vibration    10          0.669              1.743              1.650
 Vibration    11          0.678              1.717              1.557
 Vibration    12          0.703              1.642              1.328
 Vibration    13          0.717              1.603              1.229
 Vibration    14          0.737              1.548              1.109
 Vibration    15          0.778              1.438              0.910
 Vibration    16          0.796              1.392              0.839
 Vibration    17          0.809              1.361              0.796
 Vibration    18          0.822              1.330              0.754
 Vibration    19          0.845              1.274              0.686
 Vibration    20          0.873              1.210              0.614
 Vibration    21          0.896              1.160              0.564
 Vibration    22          0.900              1.151              0.555
 Vibration    23          0.968              1.014              0.435

                           ! Non-Optimized Parameters !
 Normal termination of Gaussian 16 at Thu Dec 10 22:36:06 2020.

 ----------------------------------------------------------------------
 # B3LYP/6-311++G(d,p) empiricaldispersion=gd3bj scf=xqc pop=npa geom=c
 heck
 ----------------------------------------------------------------------

 ---------------------------------------
 CID_145361123_JID_6384_Energie_neutraal
 ---------------------------------------
 Structure from the checkpoint file:  "JID_6384.chk"
 Charge =  0 Multiplicity = 1

 SCF Done:  E(RB3LYP) =  -722.016012580     A.U. after   15 cycles
 Normal termination of Gaussian 16 at Thu Dec 10 22:40:14 2020.

 ----------------------------------------------------------------------
 # B3LYP/6-311++G(d,p) empiricaldispersion=gd3bj scf=xqc pop=npa geom=c
 heck
 ----------------------------------------------------------------------

 -------------------------------------
 CID_145361123_JID_6384_Energie_kation
 -------------------------------------
 Structure from the checkpoint file:  "JID_6384.chk"
 Charge =  1 Multiplicity = 2

 SCF Done:  E(UB3LYP) =  -721.721741462     A.U. after   25 cycles
 Normal termination of Gaussian 16 at Thu Dec 10 22:49:55 2020.
 Gaussian 16:  ES64L-G16RevA.03 25-Dec-2016

 ----------------------------------------------------------------------
 # B3LYP/6-311++G(d,p) empiricaldispersion=gd3bj scf=xqc pop=npa geom=c
 heck
 ----------------------------------------------------------------------

 ------------------------------------
 CID_145361123_JID_6384_Energie_anion
 ------------------------------------
 Structure from the checkpoint file:  "JID_6384.chk"
 Charge = -1 Multiplicity = 2

                         Standard orientation:
 ---------------------------------------------------------------------
 Center     Atomic      Atomic             Coordinates (Angstroms)
 Number     Number       Type             X           Y           Z
 ---------------------------------------------------------------------
      1          6           0        2.103888   -2.233512    0.547309
      2          6           0        2.835148   -1.214377   -0.323677
      3          6           0        1.931276   -0.431164   -1.286570
      4          7           0        1.107963    0.570405   -0.597385
      5          6           0        1.922223    1.461368    0.232573
      6          6           0        2.812340    0.640761    1.170833
      7          8           0        3.608603   -0.287567    0.457698
      8          6           0       -0.228729    0.338731   -0.364670
      9          7           0       -0.635749   -0.943662   -0.528507
     10          7           0       -1.887602   -1.305879   -0.337722
     11          6           0       -2.780476   -0.382667    0.047604
     12          6           0       -2.454842    0.979728    0.155918
     13          6           0       -1.157704    1.386221   -0.079437
     14          6           0       -0.824262    2.853853   -0.143930
     15          6           0       -4.117024   -0.838705    0.300566
     16          7           0       -5.211311   -1.165491    0.518222
     17          1           0        1.636027   -2.997383   -0.080439
     18          1           0        1.305254   -1.780910    1.139407
     19          1           0        2.817826   -2.714114    1.223672
     20          1           0        3.584962   -1.738384   -0.926533
     21          1           0        2.573617    0.119237   -1.986423
     22          1           0        1.280076   -1.101357   -1.845039
     23          1           0        1.290479    2.120914    0.824216
     24          1           0        2.551615    2.077132   -0.422968
     25          1           0        2.184044    0.136947    1.920590
     26          1           0        3.509236    1.300930    1.696922
     27          1           0       -3.232999    1.706421    0.369086
     28          1           0       -1.723289    3.428435   -0.385538
     29          1           0       -0.437213    3.244374    0.804880
     30          1           0       -0.072603    3.049259   -0.914787
 ---------------------------------------------------------------------

 SCF Done:  E(UB3LYP) =  -722.030495116     A.U. after   32 cycles

 The electronic state is 2-A.
 Alpha  occ. eigenvalues --  -19.02823 -14.21302 -14.16466 -14.16100 -14.15027
 Alpha  occ. eigenvalues --  -10.12292 -10.12175 -10.10342 -10.10005 -10.09049
 Alpha  occ. eigenvalues --  -10.06634 -10.06249 -10.05405 -10.05346 -10.04329
 Alpha  occ. eigenvalues --  -10.03075  -0.94435  -0.86359  -0.82197  -0.76006
 Alpha  occ. eigenvalues --   -0.69197  -0.68338  -0.67399  -0.62227  -0.59380
 Alpha  occ. eigenvalues --   -0.57851  -0.54925  -0.50912  -0.49732  -0.45367
 Alpha  occ. eigenvalues --   -0.41947  -0.39917  -0.38337  -0.38166  -0.37924
 Alpha  occ. eigenvalues --   -0.34875  -0.34653  -0.32668  -0.31544  -0.30722
 Alpha  occ. eigenvalues --   -0.29288  -0.28507  -0.27923  -0.27236  -0.27067
 Alpha  occ. eigenvalues --   -0.26179  -0.25366  -0.25114  -0.22718  -0.22563
 Alpha  occ. eigenvalues --   -0.21116  -0.19474  -0.18352  -0.16702  -0.15744
 Alpha  occ. eigenvalues --   -0.14782  -0.08721  -0.07223   0.04499
 Alpha virt. eigenvalues --    0.06853   0.08026   0.08683   0.09241   0.09982
 Alpha virt. eigenvalues --    0.10710   0.10952   0.11049   0.12100   0.12204
 Alpha virt. eigenvalues --    0.13330   0.13795   0.14384   0.14777   0.15071

  Beta  occ. eigenvalues --  -19.02820 -14.21294 -14.16194 -14.15999 -14.14100
  Beta  occ. eigenvalues --  -10.12293 -10.12173 -10.10340 -10.10037 -10.09048
  Beta  occ. eigenvalues --  -10.06624 -10.06242 -10.05442 -10.05340 -10.04329
  Beta  occ. eigenvalues --  -10.02607  -0.94428  -0.85697  -0.81717  -0.75842
  Beta  occ. eigenvalues --   -0.69110  -0.67773  -0.66936  -0.62141  -0.59200
  Beta  occ. eigenvalues --   -0.57636  -0.54874  -0.50701  -0.49124  -0.45284
  Beta  occ. eigenvalues --   -0.41863  -0.39603  -0.38315  -0.38051  -0.37734
  Beta  occ. eigenvalues --   -0.34822  -0.34537  -0.32493  -0.31457  -0.30372
  Beta  occ. eigenvalues --   -0.29164  -0.28453  -0.27440  -0.27078  -0.26151
  Beta  occ. eigenvalues --   -0.25815  -0.25354  -0.25057  -0.22531  -0.22234
  Beta  occ. eigenvalues --   -0.20734  -0.19371  -0.17908  -0.16134  -0.14789
  Beta  occ. eigenvalues --   -0.12901  -0.07448  -0.06364
  Beta virt. eigenvalues --    0.06843   0.08039   0.08564   0.09157   0.10301
  Beta virt. eigenvalues --    0.10640   0.10872   0.10967   0.11839   0.12109
  Beta virt. eigenvalues --    0.12693   0.13404   0.13793   0.14399   0.14733

 Mulliken charges and spin densities:
               1          2
     1  C   -0.498347  -0.010356
     2  C    0.027946   0.001404
     3  C   -0.386963   0.005626
     4  N    0.257682   0.016150
     5  C   -0.055031  -0.037763
     6  C   -0.383488   0.014177
     7  O   -0.120736   0.000317
     8  C   -1.007396  -0.070618
     9  N   -0.279159   0.079520
    10  N    0.103869   0.452936
    11  C    0.803499   0.002729
    12  C    0.370059   0.165617
    13  C    0.595878   0.265712
    14  C   -0.483397  -0.174110
    15  C   -1.540403  -0.005505
    16  N   -0.310953   0.050345
    17  H    0.133828  -0.001937
    18  H    0.204477  -0.000044
    19  H    0.125291   0.008283
    20  H    0.191435  -0.000403
    21  H    0.126829   0.002501
    22  H    0.197390   0.003054
    23  H    0.064916   0.024363
    24  H    0.160833  -0.005689
    25  H    0.141333   0.004764
    26  H    0.131173   0.027065
    27  H    0.153433   0.001700
    28  H    0.128795  -0.006993
    29  H   -0.023203   0.186382
    30  H    0.170408   0.000771
 Sum of Mulliken charges =  -1.00000   1.00000

 Dipole moment (field-independent basis, Debye):
    X=             10.2459    Y=              4.0703    Z=             -0.5520  Tot=             11.0386
 Quadrupole moment (field-independent basis, Debye-Ang):
   XX=           -172.2668   YY=           -114.8358   ZZ=           -103.3858
   XY=            -16.1657   XZ=              2.2283   YZ=             -0.3924

 Summary of Natural Population Analysis:

                                       Natural Population
                Natural  -----------------------------------------------
    Atom  No    Charge         Core      Valence    Rydberg      Total
 -----------------------------------------------------------------------
      C    1   -0.30129      0.99964     2.29634    0.00532     3.30129
      C    2    0.06134      0.99956     1.92722    0.01188     2.93866
      C    3   -0.09761      0.99960     2.08777    0.01024     3.09761
      N    4   -0.26242      0.99965     2.75029    0.01248     3.76242
      C    5   -0.09681      0.99961     2.08549    0.01170     3.09681
      C    6   -0.01779      0.99958     2.00620    0.01201     3.01779
      O    7   -0.30941      0.99989     3.29887    0.01065     4.30941
      C    8    0.18976      0.99947     1.79546    0.01530     2.81024
      N    9   -0.13380      0.99969     2.62021    0.01390     3.63380
      N   10    0.01744      0.99969     2.46544    0.01744     3.48256
      C   11   -0.01247      0.99945     1.99799    0.01504     3.01247
      C   12   -0.08565      0.99949     2.07736    0.00880     3.08565
      C   13    0.02552      0.99948     1.96541    0.00959     2.97448
      C   14   -0.29792      0.99965     2.29287    0.00539     3.29792
      C   15    0.16111      0.99963     1.82048    0.01877     2.83889
      N   16   -0.20194      0.99979     2.69097    0.01118     3.70194
      H   17    0.10796      0.00000     0.39121    0.00083     0.39204
      H   18    0.11046      0.00000     0.38860    0.00094     0.38954
      H   19    0.09276      0.00000     0.40611    0.00114     0.40724
      H   20    0.08466      0.00000     0.41402    0.00132     0.41534
      H   21    0.08738      0.00000     0.41148    0.00114     0.41262
      H   22    0.12073      0.00000     0.37790    0.00137     0.37927
      H   23    0.10715      0.00000     0.39129    0.00156     0.39285
      H   24    0.08734      0.00000     0.41162    0.00104     0.41266
      H   25    0.08164      0.00000     0.41695    0.00141     0.41836
      H   26    0.08606      0.00000     0.41236    0.00159     0.41394
      H   27    0.09617      0.00000     0.40298    0.00085     0.40383
      H   28    0.09969      0.00000     0.39953    0.00078     0.40031
      H   29    0.09981      0.00000     0.39846    0.00173     0.40019
      H   30    0.10014      0.00000     0.39880    0.00106     0.39986
 =======================================================================
   * Total *    0.00000     15.99388    41.79967    0.20644    58.00000

 Normal termination of Gaussian 16 at Thu Dec 10 23:04:55 2020.
