 Gaussian 16, Revision A.03,

 -----------------------------------------------------------
 # opt freq B3LYP/6-31G(d) empiricaldispersion=gd3bj scf=xqc
 -----------------------------------------------------------

 -------------------------------
 CID_133957308_JID_9886_neutraal
 -------------------------------
 Symbolic Z-matrix:
 Charge =  0 Multiplicity = 1

 SCF Done:  E(RB3LYP) =  -828.785281947     A.U. after   15 cycles
 SCF Done:  E(RB3LYP) =  -828.785853756     A.U. after   14 cycles
 SCF Done:  E(RB3LYP) =  -828.794054573     A.U. after   12 cycles
 SCF Done:  E(RB3LYP) =  -828.788233261     A.U. after   14 cycles
 SCF Done:  E(RB3LYP) =  -828.795235205     A.U. after   12 cycles
 SCF Done:  E(RB3LYP) =  -828.796210880     A.U. after   12 cycles
 SCF Done:  E(RB3LYP) =  -828.797329271     A.U. after   12 cycles
 SCF Done:  E(RB3LYP) =  -828.798202966     A.U. after   13 cycles
 SCF Done:  E(RB3LYP) =  -828.799082302     A.U. after   12 cycles
 SCF Done:  E(RB3LYP) =  -828.798853481     A.U. after   12 cycles
 SCF Done:  E(RB3LYP) =  -828.799727225     A.U. after    8 cycles
 SCF Done:  E(RB3LYP) =  -828.799727768     A.U. after    8 cycles
 SCF Done:  E(RB3LYP) =  -828.799728062     A.U. after    8 cycles
 SCF Done:  E(RB3LYP) =  -828.799728123     A.U. after    7 cycles
 Optimization completed.
    -- Stationary point found.
 Normal termination of Gaussian 16 at Mon Dec 14 13:49:19 2020.

 --------------------------------------------------------------------
 #N Geom=AllCheck Guess=TCheck SCRF=Check GenChk RB3LYP/6-31G(d) Freq
 --------------------------------------------------------------------

 Structure from the checkpoint file:  "JID_9886.chk"
 -------------------------------
 CID_133957308_JID_9886_neutraal
 -------------------------------
 Charge =  0 Multiplicity = 1

 SCF Done:  E(RB3LYP) =  -828.799728123     A.U. after    1 cycles

  Exact polarizability: 173.745  10.264 178.809  19.443  -4.154 155.135
 Approx polarizability: 221.688  22.802 284.761  37.170  -0.052 255.916

                      1                      2                      3
                      A                      A                      A
 Frequencies --     25.9748                30.3339                45.0839
 Red. masses --      3.8148                 3.1045                 3.8670
 Frc consts  --      0.0015                 0.0017                 0.0046
 IR Inten    --      0.1083                 0.2937                 0.2131

                      4                      5                      6
                      A                      A                      A
 Frequencies --     55.7721                79.2889               107.2799
 Red. masses --      3.6994                 4.2048                 2.9791
 Frc consts  --      0.0068                 0.0156                 0.0202
 IR Inten    --      0.8778                 0.5741                 3.2055

                      7                      8                      9
                      A                      A                      A
 Frequencies --    120.8780               130.4957               144.6199
 Red. masses --      3.0104                 3.2459                 2.4709
 Frc consts  --      0.0259                 0.0326                 0.0304
 IR Inten    --      0.3281                 0.9285                 3.6025

                     10                     11                     12
                      A                      A                      A
 Frequencies --    153.4964               178.3058               191.6202
 Red. masses --      1.7972                 2.8518                 3.5194
 Frc consts  --      0.0249                 0.0534                 0.0761
 IR Inten    --      1.1937                 2.2515                 1.0020

                     13                     14                     15
                      A                      A                      A
 Frequencies --    223.6456               238.5426               253.7958
 Red. masses --      1.3684                 1.5568                 1.7449
 Frc consts  --      0.0403                 0.0522                 0.0662
 IR Inten    --      1.4306                 0.9193                 6.8399

                     16                     17                     18
                      A                      A                      A
 Frequencies --    271.7380               281.9112               303.6674
 Red. masses --      2.5075                 2.7975                 2.9578
 Frc consts  --      0.1091                 0.1310                 0.1607
 IR Inten    --      0.2804                 2.0470                 5.2032

                     19                     20                     21
                      A                      A                      A
 Frequencies --    327.3706               353.1041               374.7355
 Red. masses --      2.6421                 2.9118                 2.8589
 Frc consts  --      0.1668                 0.2139                 0.2365
 IR Inten    --      1.6683                 1.6250                 1.7780

                     22                     23                     24
                      A                      A                      A
 Frequencies --    407.9663               440.1795               453.2629
 Red. masses --      2.7872                 3.7471                 4.5347
 Frc consts  --      0.2733                 0.4278                 0.5489
 IR Inten    --      2.1257                 1.8870                 4.7428

                     25                     26                     27
                      A                      A                      A
 Frequencies --    503.2157               518.5305               533.4419
 Red. masses --      3.3589                 3.5680                 4.8010
 Frc consts  --      0.5011                 0.5652                 0.8049
 IR Inten    --      5.4920                12.7941                 2.3298

                     28                     29                     30
                      A                      A                      A
 Frequencies --    544.0106               588.7644               601.5417
 Red. masses --      2.8645                 4.0420                 4.1119
 Frc consts  --      0.4995                 0.8255                 0.8766
 IR Inten    --      7.4773                 1.8851                 3.7096

                     31                     32                     33
                      A                      A                      A
 Frequencies --    619.9038               687.9935               735.5395
 Red. masses --      3.5417                 4.1311                 3.4614
 Frc consts  --      0.8019                 1.1521                 1.1033
 IR Inten    --     10.0357                 4.2781                10.4546

                     34                     35                     36
                      A                      A                      A
 Frequencies --    746.6809               764.8908               774.3630
 Red. masses --      3.4858                 2.2499                 1.4541
 Frc consts  --      1.1450                 0.7755                 0.5137
 IR Inten    --     11.5158                11.1259                 1.2166

                     37                     38                     39
                      A                      A                      A
 Frequencies --    786.8623               804.6338               813.7665
 Red. masses --      1.7244                 1.5866                 1.4284
 Frc consts  --      0.6291                 0.6052                 0.5573
 IR Inten    --     38.6610                 5.3882                 0.1166

                     40                     41                     42
                      A                      A                      A
 Frequencies --    836.6519               848.9738               880.5429
 Red. masses --      2.6011                 1.3659                 1.4673
 Frc consts  --      1.0728                 0.5800                 0.6703
 IR Inten    --     11.7501                 4.2491                 0.9721

                     43                     44                     45
                      A                      A                      A
 Frequencies --    918.0940               941.3280               945.3497
 Red. masses --      2.1504                 2.9450                 1.4025
 Frc consts  --      1.0680                 1.5375                 0.7385
 IR Inten    --      2.1625                 6.8406                 2.3804

                     46                     47                     48
                      A                      A                      A
 Frequencies --    961.7935               975.0392               980.0252
 Red. masses --      2.2742                 1.2792                 2.2985
 Frc consts  --      1.2395                 0.7165                 1.3007
 IR Inten    --     19.5748                 0.1173                 2.0048

                     49                     50                     51
                      A                      A                      A
 Frequencies --   1025.5324              1043.2429              1047.6268
 Red. masses --      2.1245                 2.2335                 2.9063
 Frc consts  --      1.3165                 1.4322                 1.8793
 IR Inten    --     19.5528                11.6814                33.4670

                     52                     53                     54
                      A                      A                      A
 Frequencies --   1063.8719              1065.2068              1080.5073
 Red. masses --      1.3519                 2.0557                 1.3648
 Frc consts  --      0.9015                 1.3743                 0.9388
 IR Inten    --      6.1756                38.3914                 2.5314

                     55                     56                     57
                      A                      A                      A
 Frequencies --   1086.0067              1089.1143              1100.4227
 Red. masses --      1.8562                 1.7154                 1.8610
 Frc consts  --      1.2898                 1.1989                 1.3278
 IR Inten    --      3.0781                11.2975                11.0921

                     58                     59                     60
                      A                      A                      A
 Frequencies --   1129.9546              1147.3922              1150.1602
 Red. masses --      1.5125                 1.1770                 1.7165
 Frc consts  --      1.1378                 0.9130                 1.3379
 IR Inten    --     68.4842                 4.4735                27.4040

                     61                     62                     63
                      A                      A                      A
 Frequencies --   1161.3781              1180.2031              1190.6266
 Red. masses --      1.3139                 2.0955                 1.1235
 Frc consts  --      1.0442                 1.7197                 0.9384
 IR Inten    --      4.1816                 3.8305                 1.4554

                     64                     65                     66
                      A                      A                      A
 Frequencies --   1195.6275              1209.6489              1214.2811
 Red. masses --      1.9241                 1.4588                 2.0419
 Frc consts  --      1.6206                 1.2576                 1.7739
 IR Inten    --     14.0616                 3.4987                23.5374

                     67                     68                     69
                      A                      A                      A
 Frequencies --   1240.0409              1253.2290              1262.0430
 Red. masses --      3.6330                 2.7975                 1.9055
 Frc consts  --      3.2914                 2.5887                 1.7882
 IR Inten    --     23.3895                62.7153                 9.1884

                     70                     71                     72
                      A                      A                      A
 Frequencies --   1284.6553              1290.4802              1320.3616
 Red. masses --      1.4138                 1.2380                 1.5998
 Frc consts  --      1.3747                 1.2147                 1.6432
 IR Inten    --      9.5773                20.6570                 1.3089

                     73                     74                     75
                      A                      A                      A
 Frequencies --   1359.0880              1373.6786              1375.8185
 Red. masses --      2.3583                 1.8394                 1.5747
 Frc consts  --      2.5665                 2.0450                 1.7562
 IR Inten    --      2.8942                 8.1393                21.4584

                     76                     77                     78
                      A                      A                      A
 Frequencies --   1387.3166              1403.2766              1417.9820
 Red. masses --      1.5466                 1.3890                 1.3677
 Frc consts  --      1.7538                 1.6116                 1.6203
 IR Inten    --     67.8929                 8.9203                 2.6918

                     79                     80                     81
                      A                      A                      A
 Frequencies --   1443.6928              1448.9464              1473.3945
 Red. masses --      1.3853                 1.2086                 1.4627
 Frc consts  --      1.7011                 1.4950                 1.8709
 IR Inten    --     17.3209                 5.3625                23.4358

                     82                     83                     84
                      A                      A                      A
 Frequencies --   1496.1352              1497.2272              1505.3855
 Red. masses --      1.3404                 1.5453                 1.3150
 Frc consts  --      1.7678                 2.0410                 1.7557
 IR Inten    --     11.2199                14.3028                13.3947

                     85                     86                     87
                      A                      A                      A
 Frequencies --   1517.0236              1523.3042              1530.1779
 Red. masses --      1.1329                 1.0904                 1.0872
 Frc consts  --      1.5361                 1.4908                 1.4999
 IR Inten    --      7.2422                 8.1181                10.5903

                     88                     89                     90
                      A                      A                      A
 Frequencies --   1532.3131              1539.8467              1541.1171
 Red. masses --      1.1600                 1.6783                 1.2878
 Frc consts  --      1.6047                 2.3446                 1.8021
 IR Inten    --      4.1763                33.5937                 3.8990

                     91                     92                     93
                      A                      A                      A
 Frequencies --   1548.7406              1550.1807              1553.1338
 Red. masses --      1.2585                 1.1038                 1.0767
 Frc consts  --      1.7786                 1.5629                 1.5302
 IR Inten    --      8.6580                 7.7815                 3.9797

                     94                     95                     96
                      A                      A                      A
 Frequencies --   1555.2209              1638.7394              1665.1353
 Red. masses --      1.1591                 6.0641                 6.0909
 Frc consts  --      1.6517                 9.5948                 9.9502
 IR Inten    --     29.3947                 6.7929                 3.5366

                     97                     98                     99
                      A                      A                      A
 Frequencies --   1747.8731              3029.1237              3042.0043
 Red. masses --      9.0629                 1.0511                 1.0804
 Frc consts  --     16.3131                 5.6823                 5.8906
 IR Inten    --    212.4055                33.7676                49.0292

                    100                    101                    102
                      A                      A                      A
 Frequencies --   3048.3630              3049.9182              3074.5538
 Red. masses --      1.0507                 1.0533                 1.0397
 Frc consts  --      5.7528                 5.7728                 5.7905
 IR Inten    --     25.2146                48.2751                17.1560

                    103                    104                    105
                      A                      A                      A
 Frequencies --   3085.9140              3087.7081              3100.3214
 Red. masses --      1.0648                 1.0955                 1.0968
 Frc consts  --      5.9746                 6.1537                 6.2117
 IR Inten    --     45.6639                19.9651                 7.1856

                    106                    107                    108
                      A                      A                      A
 Frequencies --   3118.3711              3132.9910              3134.8342
 Red. masses --      1.0998                 1.0867                 1.1012
 Frc consts  --      6.3010                 6.2843                 6.3761
 IR Inten    --     46.7438                21.2031                20.0583

                    109                    110                    111
                      A                      A                      A
 Frequencies --   3137.1922              3149.9846              3151.3575
 Red. masses --      1.1034                 1.0553                 1.1011
 Frc consts  --      6.3982                 6.1695                 6.4427
 IR Inten    --      9.4448                26.5827                11.2980

                    112                    113                    114
                      A                      A                      A
 Frequencies --   3163.8331              3175.6234              3188.3986
 Red. masses --      1.0613                 1.0871                 1.0984
 Frc consts  --      6.2589                 6.4593                 6.5788
 IR Inten    --     11.6528                 8.5525                 5.9007

                    115                    116                    117
                      A                      A                      A
 Frequencies --   3190.3487              3205.8844              3207.3111
 Red. masses --      1.0885                 1.0941                 1.0950
 Frc consts  --      6.5276                 6.6253                 6.6367
 IR Inten    --     10.9357                 2.9137                29.4904

                    118                    119                    120
                      A                      A                      A
 Frequencies --   3225.8418              3226.8447              3256.0035
 Red. masses --      1.1170                 1.0932                 1.1128
 Frc consts  --      6.8481                 6.7069                 6.9508
 IR Inten    --     11.0691                10.4875                10.7669

 - Thermochemistry -
 -------------------
 Temperature   298.150 Kelvin.  Pressure   1.00000 Atm.
 Atom     1 has atomic number  6 and mass  12.00000

 Molecular mass:   261.17288 amu.
 Principal axes and moments of inertia in atomic units:
                           1         2         3
     Eigenvalues --  2941.741207179.663957615.56082
           X            0.99981   0.01864   0.00562
           Y           -0.01878   0.99947   0.02666
           Z           -0.00512  -0.02676   0.99963
 This molecule is an asymmetric top.
 Rotational symmetry number  1.
 Warning -- assumption of classical behavior for rotation
           may cause significant error
 Rotational temperatures (Kelvin)      0.02944     0.01206     0.01137
 Rotational constants (GHZ):           0.61349     0.25137     0.23698
 Zero-point vibrational energy     963855.7 (Joules/Mol)
                                  230.36705 (Kcal/Mol)
 Warning -- explicit consideration of  31 degrees of freedom as
           vibrations may cause significant error
 Vibrational temperatures:     37.37    43.64    64.87    80.24   114.08
          (Kelvin)            154.35   173.92   187.75   208.08   220.85
                              256.54   275.70   321.78   343.21   365.16
                              390.97   405.61   436.91   471.01   508.04
                              539.16   586.97   633.32   652.14   724.02
                              746.05   767.50   782.71   847.10   865.48
                              891.90   989.87  1058.28  1074.31  1100.51
                             1114.14  1132.12  1157.69  1170.83  1203.76
                             1221.48  1266.90  1320.93  1354.36  1360.15
                             1383.81  1402.86  1410.04  1475.51  1500.99
                             1507.30  1530.67  1532.60  1554.61  1562.52
                             1566.99  1583.26  1625.75  1650.84  1654.82
                             1670.96  1698.05  1713.05  1720.24  1740.42
                             1747.08  1784.14  1803.12  1815.80  1848.33
                             1856.71  1899.71  1955.42  1976.42  1979.50
                             1996.04  2019.00  2040.16  2077.15  2084.71
                             2119.89  2152.60  2154.18  2165.91  2182.66
                             2191.70  2201.58  2204.66  2215.50  2217.32
                             2228.29  2230.36  2234.61  2237.62  2357.78
                             2395.76  2514.80  4358.23  4376.77  4385.91
                             4388.15  4423.60  4439.94  4442.52  4460.67
                             4486.64  4507.68  4510.33  4513.72  4532.13
                             4534.10  4552.05  4569.01  4587.39  4590.20
                             4612.55  4614.61  4641.27  4642.71  4684.66

 Zero-point correction=                           0.367113 (Hartree/Particle)
 Thermal correction to Energy=                    0.386551
 Thermal correction to Enthalpy=                  0.387495
 Thermal correction to Gibbs Free Energy=         0.318543
 Sum of electronic and zero-point Energies=           -828.432615
 Sum of electronic and thermal Energies=              -828.413177
 Sum of electronic and thermal Enthalpies=            -828.412233
 Sum of electronic and thermal Free Energies=         -828.481185

                     E (Thermal)             CV                S
                      KCal/Mol        Cal/Mol-Kelvin    Cal/Mol-Kelvin
 Total                  242.564             74.049            145.121
 Electronic               0.000              0.000              0.000
 Translational            0.889              2.981             42.580
 Rotational               0.889              2.981             33.442
 Vibrational            240.787             68.087             69.100
 Vibration     1          0.593              1.985              6.115
 Vibration     2          0.594              1.984              5.807
 Vibration     3          0.595              1.979              5.022
 Vibration     4          0.596              1.975              4.601
 Vibration     5          0.600              1.963              3.908
 Vibration     6          0.606              1.943              3.318
 Vibration     7          0.609              1.932              3.086
 Vibration     8          0.612              1.923              2.939
 Vibration     9          0.616              1.908              2.742
 Vibration    10          0.619              1.899              2.628
 Vibration    11          0.629              1.869              2.346
 Vibration    12          0.634              1.851              2.212
 Vibration    13          0.649              1.805              1.929
 Vibration    14          0.657              1.782              1.814
 Vibration    15          0.665              1.756              1.704
 Vibration    16          0.675              1.725              1.585
 Vibration    17          0.681              1.707              1.522
 Vibration    18          0.695              1.667              1.397
 Vibration    19          0.711              1.621              1.273
 Vibration    20          0.729              1.569              1.152
 Vibration    21          0.746              1.524              1.060
 Vibration    22          0.773              1.453              0.934
 Vibration    23          0.800              1.383              0.826
 Vibration    24          0.812              1.354              0.786
 Vibration    25          0.859              1.243              0.650
 Vibration    26          0.874              1.209              0.613
 Vibration    27          0.888              1.176              0.580
 Vibration    28          0.899              1.153              0.557
 Vibration    29          0.946              1.056              0.469
 Vibration    30          0.960              1.029              0.447
 Vibration    31          0.980              0.990              0.417

 Optimization completed.
    -- Stationary point found.
 Normal termination of Gaussian 16 at Mon Dec 14 14:16:08 2020.

 ----------------------------------------------------------------------
 # B3LYP/6-311++G(d,p) empiricaldispersion=gd3bj scf=xqc pop=npa geom=c
 heck
 ----------------------------------------------------------------------

 ---------------------------------------
 CID_133957308_JID_9886_Energie_neutraal
 ---------------------------------------
 Structure from the checkpoint file:  "JID_9886.chk"
 Charge =  0 Multiplicity = 1

 SCF Done:  E(RB3LYP) =  -829.024755194     A.U. after   16 cycles
 Normal termination of Gaussian 16 at Mon Dec 14 14:29:17 2020.

 ----------------------------------------------------------------------
 # B3LYP/6-311++G(d,p) empiricaldispersion=gd3bj scf=xqc pop=npa geom=c
 heck
 ----------------------------------------------------------------------

 -------------------------------------
 CID_133957308_JID_9886_Energie_kation
 -------------------------------------
 Structure from the checkpoint file:  "JID_9886.chk"
 Charge =  1 Multiplicity = 2

 SCF Done:  E(UB3LYP) =  -828.729017671     A.U. after   33 cycles
 SCF Done:  E(UB3LYP) =  -828.729017671     a.u. after    1 cycles
 Normal termination of Gaussian 16 at Mon Dec 14 15:08:35 2020.
 Gaussian 16:  ES64L-G16RevA.03 25-Dec-2016

 ----------------------------------------------------------------------
 # B3LYP/6-311++G(d,p) empiricaldispersion=gd3bj scf=xqc pop=npa geom=c
 heck
 ----------------------------------------------------------------------

 ------------------------------------
 CID_133957308_JID_9886_Energie_anion
 ------------------------------------
 Structure from the checkpoint file:  "JID_9886.chk"
 Charge = -1 Multiplicity = 2

                         Standard orientation:
 ---------------------------------------------------------------------
 Center     Atomic      Atomic             Coordinates (Angstroms)
 Number     Number       Type             X           Y           Z
 ---------------------------------------------------------------------
      1          6           0        2.447546    2.577266    1.101413
      2          6           0        3.177539    1.684752    0.081349
      3          6           0        2.778549    0.230641    0.191453
      4          6           0        3.261945   -0.540913    1.257211
      5          6           0        2.935498   -1.886454    1.403317
      6          6           0        2.112615   -2.501598    0.458692
      7          6           0        1.614419   -1.756102   -0.606431
      8          6           0        1.932857   -0.401781   -0.732535
      9          8           0        1.427051    0.259585   -1.847053
     10          6           0        0.427723    1.255258   -1.597468
     11          6           0       -0.671803    0.815908   -0.619015
     12          8           0       -0.828809    1.467255    0.413247
     13          7           0       -1.395949   -0.297377   -0.923933
     14          6           0       -1.374596   -0.937008   -2.232584
     15          6           0       -2.404959   -0.824096    0.031370
     16          6           0       -1.781458   -1.129052    1.397785
     17          6           0       -3.657084    0.043416    0.034742
     18          6           0       -4.702607   -0.059123    1.122576
     19          6           0       -3.869782    1.190266    0.983500
     20          1           0        1.361194    2.486478    1.005880
     21          1           0        2.729236    3.628276    0.969557
     22          1           0        2.712076    2.283814    2.123587
     23          1           0        2.998794    2.040032   -0.937813
     24          1           0        4.259695    1.763230    0.246434
     25          1           0        3.920460   -0.065782    1.980809
     26          1           0        3.330969   -2.454374    2.240384
     27          1           0        1.860534   -3.554448    0.548146
     28          1           0        0.981352   -2.211103   -1.359713
     29          1           0        0.861743    2.158152   -1.165484
     30          1           0        0.019102    1.505801   -2.581360
     31          1           0       -1.305510   -2.023659   -2.110440
     32          1           0       -2.291584   -0.716631   -2.796474
     33          1           0       -0.510093   -0.617630   -2.809386
     34          1           0       -2.696170   -1.788941   -0.402021
     35          1           0       -1.497689   -0.220157    1.926578
     36          1           0       -2.484014   -1.702520    2.010181
     37          1           0       -0.879393   -1.732211    1.256885
     38          1           0       -4.053410    0.186837   -0.970040
     39          1           0       -5.747889   -0.029662    0.827265
     40          1           0       -4.503811   -0.706624    1.971456
     41          1           0       -3.098170    1.381857    1.719250
     42          1           0       -4.340140    2.087898    0.592047
 ---------------------------------------------------------------------

 SCF Done:  E(UB3LYP) =  -829.012573014     A.U. after   33 cycles
 SCF Done:  E(UB3LYP) =  -829.012573014     a.u. after    1 cycles

 The electronic state is 2-A.
 Alpha  occ. eigenvalues --  -19.05619 -18.99400 -14.25003 -10.17807 -10.14016
 Alpha  occ. eigenvalues --  -10.13754 -10.12042 -10.10406 -10.09226 -10.08728
 Alpha  occ. eigenvalues --  -10.08372 -10.08307 -10.08292 -10.08232 -10.07961
 Alpha  occ. eigenvalues --  -10.07845 -10.07256 -10.07076 -10.06139  -0.97171
 Alpha  occ. eigenvalues --   -0.94217  -0.84448  -0.76852  -0.76519  -0.70102
 Alpha  occ. eigenvalues --   -0.67807  -0.66096  -0.63887  -0.62082  -0.60220
 Alpha  occ. eigenvalues --   -0.56500  -0.54757  -0.51735  -0.50773  -0.49969
 Alpha  occ. eigenvalues --   -0.48473  -0.44825  -0.42989  -0.40934  -0.40419
 Alpha  occ. eigenvalues --   -0.39996  -0.39835  -0.38654  -0.37439  -0.35712
 Alpha  occ. eigenvalues --   -0.35559  -0.34426  -0.33957  -0.33821  -0.32882
 Alpha  occ. eigenvalues --   -0.31859  -0.31139  -0.30461  -0.29545  -0.29075
 Alpha  occ. eigenvalues --   -0.28775  -0.28142  -0.27119  -0.26837  -0.26339
 Alpha  occ. eigenvalues --   -0.26112  -0.25282  -0.25058  -0.24613  -0.20697
 Alpha  occ. eigenvalues --   -0.20034  -0.19698  -0.16637  -0.16085  -0.14925
 Alpha  occ. eigenvalues --   -0.14537   0.04111
 Alpha virt. eigenvalues --    0.05720   0.06348   0.06855   0.07309   0.07592
 Alpha virt. eigenvalues --    0.07960   0.08320   0.08590   0.08835   0.09168
 Alpha virt. eigenvalues --    0.09436   0.09948   0.10533   0.10580   0.11443

  Beta  occ. eigenvalues --  -19.05617 -18.99399 -14.25000 -10.17805 -10.14003
  Beta  occ. eigenvalues --  -10.13757 -10.12032 -10.10357 -10.09217 -10.08722
  Beta  occ. eigenvalues --  -10.08352 -10.08294 -10.08281 -10.08214 -10.07933
  Beta  occ. eigenvalues --  -10.07835 -10.07251 -10.07069 -10.06130  -0.97166
  Beta  occ. eigenvalues --   -0.94214  -0.84436  -0.76819  -0.76498  -0.70072
  Beta  occ. eigenvalues --   -0.67786  -0.66067  -0.63848  -0.62040  -0.60171
  Beta  occ. eigenvalues --   -0.56474  -0.54724  -0.51699  -0.50744  -0.49941
  Beta  occ. eigenvalues --   -0.48443  -0.44796  -0.42952  -0.40899  -0.40382
  Beta  occ. eigenvalues --   -0.39959  -0.39795  -0.38622  -0.37413  -0.35679
  Beta  occ. eigenvalues --   -0.35538  -0.34392  -0.33938  -0.33803  -0.32851
  Beta  occ. eigenvalues --   -0.31824  -0.31108  -0.30433  -0.29525  -0.29049
  Beta  occ. eigenvalues --   -0.28754  -0.28126  -0.27095  -0.26815  -0.26314
  Beta  occ. eigenvalues --   -0.26079  -0.25258  -0.25033  -0.24588  -0.20681
  Beta  occ. eigenvalues --   -0.20023  -0.19680  -0.16601  -0.16007  -0.14897
  Beta  occ. eigenvalues --   -0.14507
  Beta virt. eigenvalues --    0.05955   0.06650   0.06894   0.07259   0.07601
  Beta virt. eigenvalues --    0.07958   0.08283   0.08537   0.08723   0.09139
  Beta virt. eigenvalues --    0.09326   0.09651   0.10255   0.10940   0.11073

 Mulliken charges and spin densities:
               1          2
     1  C   -0.308527  -0.260730
     2  C    0.452728  -0.792834
     3  C    0.575083   0.529892
     4  C   -0.631597   0.407939
     5  C    0.149595  -0.455891
     6  C    0.543775  -0.846165
     7  C    0.108171  -0.125627
     8  C   -0.821601   0.046124
     9  O   -0.025886   0.008358
    10  C   -0.513981  -0.365560
    11  C    0.182973   0.088174
    12  O   -0.206011  -0.003878
    13  N    0.232967   0.085525
    14  C    1.309535  -1.668750
    15  C   -0.922457   0.299867
    16  C   -0.512354   0.027047
    17  C    0.554382  -0.184591
    18  C    0.231464  -0.634545
    19  C   -0.173637  -0.248654
    20  H    0.182175   0.018998
    21  H    0.045467   0.072370
    22  H    0.092050   0.027793
    23  H    0.096342   0.091827
    24  H    0.006739   0.148806
    25  H   -0.079122   0.238477
    26  H   -0.183018   0.349410
    27  H   -0.441493   0.621497
    28  H   -0.082135   0.246782
    29  H    0.192348  -0.022750
    30  H   -0.320541   0.498906
    31  H   -0.363123   0.566899
    32  H   -0.588091   0.740810
    33  H    0.130050   0.092959
    34  H   -0.205501   0.370774
    35  H    0.093672   0.091010
    36  H   -0.085051   0.222784
    37  H    0.404621  -0.232543
    38  H   -0.357666   0.619901
    39  H   -0.150213   0.292692
    40  H    0.182945  -0.062108
    41  H    0.153393   0.008526
    42  H    0.051529   0.090478
 Sum of Mulliken charges =  -1.00000   1.00000

 Dipole moment (field-independent basis, Debye):
    X=              3.0726    Y=              3.5898    Z=              3.2636  Tot=              5.7427
 Quadrupole moment (field-independent basis, Debye-Ang):
   XX=           -190.9947   YY=           -165.7393   ZZ=           -162.5342
   XY=              2.4397   XZ=            -14.0796   YZ=             -4.1436

 Summary of Natural Population Analysis:

                                       Natural Population
                Natural  -----------------------------------------------
    Atom  No    Charge         Core      Valence    Rydberg      Total
 -----------------------------------------------------------------------
      C    1   -0.28839      0.99965     2.28425    0.00449     3.28839
      C    2   -0.20019      0.99961     2.19228    0.00830     3.20019
      C    3   -0.03025      0.99945     2.02083    0.00997     3.03025
      C    4   -0.09416      0.99952     2.08503    0.00961     3.09416
      C    5   -0.10532      0.99956     2.09595    0.00981     3.10532
      C    6   -0.09914      0.99956     2.08940    0.01017     3.09914
      C    7   -0.10909      0.99950     2.09955    0.01003     3.10909
      C    8    0.14749      0.99930     1.83904    0.01417     2.85251
      O    9   -0.29133      0.99987     3.28280    0.00867     4.29133
      C   10   -0.04781      0.99952     2.03646    0.01183     3.04781
      C   11    0.32852      0.99963     1.64869    0.02316     2.67148
      O   12   -0.32511      0.99988     3.32015    0.00508     4.32511
      N   13   -0.25164      0.99963     2.73775    0.01426     3.75164
      C   14   -0.17748      0.99962     2.16913    0.00874     3.17748
      C   15   -0.00095      0.99956     1.98675    0.01463     3.00095
      C   16   -0.29466      0.99963     2.28919    0.00584     3.29466
      C   17   -0.11709      0.99957     2.10553    0.01199     3.11709
      C   18   -0.20111      0.99962     2.19430    0.00719     3.20111
      C   19   -0.19324      0.99961     2.18436    0.00928     3.19324
      H   20    0.11361      0.00000     0.38513    0.00126     0.38639
      H   21    0.09371      0.00000     0.40541    0.00088     0.40629
      H   22    0.09554      0.00000     0.40348    0.00099     0.40446
      H   23    0.10219      0.00000     0.39654    0.00126     0.39781
      H   24    0.10006      0.00000     0.39884    0.00110     0.39994
      H   25    0.09835      0.00000     0.40071    0.00095     0.40165
      H   26    0.10064      0.00000     0.39846    0.00090     0.39936
      H   27    0.10349      0.00000     0.39520    0.00131     0.39651
      H   28    0.10802      0.00000     0.39002    0.00197     0.39198
      H   29    0.09457      0.00000     0.40394    0.00150     0.40543
      H   30    0.09997      0.00000     0.39873    0.00130     0.40003
      H   31    0.09867      0.00000     0.39891    0.00241     0.40133
      H   32    0.09797      0.00000     0.39950    0.00253     0.40203
      H   33    0.10809      0.00000     0.39007    0.00185     0.39191
      H   34    0.09991      0.00000     0.39785    0.00224     0.40009
      H   35    0.11128      0.00000     0.38769    0.00104     0.38872
      H   36    0.09771      0.00000     0.40146    0.00083     0.40229
      H   37    0.10886      0.00000     0.38996    0.00118     0.39114
      H   38    0.10661      0.00000     0.39148    0.00191     0.39339
      H   39    0.10124      0.00000     0.39791    0.00085     0.39876
      H   40    0.09979      0.00000     0.39931    0.00090     0.40021
      H   41    0.10992      0.00000     0.38913    0.00096     0.39008
      H   42    0.10077      0.00000     0.39851    0.00072     0.39923
 =======================================================================
   * Total *    0.00000     18.99230    51.77966    0.22804    71.00000

 Normal termination of Gaussian 16 at Mon Dec 14 15:45:26 2020.
