 Gaussian 16, Revision A.03,

 -----------------------------------------------------------
 # opt freq B3LYP/6-31G(d) empiricaldispersion=gd3bj scf=xqc
 -----------------------------------------------------------

 ------------------------------
 CID_82129362_JID_7407_neutraal
 ------------------------------
 Symbolic Z-matrix:
 Charge =  0 Multiplicity = 1

 SCF Done:  E(RB3LYP) =  -786.114025659     A.U. after   15 cycles
 SCF Done:  E(RB3LYP) =  -786.117311676     A.U. after   12 cycles
 SCF Done:  E(RB3LYP) =  -786.117676744     A.U. after   11 cycles
 SCF Done:  E(RB3LYP) =  -786.117846193     A.U. after   11 cycles
 SCF Done:  E(RB3LYP) =  -786.117988846     A.U. after   10 cycles
 SCF Done:  E(RB3LYP) =  -786.118329282     A.U. after   12 cycles
 SCF Done:  E(RB3LYP) =  -786.118409867     A.U. after   12 cycles
 SCF Done:  E(RB3LYP) =  -786.118388203     A.U. after   12 cycles
 SCF Done:  E(RB3LYP) =  -786.118463522     A.U. after   12 cycles
 SCF Done:  E(RB3LYP) =  -786.118561232     A.U. after   12 cycles
 SCF Done:  E(RB3LYP) =  -786.118566211     A.U. after    8 cycles
 SCF Done:  E(RB3LYP) =  -786.118580724     A.U. after   11 cycles
 SCF Done:  E(RB3LYP) =  -786.118579322     A.U. after   10 cycles
 SCF Done:  E(RB3LYP) =  -786.118583258     A.U. after   10 cycles
 SCF Done:  E(RB3LYP) =  -786.118583285     A.U. after    7 cycles
 Optimization completed.
    -- Stationary point found.
 Normal termination of Gaussian 16 at Fri Dec 11 12:04:07 2020.

 --------------------------------------------------------------------
 #N Geom=AllCheck Guess=TCheck SCRF=Check GenChk RB3LYP/6-31G(d) Freq
 --------------------------------------------------------------------

 Structure from the checkpoint file:  "JID_7407.chk"
 ------------------------------
 CID_82129362_JID_7407_neutraal
 ------------------------------
 Charge =  0 Multiplicity = 1

 SCF Done:  E(RB3LYP) =  -786.118583285     A.U. after    1 cycles

  Exact polarizability: 202.680   2.537 161.342   5.574  -0.162  92.554
 Approx polarizability: 276.406  -8.825 265.463  15.638  -7.271 139.115

                      1                      2                      3
                      A                      A                      A
 Frequencies --     51.9774                67.8553                83.1083
 Red. masses --      3.4375                 3.0805                 2.7252
 Frc consts  --      0.0055                 0.0084                 0.0111
 IR Inten    --      2.7912                 2.0293                 0.9122

                      4                      5                      6
                      A                      A                      A
 Frequencies --     93.7094               115.6968               133.2257
 Red. masses --      3.4812                 4.3728                 4.0989
 Frc consts  --      0.0180                 0.0345                 0.0429
 IR Inten    --      0.5682                 1.2390                 3.9327

                      7                      8                      9
                      A                      A                      A
 Frequencies --    153.1434               180.1068               217.8633
 Red. masses --      1.2462                 3.1761                 3.4362
 Frc consts  --      0.0172                 0.0607                 0.0961
 IR Inten    --      0.2308                 5.7776                 1.8443

                     10                     11                     12
                      A                      A                      A
 Frequencies --    237.3430               246.1980               251.1698
 Red. masses --      1.1572                 1.3723                 1.7026
 Frc consts  --      0.0384                 0.0490                 0.0633
 IR Inten    --      0.0698                 0.2175                 0.9846

                     13                     14                     15
                      A                      A                      A
 Frequencies --    274.1561               299.1788               307.5573
 Red. masses --      1.5352                 2.1521                 2.4909
 Frc consts  --      0.0680                 0.1135                 0.1388
 IR Inten    --      2.7447                 3.6447                 0.3784

                     16                     17                     18
                      A                      A                      A
 Frequencies --    318.3907               333.7096               365.5887
 Red. masses --      3.9945                 3.7146                 3.9792
 Frc consts  --      0.2386                 0.2437                 0.3134
 IR Inten    --      8.9092                 0.6563                 0.6273

                     19                     20                     21
                      A                      A                      A
 Frequencies --    386.7506               399.4869               444.5306
 Red. masses --      4.0129                 3.4332                 3.5163
 Frc consts  --      0.3537                 0.3228                 0.4094
 IR Inten    --      0.5157                 3.6639                 0.4531

                     22                     23                     24
                      A                      A                      A
 Frequencies --    467.8617               516.3818               529.6420
 Red. masses --      3.2876                 4.6532                 2.5912
 Frc consts  --      0.4240                 0.7310                 0.4283
 IR Inten    --      7.5915                16.0805                17.7909

                     25                     26                     27
                      A                      A                      A
 Frequencies --    567.4684               584.0089               587.8550
 Red. masses --      3.7852                 4.3371                 3.8859
 Frc consts  --      0.7182                 0.8715                 0.7912
 IR Inten    --      1.8246                 5.5487                25.7237

                     28                     29                     30
                      A                      A                      A
 Frequencies --    626.8226               673.1111               706.1410
 Red. masses --      1.9250                 5.3386                 4.3118
 Frc consts  --      0.4456                 1.4251                 1.2667
 IR Inten    --     54.4771                 4.4236                 1.9977

                     31                     32                     33
                      A                      A                      A
 Frequencies --    733.9194               763.1181               773.2461
 Red. masses --      4.8610                 4.7531                 5.1303
 Frc consts  --      1.5427                 1.6308                 1.8073
 IR Inten    --      5.2962                31.2460                27.6133

                     34                     35                     36
                      A                      A                      A
 Frequencies --    827.6672               840.8516               881.6882
 Red. masses --      2.2369                 2.3202                 3.2783
 Frc consts  --      0.9028                 0.9665                 1.5015
 IR Inten    --      7.4756                 7.6401                 6.6030

                     37                     38                     39
                      A                      A                      A
 Frequencies --    944.1419               953.5050               962.9731
 Red. masses --      2.1350                 1.5183                 1.3717
 Frc consts  --      1.1213                 0.8133                 0.7494
 IR Inten    --      5.2127                 0.8325                 0.3900

                     40                     41                     42
                      A                      A                      A
 Frequencies --    968.1153               994.1538              1016.0066
 Red. masses --      2.5677                 1.8981                 2.5814
 Frc consts  --      1.4179                 1.1053                 1.5700
 IR Inten    --      1.3976                12.7796                16.5466

                     43                     44                     45
                      A                      A                      A
 Frequencies --   1045.9810              1079.4551              1120.4940
 Red. masses --      1.4016                 5.9318                 3.7214
 Frc consts  --      0.9035                 4.0724                 2.7528
 IR Inten    --      0.5501                66.6181               140.2936

                     46                     47                     48
                      A                      A                      A
 Frequencies --   1173.7868              1183.9388              1185.5030
 Red. masses --      1.5832                 1.5396                 1.3049
 Frc consts  --      1.2852                 1.2715                 1.0805
 IR Inten    --     12.0291                 6.5410                 1.5540

                     49                     50                     51
                      A                      A                      A
 Frequencies --   1186.7531              1205.6836              1217.7465
 Red. masses --      1.3580                 2.0920                 1.5508
 Frc consts  --      1.1269                 1.7918                 1.3549
 IR Inten    --      3.9129                 2.0365                12.8179

                     52                     53                     54
                      A                      A                      A
 Frequencies --   1224.6943              1248.8841              1262.1915
 Red. masses --      1.4916                 2.0326                 3.0331
 Frc consts  --      1.3181                 1.8679                 2.8470
 IR Inten    --     15.0937                36.5142               124.2540

                     55                     56                     57
                      A                      A                      A
 Frequencies --   1270.8482              1306.6050              1324.7986
 Red. masses --      3.0071                 1.8696                 3.9960
 Frc consts  --      2.8614                 1.8806                 4.1321
 IR Inten    --      1.2669                19.2170               292.0589

                     58                     59                     60
                      A                      A                      A
 Frequencies --   1347.5473              1377.5563              1395.0787
 Red. masses --      2.3535                 2.8003                 4.4171
 Frc consts  --      2.5180                 3.1309                 5.0650
 IR Inten    --     21.8697                27.2628               322.6337

                     61                     62                     63
                      A                      A                      A
 Frequencies --   1427.6247              1445.4147              1457.0484
 Red. masses --      1.2563                 1.3747                 1.5872
 Frc consts  --      1.5086                 1.6921                 1.9853
 IR Inten    --      8.0590                58.5644                39.0968

                     64                     65                     66
                      A                      A                      A
 Frequencies --   1478.6467              1494.3419              1502.2446
 Red. masses --      2.1936                 1.3377                 1.1320
 Frc consts  --      2.8257                 1.7600                 1.5051
 IR Inten    --     23.1598                 9.7882                 4.7079

                     67                     68                     69
                      A                      A                      A
 Frequencies --   1509.4442              1514.1959              1514.6943
 Red. masses --      1.4381                 1.0632                 1.0534
 Frc consts  --      1.9306                 1.4363                 1.4239
 IR Inten    --      5.0234                 6.4310                 1.4828

                     70                     71                     72
                      A                      A                      A
 Frequencies --   1520.7053              1521.4157              1533.1911
 Red. masses --      1.0930                 1.0479                 1.1659
 Frc consts  --      1.4893                 1.4291                 1.6147
 IR Inten    --      3.8818                 5.9197                52.3242

                     73                     74                     75
                      A                      A                      A
 Frequencies --   1534.2805              1538.4000              1539.6059
 Red. masses --      1.0996                 1.0786                 1.0598
 Frc consts  --      1.5252                 1.5041                 1.4800
 IR Inten    --      7.7133                 2.5326                 1.1219

                     76                     77                     78
                      A                      A                      A
 Frequencies --   1546.0376              1633.2988              1657.7952
 Red. masses --      2.1744                 6.9149                 7.3065
 Frc consts  --      3.0622                10.8684                11.8311
 IR Inten    --     56.0399                 7.1066               112.1211

                     79                     80                     81
                      A                      A                      A
 Frequencies --   1775.1169              3030.4841              3032.5085
 Red. masses --      8.9259                 1.0674                 1.0345
 Frc consts  --     16.5714                 5.7756                 5.6053
 IR Inten    --    352.3052                 3.3814                65.1799

                     82                     83                     84
                      A                      A                      A
 Frequencies --   3035.6335              3047.5729              3054.3054
 Red. masses --      1.0406                 1.0363                 1.0367
 Frc consts  --      5.6500                 5.6708                 5.6981
 IR Inten    --     68.9933                20.9906                24.6135

                     85                     86                     87
                      A                      A                      A
 Frequencies --   3094.3479              3112.7137              3113.6625
 Red. masses --      1.1068                 1.0974                 1.1009
 Frc consts  --      6.2441                 6.2646                 6.2883
 IR Inten    --     36.9207                38.3542                 5.2422

                     88                     89                     90
                      A                      A                      A
 Frequencies --   3120.0813              3125.1223              3134.1144
 Red. masses --      1.1006                 1.0936                 1.1026
 Frc consts  --      6.3126                 6.2930                 6.3811
 IR Inten    --     30.0752                 9.9202                24.9253

                     91                     92                     93
                      A                      A                      A
 Frequencies --   3136.6583              3154.0913              3163.8055
 Red. masses --      1.1018                 1.1050                 1.1006
 Frc consts  --      6.3868                 6.4769                 6.4906
 IR Inten    --     31.3549                26.6987                23.7713

                     94                     95                     96
                      A                      A                      A
 Frequencies --   3222.0677              3235.2135              3576.6420
 Red. masses --      1.0873                 1.0937                 1.0757
 Frc consts  --      6.6508                 6.7445                 8.1078
 IR Inten    --      2.7968                 9.4759                17.8339

 - Thermochemistry -
 -------------------
 Temperature   298.150 Kelvin.  Pressure   1.00000 Atm.
 Atom     1 has atomic number  6 and mass  12.00000

 Molecular mass:   235.12084 amu.
 Principal axes and moments of inertia in atomic units:
                           1         2         3
     Eigenvalues --  2265.665035348.929876948.09545
           X            0.99941   0.03357  -0.00774
           Y           -0.03340   0.99923   0.02067
           Z            0.00843  -0.02040   0.99976
 This molecule is an asymmetric top.
 Rotational symmetry number  1.
 Warning -- assumption of classical behavior for rotation
           may cause significant error
 Rotational temperatures (Kelvin)      0.03823     0.01619     0.01247
 Rotational constants (GHZ):           0.79656     0.33740     0.25975
 Zero-point vibrational energy     751072.4 (Joules/Mol)
                                  179.51061 (Kcal/Mol)
 Warning -- explicit consideration of  27 degrees of freedom as
           vibrations may cause significant error
 Vibrational temperatures:     74.78    97.63   119.57   134.83   166.46
          (Kelvin)            191.68   220.34   259.13   313.46   341.48
                              354.22   361.38   394.45   430.45   442.51
                              458.09   480.13   526.00   556.45   574.77
                              639.58   673.15   742.96   762.04   816.46
                              840.26   845.79   901.86   968.46  1015.98
                             1055.95  1097.96  1112.53  1190.83  1209.80
                             1268.55  1358.41  1371.88  1385.50  1392.90
                             1430.37  1461.81  1504.93  1553.10  1612.14
                             1688.82  1703.42  1705.67  1707.47  1734.71
                             1752.07  1762.06  1796.87  1816.01  1828.47
                             1879.91  1906.09  1938.82  1982.00  2007.21
                             2054.03  2079.63  2096.37  2127.44  2150.02
                             2161.39  2171.75  2178.59  2179.31  2187.96
                             2188.98  2205.92  2207.49  2213.41  2215.15
                             2224.40  2349.95  2385.20  2554.00  4360.19
                             4363.10  4367.60  4384.78  4394.46  4452.08
                             4478.50  4479.87  4489.10  4496.35  4509.29
                             4512.95  4538.03  4552.01  4635.84  4654.75
                             5145.99

 Zero-point correction=                           0.286068 (Hartree/Particle)
 Thermal correction to Energy=                    0.302622
 Thermal correction to Enthalpy=                  0.303566
 Thermal correction to Gibbs Free Energy=         0.242853
 Sum of electronic and zero-point Energies=           -785.832515
 Sum of electronic and thermal Energies=              -785.815961
 Sum of electronic and thermal Enthalpies=            -785.815017
 Sum of electronic and thermal Free Energies=         -785.875730

                     E (Thermal)             CV                S
                      KCal/Mol        Cal/Mol-Kelvin    Cal/Mol-Kelvin
 Total                  189.898             63.504            127.781
 Electronic               0.000              0.000              0.000
 Translational            0.889              2.981             42.266
 Rotational               0.889              2.981             32.798
 Vibrational            188.121             57.542             52.716
 Vibration     1          0.596              1.977              4.741
 Vibration     2          0.598              1.970              4.215
 Vibration     3          0.600              1.961              3.816
 Vibration     4          0.603              1.954              3.581
 Vibration     5          0.608              1.936              3.171
 Vibration     6          0.613              1.920              2.899
 Vibration     7          0.619              1.899              2.633
 Vibration     8          0.629              1.867              2.327
 Vibration     9          0.646              1.814              1.977
 Vibration    10          0.656              1.784              1.823
 Vibration    11          0.661              1.769              1.758
 Vibration    12          0.663              1.761              1.722
 Vibration    13          0.676              1.721              1.570
 Vibration    14          0.692              1.675              1.421
 Vibration    15          0.697              1.659              1.375
 Vibration    16          0.705              1.638              1.318
 Vibration    17          0.715              1.608              1.242
 Vibration    18          0.739              1.543              1.098
 Vibration    19          0.755              1.498              1.013
 Vibration    20          0.766              1.471              0.965
 Vibration    21          0.804              1.373              0.812
 Vibration    22          0.825              1.321              0.744
 Vibration    23          0.871              1.214              0.618
 Vibration    24          0.885              1.184              0.588
 Vibration    25          0.923              1.102              0.509
 Vibration    26          0.941              1.066              0.478
 Vibration    27          0.945              1.058              0.471

 Optimization completed.
    -- Stationary point found.
 Normal termination of Gaussian 16 at Fri Dec 11 12:17:25 2020.

 ----------------------------------------------------------------------
 # B3LYP/6-311++G(d,p) empiricaldispersion=gd3bj scf=xqc pop=npa geom=c
 heck
 ----------------------------------------------------------------------

 --------------------------------------
 CID_82129362_JID_7407_Energie_neutraal
 --------------------------------------
 Structure from the checkpoint file:  "JID_7407.chk"
 Charge =  0 Multiplicity = 1

 SCF Done:  E(RB3LYP) =  -786.338142283     A.U. after   16 cycles
 Normal termination of Gaussian 16 at Fri Dec 11 12:23:00 2020.

 ----------------------------------------------------------------------
 # B3LYP/6-311++G(d,p) empiricaldispersion=gd3bj scf=xqc pop=npa geom=c
 heck
 ----------------------------------------------------------------------

 ------------------------------------
 CID_82129362_JID_7407_Energie_kation
 ------------------------------------
 Structure from the checkpoint file:  "JID_7407.chk"
 Charge =  1 Multiplicity = 2

 SCF Done:  E(UB3LYP) =  -786.042535234     A.U. after   32 cycles
 Normal termination of Gaussian 16 at Fri Dec 11 12:38:44 2020.
 Gaussian 16:  ES64L-G16RevA.03 25-Dec-2016

 ----------------------------------------------------------------------
 # B3LYP/6-311++G(d,p) empiricaldispersion=gd3bj scf=xqc pop=npa geom=c
 heck
 ----------------------------------------------------------------------

 -----------------------------------
 CID_82129362_JID_7407_Energie_anion
 -----------------------------------
 Structure from the checkpoint file:  "JID_7407.chk"
 Charge = -1 Multiplicity = 2

                         Standard orientation:
 ---------------------------------------------------------------------
 Center     Atomic      Atomic             Coordinates (Angstroms)
 Number     Number       Type             X           Y           Z
 ---------------------------------------------------------------------
      1          6           0       -3.747760   -1.608325   -0.201481
      2          6           0       -2.595353   -0.704475    0.244944
      3          6           0       -1.263552   -1.237259   -0.310507
      4          6           0       -0.150566   -0.231396   -0.162152
      5          6           0       -0.449470    1.142218   -0.226888
      6          6           0        0.569414    2.086611   -0.126593
      7          6           0        1.891212    1.687253    0.053841
      8          6           0        2.199383    0.324998    0.135003
      9          6           0        1.169960   -0.635311    0.017749
     10          8           0        1.456520   -1.976250    0.135301
     11          6           0        2.127234   -2.545924   -0.990490
     12          8           0        3.451100   -0.175309    0.325903
     13          6           0        4.520320    0.746750    0.473801
     14          6           0       -1.852935    1.611027   -0.399062
     15          8           0       -2.142681    2.788118   -0.599298
     16          7           0       -2.812736    0.628770   -0.341269
     17          6           0       -2.553291   -0.619300    1.782029
     18          1           0       -4.706448   -1.235793    0.179740
     19          1           0       -3.607463   -2.623413    0.184141
     20          1           0       -3.804745   -1.653177   -1.293730
     21          1           0       -0.995282   -2.171725    0.188373
     22          1           0       -1.400061   -1.468376   -1.376506
     23          1           0        0.305407    3.136574   -0.189418
     24          1           0        2.671099    2.434528    0.136937
     25          1           0        1.531737   -2.420541   -1.904468
     26          1           0        3.114512   -2.095434   -1.131842
     27          1           0        2.237604   -3.610438   -0.772354
     28          1           0        4.646379    1.363322   -0.425319
     29          1           0        4.366306    1.400177    1.341561
     30          1           0        5.415043    0.141982    0.628498
     31          1           0       -3.756324    0.999225   -0.316750
     32          1           0       -3.487006   -0.193808    2.165904
     33          1           0       -2.422010   -1.613718    2.223413
     34          1           0       -1.726681    0.015555    2.114300
 ---------------------------------------------------------------------

 SCF Done:  E(UB3LYP) =  -786.328812277     A.U. after   33 cycles
 SCF Done:  E(UB3LYP) =  -786.328812277     a.u. after    1 cycles

 The electronic state is 2-A.
 Alpha  occ. eigenvalues --  -19.05635 -19.03813 -18.97049 -14.22360 -10.15383
 Alpha  occ. eigenvalues --  -10.13068 -10.12883 -10.12601 -10.11980 -10.11533
 Alpha  occ. eigenvalues --  -10.08207 -10.07819 -10.07635 -10.07080 -10.07047
 Alpha  occ. eigenvalues --  -10.06497 -10.06385  -0.97716  -0.94907  -0.92249
 Alpha  occ. eigenvalues --   -0.82764  -0.75417  -0.70217  -0.67205  -0.65909
 Alpha  occ. eigenvalues --   -0.61493  -0.60535  -0.59980  -0.57506  -0.52782
 Alpha  occ. eigenvalues --   -0.50824  -0.48498  -0.45197  -0.43556  -0.41294
 Alpha  occ. eigenvalues --   -0.39719  -0.38636  -0.37820  -0.37197  -0.36364
 Alpha  occ. eigenvalues --   -0.35665  -0.34745  -0.34040  -0.32931  -0.32322
 Alpha  occ. eigenvalues --   -0.31959  -0.30967  -0.29882  -0.29428  -0.28836
 Alpha  occ. eigenvalues --   -0.28004  -0.27413  -0.26273  -0.25905  -0.25326
 Alpha  occ. eigenvalues --   -0.24278  -0.22780  -0.21426  -0.18342  -0.15667
 Alpha  occ. eigenvalues --   -0.14415  -0.14064  -0.12239   0.04170
 Alpha virt. eigenvalues --    0.05665   0.06036   0.07010   0.08360   0.08411
 Alpha virt. eigenvalues --    0.08620   0.09139   0.09683   0.09872   0.10603
 Alpha virt. eigenvalues --    0.10946   0.11450   0.11496   0.12091   0.12467

  Beta  occ. eigenvalues --  -19.05599 -19.03817 -18.96968 -14.22338 -10.15297
  Beta  occ. eigenvalues --  -10.13066 -10.12732 -10.12559 -10.11990 -10.11500
  Beta  occ. eigenvalues --  -10.08181 -10.07810 -10.07607 -10.07086 -10.07072
  Beta  occ. eigenvalues --  -10.06395 -10.06330  -0.97629  -0.94889  -0.92094
  Beta  occ. eigenvalues --   -0.82693  -0.75301  -0.70164  -0.67077  -0.65786
  Beta  occ. eigenvalues --   -0.61414  -0.60502  -0.59903  -0.57429  -0.52561
  Beta  occ. eigenvalues --   -0.50765  -0.48422  -0.45127  -0.43503  -0.41201
  Beta  occ. eigenvalues --   -0.39664  -0.38592  -0.37670  -0.37133  -0.36285
  Beta  occ. eigenvalues --   -0.35620  -0.34712  -0.33995  -0.32841  -0.32228
  Beta  occ. eigenvalues --   -0.31881  -0.30905  -0.29810  -0.29285  -0.28622
  Beta  occ. eigenvalues --   -0.27851  -0.27347  -0.26140  -0.25833  -0.25226
  Beta  occ. eigenvalues --   -0.24240  -0.22715  -0.21141  -0.18301  -0.15436
  Beta  occ. eigenvalues --   -0.14270  -0.13871  -0.11755
  Beta virt. eigenvalues --    0.06094   0.06688   0.07277   0.07512   0.08495
  Beta virt. eigenvalues --    0.08862   0.08985   0.09415   0.09934   0.10115
  Beta virt. eigenvalues --    0.10781   0.11165   0.11606   0.11697   0.12151

 Mulliken charges and spin densities:
               1          2
     1  C    0.573483  -0.964625
     2  C   -0.755986   1.041957
     3  C   -0.203416  -0.461267
     4  C    1.057596  -0.096535
     5  C    0.721770  -0.262153
     6  C   -0.013148  -0.095408
     7  C   -0.122789  -0.030906
     8  C   -0.776217   0.397534
     9  C   -1.122001   0.338934
    10  O   -0.157997   0.024399
    11  C    0.425010  -0.742976
    12  O   -0.233540   0.059066
    13  C    0.784496  -1.117709
    14  C    0.278062  -0.222464
    15  O   -0.379076   0.034262
    16  N   -0.134713  -0.010892
    17  C   -0.392763  -0.324331
    18  H   -0.229180   0.366658
    19  H   -0.106447   0.248009
    20  H   -0.097111   0.264504
    21  H    0.203258   0.009182
    22  H    0.176015   0.023764
    23  H    0.166099   0.027270
    24  H   -0.017344   0.194617
    25  H   -0.113834   0.241201
    26  H   -0.059009   0.228212
    27  H   -0.117959   0.260360
    28  H   -0.088928   0.242632
    29  H   -0.163928   0.312209
    30  H   -0.668474   0.846510
    31  H    0.282823   0.008831
    32  H    0.087662   0.068352
    33  H    0.047532   0.086025
    34  H    0.150053   0.004776
 Sum of Mulliken charges =  -1.00000   1.00000

 Dipole moment (field-independent basis, Debye):
    X=             -3.1639    Y=             -0.7948    Z=              0.8372  Tot=              3.3679
 Quadrupole moment (field-independent basis, Debye-Ang):
   XX=           -188.2500   YY=           -149.1333   ZZ=           -125.9039
   XY=              5.9683   XZ=             -6.3471   YZ=              2.5417

 Summary of Natural Population Analysis:

                                       Natural Population
                Natural  -----------------------------------------------
    Atom  No    Charge         Core      Valence    Rydberg      Total
 -----------------------------------------------------------------------
      C    1   -0.28553      0.99962     2.27881    0.00710     3.28553
      C    2    0.06370      0.99959     1.92553    0.01118     2.93630
      C    3   -0.20204      0.99955     2.19181    0.01068     3.20204
      C    4   -0.00600      0.99946     1.99753    0.00901     3.00600
      C    5   -0.07931      0.99943     2.07067    0.00921     3.07931
      C    6   -0.05106      0.99954     2.04245    0.00906     3.05106
      C    7   -0.15678      0.99954     2.14862    0.00862     3.15678
      C    8    0.17944      0.99935     1.80870    0.01251     2.82056
      C    9    0.12697      0.99929     1.85949    0.01424     2.87303
      O   10   -0.28998      0.99986     3.28031    0.00981     4.28998
      C   11   -0.09709      0.99959     2.08852    0.00898     3.09709
      O   12   -0.26837      0.99986     3.25769    0.01082     4.26837
      C   13   -0.09999      0.99960     2.09120    0.00920     3.09999
      C   14    0.35064      0.99961     1.62789    0.02186     2.64936
      O   15   -0.32417      0.99988     3.31893    0.00536     4.32417
      N   16   -0.32703      0.99965     2.81673    0.01065     3.82703
      C   17   -0.29105      0.99962     2.28606    0.00537     3.29105
      H   18    0.09854      0.00000     0.40041    0.00105     0.40146
      H   19    0.10308      0.00000     0.39596    0.00095     0.39692
      H   20    0.10403      0.00000     0.39484    0.00113     0.39597
      H   21    0.11385      0.00000     0.38486    0.00129     0.38615
      H   22    0.10792      0.00000     0.39078    0.00129     0.39208
      H   23    0.10968      0.00000     0.38925    0.00107     0.39032
      H   24    0.10389      0.00000     0.39508    0.00103     0.39611
      H   25    0.07958      0.00000     0.41925    0.00118     0.42042
      H   26    0.09049      0.00000     0.40766    0.00184     0.40951
      H   27    0.08766      0.00000     0.41121    0.00113     0.41234
      H   28    0.08297      0.00000     0.41560    0.00143     0.41703
      H   29    0.08556      0.00000     0.41271    0.00173     0.41444
      H   30    0.09589      0.00000     0.40250    0.00161     0.40411
      H   31    0.18933      0.00000     0.30805    0.00261     0.31067
      H   32    0.09804      0.00000     0.40112    0.00083     0.40196
      H   33    0.09932      0.00000     0.39993    0.00075     0.40068
      H   34    0.10779      0.00000     0.39149    0.00072     0.39221
 =======================================================================
   * Total *    0.00000     16.99303    45.81166    0.19530    63.00000

 Normal termination of Gaussian 16 at Fri Dec 11 12:57:26 2020.
