 Gaussian 16, Revision A.03,

 -----------------------------------------------------------
 # opt freq B3LYP/6-31G(d) empiricaldispersion=gd3bj scf=xqc
 -----------------------------------------------------------

 ------------------------------
 CID_59426531_JID_2566_neutraal
 ------------------------------
 Symbolic Z-matrix:
 Charge =  0 Multiplicity = 1

 SCF Done:  E(RB3LYP) =  -553.567812063     A.U. after   15 cycles
 SCF Done:  E(RB3LYP) =  -553.573900811     A.U. after   13 cycles
 SCF Done:  E(RB3LYP) =  -553.574593437     A.U. after   11 cycles
 SCF Done:  E(RB3LYP) =  -553.575053184     A.U. after   12 cycles
 SCF Done:  E(RB3LYP) =  -553.575471603     A.U. after   12 cycles
 SCF Done:  E(RB3LYP) =  -553.575900897     A.U. after   11 cycles
 SCF Done:  E(RB3LYP) =  -553.576295301     A.U. after   12 cycles
 SCF Done:  E(RB3LYP) =  -553.576364439     A.U. after   11 cycles
 SCF Done:  E(RB3LYP) =  -553.576424357     A.U. after   11 cycles
 SCF Done:  E(RB3LYP) =  -553.576439768     A.U. after   10 cycles
 SCF Done:  E(RB3LYP) =  -553.576441020     A.U. after    9 cycles
 SCF Done:  E(RB3LYP) =  -553.576441161     A.U. after    7 cycles
 SCF Done:  E(RB3LYP) =  -553.576441180     A.U. after    6 cycles
 Optimization completed.
    -- Stationary point found.
 Normal termination of Gaussian 16 at Wed Dec  9 17:37:13 2020.

 --------------------------------------------------------------------
 #N Geom=AllCheck Guess=TCheck SCRF=Check GenChk RB3LYP/6-31G(d) Freq
 --------------------------------------------------------------------

 Structure from the checkpoint file:  "JID_2566.chk"
 ------------------------------
 CID_59426531_JID_2566_neutraal
 ------------------------------
 Charge =  0 Multiplicity = 1

 SCF Done:  E(RB3LYP) =  -553.576441180     A.U. after    1 cycles

  Exact polarizability: 143.897   4.461 111.897  -4.939   2.842  51.593
 Approx polarizability: 207.929   9.367 209.837 -13.909   9.299  77.689

                      1                      2                      3
                      A                      A                      A
 Frequencies --     36.6201                96.5025               155.2302
 Red. masses --      2.5803                 4.1938                 5.6080
 Frc consts  --      0.0020                 0.0230                 0.0796
 IR Inten    --      0.2595                 1.0770                 0.6843

                      4                      5                      6
                      A                      A                      A
 Frequencies --    200.8357               212.9558               255.6326
 Red. masses --      1.8524                 3.3701                 1.9035
 Frc consts  --      0.0440                 0.0900                 0.0733
 IR Inten    --      0.7984                 2.0892                 1.2026

                      7                      8                      9
                      A                      A                      A
 Frequencies --    298.8559               365.9717               398.9397
 Red. masses --      5.3654                 2.5793                 5.8790
 Frc consts  --      0.2823                 0.2035                 0.5513
 IR Inten    --      8.6870                 0.7360                 7.1429

                     10                     11                     12
                      A                      A                      A
 Frequencies --    425.0734               471.0673               511.9567
 Red. masses --      3.1276                 3.9054                 2.2150
 Frc consts  --      0.3330                 0.5106                 0.3421
 IR Inten    --      5.8675                29.5983                70.0831

                     13                     14                     15
                      A                      A                      A
 Frequencies --    579.4146               587.2617               596.6697
 Red. masses --      6.9557                 2.9453                 3.8671
 Frc consts  --      1.3758                 0.5985                 0.8111
 IR Inten    --      9.9595                54.4310                27.3327

                     16                     17                     18
                      A                      A                      A
 Frequencies --    705.7553               717.7570               751.4336
 Red. masses --      5.0765                 5.0847                 5.7496
 Frc consts  --      1.4898                 1.5434                 1.9128
 IR Inten    --     17.5136                 1.8636                42.3620

                     19                     20                     21
                      A                      A                      A
 Frequencies --    781.0177               797.7910               824.0131
 Red. masses --      5.9078                 1.2940                 3.6050
 Frc consts  --      2.1232                 0.4852                 1.4422
 IR Inten    --     17.2962                 2.0702                 6.3879

                     22                     23                     24
                      A                      A                      A
 Frequencies --    835.6659               914.6036               922.9681
 Red. masses --      1.4789                 3.3267                 1.4584
 Frc consts  --      0.6085                 1.6396                 0.7320
 IR Inten    --     27.1814                 8.1702                 3.7337

                     25                     26                     27
                      A                      A                      A
 Frequencies --    963.4723               991.2495              1030.7926
 Red. masses --      1.3129                 2.2637                 6.4895
 Frc consts  --      0.7181                 1.3105                 4.0626
 IR Inten    --      0.0745                 2.1561                23.6180

                     28                     29                     30
                      A                      A                      A
 Frequencies --   1084.7041              1097.4033              1105.2480
 Red. masses --      1.7650                 1.6729                 2.4672
 Frc consts  --      1.2235                 1.1870                 1.7757
 IR Inten    --      2.4863                 2.4920                21.3674

                     31                     32                     33
                      A                      A                      A
 Frequencies --   1164.7597              1190.1976              1246.2853
 Red. masses --      1.3376                 2.9465                 2.1106
 Frc consts  --      1.0692                 2.4592                 1.9315
 IR Inten    --     13.5930                 6.2400                23.5603

                     34                     35                     36
                      A                      A                      A
 Frequencies --   1277.1835              1288.1932              1332.8526
 Red. masses --      2.8620                 1.7697                 1.4740
 Frc consts  --      2.7506                 1.7302                 1.5428
 IR Inten    --     15.2754                17.6378                39.4586

                     37                     38                     39
                      A                      A                      A
 Frequencies --   1373.0417              1388.9139              1397.6960
 Red. masses --      1.5496                 2.3341                 1.9701
 Frc consts  --      1.7213                 2.6529                 2.2676
 IR Inten    --      8.7910                 4.6681                21.2499

                     40                     41                     42
                      A                      A                      A
 Frequencies --   1437.4943              1489.5444              1517.8295
 Red. masses --      1.2195                 3.4587                 1.0796
 Frc consts  --      1.4847                 4.5213                 1.4654
 IR Inten    --      1.5926                 0.4371                 1.4479

                     43                     44                     45
                      A                      A                      A
 Frequencies --   1526.3510              1534.9410              1541.9354
 Red. masses --      1.0418                 1.5059                 1.7120
 Frc consts  --      1.4300                 2.0904                 2.3982
 IR Inten    --      8.4520                40.8171                65.9794

                     46                     47                     48
                      A                      A                      A
 Frequencies --   1660.4676              1680.6863              1826.8102
 Red. masses --      7.8987                 7.0823                11.7949
 Frc consts  --     12.8313                11.7869                23.1916
 IR Inten    --      5.8099                63.7149               439.6731

                     49                     50                     51
                      A                      A                      A
 Frequencies --   3047.6747              3050.1598              3084.2018
 Red. masses --      1.0595                 1.0362                 1.1028
 Frc consts  --      5.7979                 5.6800                 6.1804
 IR Inten    --     27.6842                33.1193                 6.9517

                     52                     53                     54
                      A                      A                      A
 Frequencies --   3120.9322              3124.7692              3186.3066
 Red. masses --      1.1029                 1.1035                 1.0891
 Frc consts  --      6.3291                 6.3486                 6.5147
 IR Inten    --     44.3075                33.9450                10.9732

                     55                     56                     57
                      A                      A                      A
 Frequencies --   3204.7166              3228.5752              3582.1561
 Red. masses --      1.0912                 1.0937                 1.0790
 Frc consts  --      6.6026                 6.7167                 8.1577
 IR Inten    --      4.5030                 4.6203                46.5643

 - Thermochemistry -
 -------------------
 Temperature   298.150 Kelvin.  Pressure   1.00000 Atm.
 Atom     1 has atomic number  6 and mass  12.00000

 Molecular mass:   163.06333 amu.
 Principal axes and moments of inertia in atomic units:
                           1         2         3
     Eigenvalues --   925.220902912.150053663.50380
           X            0.99984  -0.01644   0.00737
           Y            0.01647   0.99985  -0.00470
           Z           -0.00730   0.00482   0.99996
 This molecule is an asymmetric top.
 Rotational symmetry number  1.
 Warning -- assumption of classical behavior for rotation
           may cause significant error
 Rotational temperatures (Kelvin)      0.09361     0.02974     0.02364
 Rotational constants (GHZ):           1.95061     0.61973     0.49263
 Zero-point vibrational energy     437962.1 (Joules/Mol)
                                  104.67544 (Kcal/Mol)
 Warning -- explicit consideration of  15 degrees of freedom as
           vibrations may cause significant error
 Vibrational temperatures:     52.69   138.85   223.34   288.96   306.40
          (Kelvin)            367.80   429.99   526.55   573.99   611.59
                              677.76   736.59   833.65   844.94   858.47
                             1015.42  1032.69  1081.15  1123.71  1147.84
                             1185.57  1202.34  1315.91  1327.95  1386.22
                             1426.19  1483.08  1560.65  1578.92  1590.21
                             1675.83  1712.43  1793.13  1837.58  1853.42
                             1917.68  1975.50  1998.34  2010.97  2068.23
                             2143.12  2183.82  2196.08  2208.44  2218.50
                             2389.04  2418.13  2628.37  4384.92  4388.50
                             4437.48  4490.33  4495.85  4584.38  4610.87
                             4645.20  5153.92

 Zero-point correction=                           0.166811 (Hartree/Particle)
 Thermal correction to Energy=                    0.176831
 Thermal correction to Enthalpy=                  0.177775
 Thermal correction to Gibbs Free Energy=         0.130687
 Sum of electronic and zero-point Energies=           -553.409630
 Sum of electronic and thermal Energies=              -553.399610
 Sum of electronic and thermal Enthalpies=            -553.398666
 Sum of electronic and thermal Free Energies=         -553.445754

                     E (Thermal)             CV                S
                      KCal/Mol        Cal/Mol-Kelvin    Cal/Mol-Kelvin
 Total                  110.963             38.806             99.105
 Electronic               0.000              0.000              0.000
 Translational            0.889              2.981             41.176
 Rotational               0.889              2.981             30.669
 Vibrational            109.186             32.845             27.261
 Vibration     1          0.594              1.982              5.434
 Vibration     2          0.603              1.952              3.524
 Vibration     3          0.620              1.897              2.607
 Vibration     4          0.638              1.839              2.125
 Vibration     5          0.644              1.821              2.018
 Vibration     6          0.666              1.753              1.691
 Vibration     7          0.692              1.676              1.423
 Vibration     8          0.739              1.542              1.097
 Vibration     9          0.765              1.472              0.967
 Vibration    10          0.787              1.416              0.875
 Vibration    11          0.828              1.314              0.735
 Vibration    12          0.867              1.224              0.629
 Vibration    13          0.936              1.076              0.486
 Vibration    14          0.944              1.059              0.472
 Vibration    15          0.955              1.039              0.455

 Optimization completed.
    -- Stationary point found.
 Normal termination of Gaussian 16 at Wed Dec  9 17:42:06 2020.

 ----------------------------------------------------------------------
 # B3LYP/6-311++G(d,p) empiricaldispersion=gd3bj scf=xqc pop=npa geom=c
 heck
 ----------------------------------------------------------------------

 --------------------------------------
 CID_59426531_JID_2566_Energie_neutraal
 --------------------------------------
 Structure from the checkpoint file:  "JID_2566.chk"
 Charge =  0 Multiplicity = 1

 SCF Done:  E(RB3LYP) =  -553.729672640     A.U. after   16 cycles
 Normal termination of Gaussian 16 at Wed Dec  9 17:44:45 2020.

 ----------------------------------------------------------------------
 # B3LYP/6-311++G(d,p) empiricaldispersion=gd3bj scf=xqc pop=npa geom=c
 heck
 ----------------------------------------------------------------------

 ------------------------------------
 CID_59426531_JID_2566_Energie_kation
 ------------------------------------
 Structure from the checkpoint file:  "JID_2566.chk"
 Charge =  1 Multiplicity = 2

 SCF Done:  E(UB3LYP) =  -553.417244754     A.U. after   24 cycles
 Normal termination of Gaussian 16 at Wed Dec  9 17:48:36 2020.
 Gaussian 16:  ES64L-G16RevA.03 25-Dec-2016

 ----------------------------------------------------------------------
 # B3LYP/6-311++G(d,p) empiricaldispersion=gd3bj scf=xqc pop=npa geom=c
 heck
 ----------------------------------------------------------------------

 -----------------------------------
 CID_59426531_JID_2566_Energie_anion
 -----------------------------------
 Structure from the checkpoint file:  "JID_2566.chk"
 Charge = -1 Multiplicity = 2

                         Standard orientation:
 ---------------------------------------------------------------------
 Center     Atomic      Atomic             Coordinates (Angstroms)
 Number     Number       Type             X           Y           Z
 ---------------------------------------------------------------------
      1          6           0        3.767021   -0.630454    0.837693
      2          6           0        3.033116   -0.526968   -0.509191
      3          6           0        1.621213   -0.007735   -0.355769
      4          6           0        0.539252   -0.882077   -0.260872
      5          6           0       -0.737278   -0.354549   -0.063731
      6          6           0       -0.933859    1.020047    0.019227
      7          6           0        0.118798    1.926998   -0.064817
      8          6           0        1.386234    1.382211   -0.255332
      9          8           0       -2.250527    1.349695    0.183776
     10          7           0       -2.923011    0.097581    0.350935
     11          6           0       -2.060137   -0.980408    0.027572
     12          8           0       -2.430124   -2.133012   -0.096406
     13          1           0        3.825146    0.347930    1.327801
     14          1           0        4.787593   -1.004933    0.701598
     15          1           0        3.239377   -1.310025    1.515706
     16          1           0        3.597556    0.132132   -1.180747
     17          1           0        3.008754   -1.513115   -0.987484
     18          1           0        0.675191   -1.957261   -0.335129
     19          1           0       -0.044734    2.996664    0.003340
     20          1           0        2.235172    2.056889   -0.335263
     21          1           0       -3.823943    0.152807   -0.114007
 ---------------------------------------------------------------------

 SCF Done:  E(UB3LYP) =  -553.732114904     A.U. after   33 cycles
 SCF Done:  E(UB3LYP) =  -553.732114904     a.u. after    1 cycles

 The electronic state is 2-A.
 Alpha  occ. eigenvalues --  -19.05058 -18.92969 -14.23151 -10.10049 -10.08338
 Alpha  occ. eigenvalues --  -10.05028 -10.04930 -10.02981 -10.01753 -10.01506
 Alpha  occ. eigenvalues --  -10.01016 -10.00943  -0.98230  -0.87384  -0.72180
 Alpha  occ. eigenvalues --   -0.70450  -0.65748  -0.61001  -0.58812  -0.51718
 Alpha  occ. eigenvalues --   -0.49291  -0.44659  -0.43019  -0.38784  -0.35051
 Alpha  occ. eigenvalues --   -0.34336  -0.33226  -0.31792  -0.29676  -0.29020
 Alpha  occ. eigenvalues --   -0.27846  -0.26891  -0.26215  -0.25466  -0.23254
 Alpha  occ. eigenvalues --   -0.22819  -0.21173  -0.20671  -0.19872  -0.13028
 Alpha  occ. eigenvalues --   -0.11515  -0.10509  -0.07973   0.05781
 Alpha virt. eigenvalues --    0.07715   0.09756   0.10233   0.10344   0.11516
 Alpha virt. eigenvalues --    0.11964   0.13952   0.14203   0.14332   0.15046
 Alpha virt. eigenvalues --    0.16294   0.16901   0.17037   0.17971   0.18341

  Beta  occ. eigenvalues --  -19.05024 -18.92708 -14.23065 -10.09782 -10.08347
  Beta  occ. eigenvalues --  -10.05017 -10.04928 -10.03119 -10.01589 -10.01155
  Beta  occ. eigenvalues --  -10.00911 -10.00567  -0.98133  -0.86896  -0.71931
  Beta  occ. eigenvalues --   -0.70126  -0.65639  -0.60424  -0.58443  -0.51444
  Beta  occ. eigenvalues --   -0.48710  -0.44560  -0.42656  -0.38540  -0.34773
  Beta  occ. eigenvalues --   -0.34127  -0.32927  -0.31486  -0.29546  -0.28786
  Beta  occ. eigenvalues --   -0.27624  -0.26781  -0.25934  -0.25382  -0.22751
  Beta  occ. eigenvalues --   -0.21978  -0.21045  -0.19900  -0.19464  -0.12113
  Beta  occ. eigenvalues --   -0.10265  -0.09396  -0.07034
  Beta virt. eigenvalues --    0.07718   0.09734   0.10200   0.10265   0.11438
  Beta virt. eigenvalues --    0.11780   0.11964   0.14028   0.14106   0.14598
  Beta virt. eigenvalues --    0.14942   0.16236   0.16907   0.17104   0.17970

 Mulliken charges and spin densities:
               1          2
     1  C   -0.405328  -0.205866
     2  C   -0.456153   0.107278
     3  C    0.759724  -0.135757
     4  C   -0.768993   0.344131
     5  C    0.702105  -0.019899
     6  C   -0.759602   0.008621
     7  C   -0.256838   0.097832
     8  C   -0.178901   0.246585
     9  O   -0.041774   0.011205
    10  N   -0.232596  -0.006921
    11  C    0.195553   0.195924
    12  O   -0.471880   0.096101
    13  H    0.073080   0.058768
    14  H   -0.027697   0.109172
    15  H    0.146891  -0.011219
    16  H    0.132324  -0.016738
    17  H    0.051863   0.085754
    18  H    0.131806  -0.022817
    19  H    0.119040  -0.007753
    20  H    0.103059  -0.020237
    21  H    0.184318   0.085835
 Sum of Mulliken charges =  -1.00000   1.00000

 Dipole moment (field-independent basis, Debye):
    X=              2.9295    Y=              2.7002    Z=             -0.3275  Tot=              3.9975
 Quadrupole moment (field-independent basis, Debye-Ang):
   XX=           -101.3479   YY=            -92.5507   ZZ=            -80.8405
   XY=             -8.2592   XZ=              1.1129   YZ=             -1.0048

 Summary of Natural Population Analysis:

                                       Natural Population
                Natural  -----------------------------------------------
    Atom  No    Charge         Core      Valence    Rydberg      Total
 -----------------------------------------------------------------------
      C    1   -0.28147      0.99967     2.27741    0.00439     3.28147
      C    2   -0.18987      0.99961     2.18137    0.00889     3.18987
      C    3   -0.06380      0.99952     2.05496    0.00933     3.06380
      C    4   -0.00651      0.99949     1.99876    0.00826     3.00651
      C    5   -0.08903      0.99942     2.08082    0.00879     3.08903
      C    6    0.16992      0.99936     1.81758    0.01314     2.83008
      C    7   -0.11636      0.99952     2.10768    0.00916     3.11636
      C    8   -0.02521      0.99954     2.01735    0.00832     3.02521
      O    9   -0.19466      0.99986     3.18577    0.00903     4.19466
      N   10   -0.16599      0.99968     2.65181    0.01451     3.66599
      C   11    0.35218      0.99963     1.62459    0.02360     2.64782
      O   12   -0.30354      0.99987     3.29782    0.00585     4.30354
      H   13    0.09578      0.00000     0.40263    0.00159     0.40422
      H   14    0.08642      0.00000     0.41158    0.00200     0.41358
      H   15    0.09726      0.00000     0.40146    0.00128     0.40274
      H   16    0.09108      0.00000     0.40743    0.00149     0.40892
      H   17    0.09304      0.00000     0.40502    0.00194     0.40696
      H   18    0.09300      0.00000     0.40555    0.00145     0.40700
      H   19    0.09324      0.00000     0.40493    0.00183     0.40676
      H   20    0.08343      0.00000     0.41526    0.00131     0.41657
      H   21    0.18109      0.00000     0.31544    0.00347     0.31891
 =======================================================================
   * Total *   -0.00000     11.99517    30.86521    0.13962    43.00000

 Normal termination of Gaussian 16 at Wed Dec  9 17:53:45 2020.
