 Gaussian 16, Revision A.03,

 -----------------------------------------------------------
 # opt freq B3LYP/6-31G(d) empiricaldispersion=gd3bj scf=xqc
 -----------------------------------------------------------

 ------------------------------
 CID_11137329_JID_1207_neutraal
 ------------------------------
 Symbolic Z-matrix:
 Charge =  0 Multiplicity = 1

 SCF Done:  E(RB3LYP) =  -514.293995462     A.U. after   15 cycles
 SCF Done:  E(RB3LYP) =  -514.299705493     A.U. after   13 cycles
 SCF Done:  E(RB3LYP) =  -514.299858604     A.U. after   15 cycles
 SCF Done:  E(RB3LYP) =  -514.302067397     A.U. after   12 cycles
 SCF Done:  E(RB3LYP) =  -514.302359961     A.U. after   13 cycles
 SCF Done:  E(RB3LYP) =  -514.302295555     A.U. after   12 cycles
 SCF Done:  E(RB3LYP) =  -514.302546935     A.U. after   12 cycles
 SCF Done:  E(RB3LYP) =  -514.302566741     A.U. after   11 cycles
 SCF Done:  E(RB3LYP) =  -514.302568895     A.U. after    9 cycles
 SCF Done:  E(RB3LYP) =  -514.302569073     A.U. after    8 cycles
 Optimization completed.
    -- Stationary point found.
 Normal termination of Gaussian 16 at Tue Dec  8 19:22:10 2020.

 --------------------------------------------------------------------
 #N Geom=AllCheck Guess=TCheck SCRF=Check GenChk RB3LYP/6-31G(d) Freq
 --------------------------------------------------------------------

 Structure from the checkpoint file:  "JID_1207.chk"
 ------------------------------
 CID_11137329_JID_1207_neutraal
 ------------------------------
 Charge =  0 Multiplicity = 1

 SCF Done:  E(RB3LYP) =  -514.302569073     A.U. after    1 cycles

  Exact polarizability: 124.843   2.325  90.717  -0.365 -11.550  52.013
 Approx polarizability: 189.638   9.949 156.489   1.110 -23.208  83.869

                      1                      2                      3
                      A                      A                      A
 Frequencies --     52.0866               103.4781               128.1089
 Red. masses --      5.1029                 6.2694                 6.1399
 Frc consts  --      0.0082                 0.0396                 0.0594
 IR Inten    --      0.1867                 1.5385                 5.5472

                      4                      5                      6
                      A                      A                      A
 Frequencies --    220.7519               228.5777               262.3666
 Red. masses --      2.6240                 7.2940                 2.5472
 Frc consts  --      0.0753                 0.2245                 0.1033
 IR Inten    --      8.2709                 9.0936                15.4711

                      7                      8                      9
                      A                      A                      A
 Frequencies --    302.2532               400.2106               421.2500
 Red. masses --      4.6841                 8.4053                 3.0660
 Frc consts  --      0.2521                 0.7932                 0.3206
 IR Inten    --      1.5208                 2.3215                 0.2616

                     10                     11                     12
                      A                      A                      A
 Frequencies --    436.2016               524.4425               623.5401
 Red. masses --      5.3163                 3.7235                 5.9667
 Frc consts  --      0.5960                 0.6034                 1.3668
 IR Inten    --      5.0469                 2.0409                25.8000

                     13                     14                     15
                      A                      A                      A
 Frequencies --    634.3446               708.7013               734.1676
 Red. masses --      6.3082                 2.0996                 3.8272
 Frc consts  --      1.4956                 0.6213                 1.2154
 IR Inten    --      0.2160                20.9463                52.5274

                     16                     17                     18
                      A                      A                      A
 Frequencies --    783.0646               819.7429               847.2704
 Red. masses --      2.0915                 5.3922                 1.2488
 Frc consts  --      0.7556                 2.1349                 0.5282
 IR Inten    --     12.1259                17.2500                 0.7078

                     19                     20                     21
                      A                      A                      A
 Frequencies --    923.1631               965.3162               996.9645
 Red. masses --      1.3853                 1.3442                 1.2623
 Frc consts  --      0.6956                 0.7380                 0.7392
 IR Inten    --      1.4727                 0.1964                 0.0483

                     22                     23                     24
                      A                      A                      A
 Frequencies --   1024.6157              1030.3255              1041.8200
 Red. masses --      5.9896                 1.6865                 1.6058
 Frc consts  --      3.7048                 1.0548                 1.0269
 IR Inten    --      0.6038                 1.5019                 2.2799

                     25                     26                     27
                      A                      A                      A
 Frequencies --   1055.8846              1105.7751              1115.8405
 Red. masses --      2.6718                 3.1977                 1.5618
 Frc consts  --      1.7550                 2.3037                 1.1457
 IR Inten    --      2.7655                44.3522                 4.4375

                     28                     29                     30
                      A                      A                      A
 Frequencies --   1196.4188              1213.6804              1253.8937
 Red. masses --      1.0964                 1.1329                 5.3678
 Frc consts  --      0.9247                 0.9832                 4.9724
 IR Inten    --      0.3850                 0.5473               366.6328

                     31                     32                     33
                      A                      A                      A
 Frequencies --   1313.5746              1356.0043              1369.8748
 Red. masses --      3.6612                 3.3097                 1.7965
 Frc consts  --      3.7220                 3.5856                 1.9863
 IR Inten    --    140.4007                23.1521                 3.5932

                     34                     35                     36
                      A                      A                      A
 Frequencies --   1431.2318              1452.1972              1506.3964
 Red. masses --      1.2258                 1.2828                 2.3075
 Frc consts  --      1.4795                 1.5940                 3.0852
 IR Inten    --      4.1943                13.6728                 3.0444

                     37                     38                     39
                      A                      A                      A
 Frequencies --   1548.7655              1652.0698              1662.8383
 Red. masses --      2.3019                 5.9749                 5.6275
 Frc consts  --      3.2532                 9.6081                 9.1678
 IR Inten    --     48.7695                 5.4131                19.3650

                     40                     41                     42
                      A                      A                      A
 Frequencies --   1808.4283              1832.6423              3024.5591
 Red. masses --      8.8613                 8.9689                 1.0894
 Frc consts  --     17.0746                17.7478                 5.8718
 IR Inten    --    408.7354               196.1225                48.4366

                     43                     44                     45
                      A                      A                      A
 Frequencies --   3092.5047              3192.4814              3200.3428
 Red. masses --      1.0915                 1.0856                 1.0891
 Frc consts  --      6.1502                 6.5192                 6.5720
 IR Inten    --     24.1235                 0.6668                 5.1223

                     46                     47                     48
                      A                      A                      A
 Frequencies --   3208.9310              3218.3908              3239.9827
 Red. masses --      1.0930                 1.0973                 1.0939
 Frc consts  --      6.6312                 6.6963                 6.7657
 IR Inten    --     21.4056                15.3900                 2.0965

 - Thermochemistry -
 -------------------
 Temperature   298.150 Kelvin.  Pressure   1.00000 Atm.
 Atom     1 has atomic number  6 and mass  12.00000

 Molecular mass:   149.04768 amu.
 Principal axes and moments of inertia in atomic units:
                           1         2         3
     Eigenvalues --   861.798332283.487202843.06305
           X            0.99999  -0.00497  -0.00124
           Y            0.00492   0.99914  -0.04120
           Z            0.00145   0.04119   0.99915
 This molecule is an asymmetric top.
 Rotational symmetry number  1.
 Warning -- assumption of classical behavior for rotation
           may cause significant error
 Rotational temperatures (Kelvin)      0.10050     0.03793     0.03047
 Rotational constants (GHZ):           2.09416     0.79034     0.63479
 Zero-point vibrational energy     360467.6 (Joules/Mol)
                                   86.15382 (Kcal/Mol)
 Warning -- explicit consideration of  11 degrees of freedom as
           vibrations may cause significant error
 Vibrational temperatures:     74.94   148.88   184.32   317.61   328.87
          (Kelvin)            377.49   434.87   575.81   606.08   627.60
                              754.56   897.14   912.68  1019.66  1056.30
                             1126.66  1179.43  1219.03  1328.23  1388.87
                             1434.41  1474.19  1482.41  1498.95  1519.18
                             1590.96  1605.45  1721.38  1746.22  1804.07
                             1889.94  1950.99  1970.94  2059.22  2089.39
                             2167.37  2228.33  2376.96  2392.45  2601.92
                             2636.76  4351.67  4449.42  4593.27  4604.58
                             4616.94  4630.55  4661.61

 Zero-point correction=                           0.137295 (Hartree/Particle)
 Thermal correction to Energy=                    0.146509
 Thermal correction to Enthalpy=                  0.147454
 Thermal correction to Gibbs Free Energy=         0.102189
 Sum of electronic and zero-point Energies=           -514.165274
 Sum of electronic and thermal Energies=              -514.156060
 Sum of electronic and thermal Enthalpies=            -514.155116
 Sum of electronic and thermal Free Energies=         -514.200380

                     E (Thermal)             CV                S
                      KCal/Mol        Cal/Mol-Kelvin    Cal/Mol-Kelvin
 Total                   91.936             34.271             95.268
 Electronic               0.000              0.000              0.000
 Translational            0.889              2.981             40.908
 Rotational               0.889              2.981             30.104
 Vibrational             90.159             28.309             24.256
 Vibration     1          0.596              1.977              4.737
 Vibration     2          0.605              1.946              3.388
 Vibration     3          0.611              1.925              2.974
 Vibration     4          0.647              1.809              1.953
 Vibration     5          0.651              1.797              1.890
 Vibration     6          0.670              1.742              1.646
 Vibration     7          0.694              1.669              1.404
 Vibration     8          0.766              1.470              0.962
 Vibration     9          0.784              1.424              0.888
 Vibration    10          0.797              1.391              0.839
 Vibration    11          0.879              1.196              0.600

 Optimization completed.
    -- Stationary point found.
 Normal termination of Gaussian 16 at Tue Dec  8 19:25:13 2020.

 ----------------------------------------------------------------------
 # B3LYP/6-311++G(d,p) empiricaldispersion=gd3bj scf=xqc pop=npa geom=c
 heck
 ----------------------------------------------------------------------

 --------------------------------------
 CID_11137329_JID_1207_Energie_neutraal
 --------------------------------------
 Structure from the checkpoint file:  "JID_1207.chk"
 Charge =  0 Multiplicity = 1

 SCF Done:  E(RB3LYP) =  -514.448224231     A.U. after   15 cycles
 Normal termination of Gaussian 16 at Tue Dec  8 19:26:07 2020.

 ----------------------------------------------------------------------
 # B3LYP/6-311++G(d,p) empiricaldispersion=gd3bj scf=xqc pop=npa geom=c
 heck
 ----------------------------------------------------------------------

 ------------------------------------
 CID_11137329_JID_1207_Energie_kation
 ------------------------------------
 Structure from the checkpoint file:  "JID_1207.chk"
 Charge =  1 Multiplicity = 2

 SCF Done:  E(UB3LYP) =  -514.109999306     A.U. after   32 cycles
 Normal termination of Gaussian 16 at Tue Dec  8 19:29:01 2020.
 Gaussian 16:  ES64L-G16RevA.03 25-Dec-2016

 ----------------------------------------------------------------------
 # B3LYP/6-311++G(d,p) empiricaldispersion=gd3bj scf=xqc pop=npa geom=c
 heck
 ----------------------------------------------------------------------

 -----------------------------------
 CID_11137329_JID_1207_Energie_anion
 -----------------------------------
 Structure from the checkpoint file:  "JID_1207.chk"
 Charge = -1 Multiplicity = 2

                         Standard orientation:
 ---------------------------------------------------------------------
 Center     Atomic      Atomic             Coordinates (Angstroms)
 Number     Number       Type             X           Y           Z
 ---------------------------------------------------------------------
      1          6           0        3.050359   -0.178615   -0.046544
      2          6           0        2.319393   -1.165458    0.613892
      3          6           0        0.925935   -1.106333    0.635959
      4          6           0        0.266854   -0.067966   -0.025611
      5          6           0        0.992775    0.923693   -0.689604
      6          6           0        2.384391    0.866668   -0.690358
      7          7           0       -1.166973   -0.041651   -0.031649
      8          6           0       -1.879690   -1.176001   -0.444537
      9          8           0       -3.085711   -1.280168   -0.421632
     10          6           0       -1.876739    1.101184    0.377246
     11          8           0       -1.351992    2.132751    0.728595
     12          1           0        4.135407   -0.219641   -0.055746
     13          1           0        2.829958   -1.975956    1.125146
     14          1           0        0.351073   -1.851440    1.177655
     15          1           0        0.470195    1.730293   -1.189221
     16          1           0        2.950036    1.639721   -1.201661
     17          1           0       -1.204526   -1.970286   -0.805287
     18          1           0       -2.961365    0.935167    0.332306
 ---------------------------------------------------------------------

 SCF Done:  E(UB3LYP) =  -514.446284060     A.U. after   33 cycles
 SCF Done:  E(UB3LYP) =  -514.446284060     a.u. after    1 cycles

 The electronic state is 2-A.
 Alpha  occ. eigenvalues --  -18.96710 -18.95675 -14.23259 -10.12932 -10.11862
 Alpha  occ. eigenvalues --  -10.10324 -10.06778 -10.06555 -10.06507 -10.06466
 Alpha  occ. eigenvalues --  -10.06428  -0.92410  -0.90297  -0.81750  -0.74012
 Alpha  occ. eigenvalues --   -0.64192  -0.63488  -0.54199  -0.51519  -0.49657
 Alpha  occ. eigenvalues --   -0.44606  -0.39650  -0.38027  -0.36550  -0.35238
 Alpha  occ. eigenvalues --   -0.33227  -0.31911  -0.30220  -0.29624  -0.28969
 Alpha  occ. eigenvalues --   -0.26044  -0.25649  -0.24855  -0.24368  -0.17230
 Alpha  occ. eigenvalues --   -0.16011  -0.14665  -0.12633  -0.11765   0.05106
 Alpha virt. eigenvalues --    0.06712   0.08396   0.08971   0.09172   0.09653
 Alpha virt. eigenvalues --    0.11265   0.11862   0.11951   0.13746   0.14996
 Alpha virt. eigenvalues --    0.15726   0.16036   0.17232   0.18130   0.18794

  Beta  occ. eigenvalues --  -18.96480 -18.95313 -14.23384 -10.12603 -10.11564
  Beta  occ. eigenvalues --  -10.10300 -10.06757 -10.06515 -10.06484 -10.06463
  Beta  occ. eigenvalues --  -10.06388  -0.91943  -0.89703  -0.81639  -0.73935
  Beta  occ. eigenvalues --   -0.64108  -0.63368  -0.53548  -0.51347  -0.49469
  Beta  occ. eigenvalues --   -0.44461  -0.39426  -0.37701  -0.36359  -0.35079
  Beta  occ. eigenvalues --   -0.33099  -0.31810  -0.29717  -0.29005  -0.28503
  Beta  occ. eigenvalues --   -0.25763  -0.25424  -0.24270  -0.23141  -0.16727
  Beta  occ. eigenvalues --   -0.15787  -0.14439  -0.12195  -0.11503
  Beta virt. eigenvalues --    0.07565   0.08844   0.09167   0.09349   0.09999
  Beta virt. eigenvalues --    0.10902   0.11456   0.11921   0.12105   0.13868
  Beta virt. eigenvalues --    0.15570   0.15717   0.16042   0.17160   0.18587

 Mulliken charges and spin densities:
               1          2
     1  C    1.095866  -1.481303
     2  C    0.392542  -0.447071
     3  C   -0.537720   0.744855
     4  C   -0.964737   0.102990
     5  C    0.046593   0.073166
     6  C    0.066381  -0.177091
     7  N    0.306533  -0.082235
     8  C    0.090012   0.160710
     9  O   -0.416011   0.086234
    10  C    0.056638   0.174444
    11  O   -0.391764   0.114203
    12  H   -0.657571   0.800265
    13  H   -0.388481   0.557108
    14  H    0.177559  -0.011618
    15  H    0.113554   0.064444
    16  H   -0.135778   0.293285
    17  H    0.012791   0.052039
    18  H    0.133592  -0.024424
 Sum of Mulliken charges =  -1.00000   1.00000

 Dipole moment (field-independent basis, Debye):
    X=             -0.3395    Y=             -0.6216    Z=             -0.7124  Tot=              1.0046
 Quadrupole moment (field-independent basis, Debye-Ang):
   XX=           -123.8170   YY=            -89.3845   ZZ=            -77.3207
   XY=              1.6224   XZ=             -1.3018   YZ=             -5.7538

 Summary of Natural Population Analysis:

                                       Natural Population
                Natural  -----------------------------------------------
    Atom  No    Charge         Core      Valence    Rydberg      Total
 -----------------------------------------------------------------------
      C    1   -0.10802      0.99956     2.09802    0.01044     3.10802
      C    2   -0.09999      0.99957     2.08939    0.01103     3.09999
      C    3   -0.10440      0.99951     2.09519    0.00970     3.10440
      C    4    0.08824      0.99946     1.89986    0.01244     2.91176
      C    5   -0.09910      0.99951     2.08926    0.01032     3.09910
      C    6   -0.09189      0.99957     2.08180    0.01052     3.09189
      N    7   -0.28927      0.99963     2.77973    0.00991     3.78927
      C    8    0.32638      0.99974     1.65167    0.02221     2.67362
      O    9   -0.28927      0.99988     3.28324    0.00616     4.28927
      C   10    0.31425      0.99973     1.66386    0.02215     2.68575
      O   11   -0.26907      0.99988     3.26326    0.00594     4.26907
      H   12    0.10100      0.00000     0.39719    0.00181     0.39900
      H   13    0.09994      0.00000     0.39899    0.00107     0.40006
      H   14    0.10358      0.00000     0.39530    0.00112     0.39642
      H   15    0.11030      0.00000     0.38872    0.00097     0.38970
      H   16    0.09840      0.00000     0.40073    0.00086     0.40160
      H   17    0.04666      0.00000     0.45151    0.00183     0.45334
      H   18    0.06224      0.00000     0.43591    0.00185     0.43776
 =======================================================================
   * Total *   -0.00000     10.99605    27.86364    0.14032    39.00000

 Normal termination of Gaussian 16 at Tue Dec  8 19:32:03 2020.
