 Gaussian 16, Revision A.03,

 -----------------------------------------------------------
 # opt freq B3LYP/6-31G(d) empiricaldispersion=gd3bj scf=xqc
 -----------------------------------------------------------

 -------------------------------
 CID_115597978_JID_5864_neutraal
 -------------------------------
 Symbolic Z-matrix:
 Charge =  0 Multiplicity = 1

 SCF Done:  E(RB3LYP) =  -1010.56074959     A.U. after   14 cycles
 SCF Done:  E(RB3LYP) =  -1010.56277543     A.U. after   13 cycles
 SCF Done:  E(RB3LYP) =  -1010.56432135     A.U. after   13 cycles
 SCF Done:  E(RB3LYP) =  -1010.56734633     A.U. after   13 cycles
 SCF Done:  E(RB3LYP) =  -1010.56883386     A.U. after   12 cycles
 SCF Done:  E(RB3LYP) =  -1010.56980934     A.U. after   12 cycles
 SCF Done:  E(RB3LYP) =  -1010.57071363     A.U. after   14 cycles
 SCF Done:  E(RB3LYP) =  -1010.57163971     A.U. after   12 cycles
 SCF Done:  E(RB3LYP) =  -1010.57210158     A.U. after   12 cycles
 SCF Done:  E(RB3LYP) =  -1010.57195541     A.U. after   12 cycles
 SCF Done:  E(RB3LYP) =  -1010.57233050     A.U. after    7 cycles
 SCF Done:  E(RB3LYP) =  -1010.57233062     A.U. after    7 cycles
 SCF Done:  E(RB3LYP) =  -1010.57233073     A.U. after    8 cycles
 SCF Done:  E(RB3LYP) =  -1010.57233081     A.U. after    8 cycles
 SCF Done:  E(RB3LYP) =  -1010.57233084     A.U. after    7 cycles
 Optimization completed.
    -- Stationary point found.
 Normal termination of Gaussian 16 at Thu Dec 10 17:25:04 2020.

 --------------------------------------------------------------------
 #N Geom=AllCheck Guess=TCheck SCRF=Check GenChk RB3LYP/6-31G(d) Freq
 --------------------------------------------------------------------

 Structure from the checkpoint file:  "JID_5864.chk"
 -------------------------------
 CID_115597978_JID_5864_neutraal
 -------------------------------
 Charge =  0 Multiplicity = 1

 SCF Done:  E(RB3LYP) =  -1010.57233084     A.U. after    1 cycles

  Exact polarizability: 197.224 -20.342 120.309  12.643   9.622 116.593
 Approx polarizability: 286.310 -39.720 188.547  21.066  29.448 197.104

                      1                      2                      3
                      A                      A                      A
 Frequencies --     30.9214                43.7745                57.8493
 Red. masses --      5.4829                 4.4542                 5.9101
 Frc consts  --      0.0031                 0.0050                 0.0117
 IR Inten    --      1.2728                 3.2105                 0.7350

                      4                      5                      6
                      A                      A                      A
 Frequencies --     93.9870               125.3734               173.5365
 Red. masses --      3.5796                 3.0847                 3.8708
 Frc consts  --      0.0186                 0.0286                 0.0687
 IR Inten    --      1.8610                 1.5708                15.7550

                      7                      8                      9
                      A                      A                      A
 Frequencies --    191.6298               205.7362               215.7144
 Red. masses --      5.5697                 3.0202                 1.5208
 Frc consts  --      0.1205                 0.0753                 0.0417
 IR Inten    --      1.6679                 1.5330                 0.8425

                     10                     11                     12
                      A                      A                      A
 Frequencies --    272.8685               297.9982               307.9232
 Red. masses --      3.1272                 1.9334                 3.6793
 Frc consts  --      0.1372                 0.1012                 0.2055
 IR Inten    --      0.6777                 3.9513                 1.3962

                     13                     14                     15
                      A                      A                      A
 Frequencies --    390.2505               423.0265               435.1677
 Red. masses --      4.4188                 3.3728                 3.3135
 Frc consts  --      0.3965                 0.3556                 0.3697
 IR Inten    --      4.3991                 0.0212                 4.7499

                     16                     17                     18
                      A                      A                      A
 Frequencies --    484.5786               525.0866               553.0825
 Red. masses --      4.2813                 3.3337                 5.8968
 Frc consts  --      0.5923                 0.5416                 1.0628
 IR Inten    --      6.9553                 5.6647                 5.6509

                     19                     20                     21
                      A                      A                      A
 Frequencies --    575.1865               621.2467               670.5842
 Red. masses --      3.8811                 4.5494                 4.8715
 Frc consts  --      0.7565                 1.0345                 1.2907
 IR Inten    --     11.7739                 1.7378                15.2927

                     22                     23                     24
                      A                      A                      A
 Frequencies --    682.5442               715.7822               742.0505
 Red. masses --      3.8699                 2.8705                 2.0124
 Frc consts  --      1.0622                 0.8665                 0.6529
 IR Inten    --      0.8887                 5.7732                59.3394

                     25                     26                     27
                      A                      A                      A
 Frequencies --    758.9889               766.2287               779.8677
 Red. masses --      1.9337                 1.3063                 2.5657
 Frc consts  --      0.6563                 0.4519                 0.9194
 IR Inten    --     57.7622                55.1735                14.1583

                     28                     29                     30
                      A                      A                      A
 Frequencies --    807.3511               857.2503               868.6265
 Red. masses --      1.2802                 5.4881                 1.3808
 Frc consts  --      0.4916                 2.3762                 0.6138
 IR Inten    --      8.6290                24.6357                 0.9945

                     31                     32                     33
                      A                      A                      A
 Frequencies --    897.3303               932.7047               938.2511
 Red. masses --      1.8280                 1.7221                 2.0340
 Frc consts  --      0.8672                 0.8827                 1.0550
 IR Inten    --      0.7712                 6.0520                 4.6751

                     34                     35                     36
                      A                      A                      A
 Frequencies --    957.5860               975.1767              1011.0013
 Red. masses --      2.8085                 1.2434                 6.9092
 Frc consts  --      1.5173                 0.6967                 4.1608
 IR Inten    --      7.2932                 0.0369                44.6780

                     37                     38                     39
                      A                      A                      A
 Frequencies --   1040.2135              1049.5587              1070.3637
 Red. masses --      3.6823                 2.0983                 2.6110
 Frc consts  --      2.3476                 1.3618                 1.7625
 IR Inten    --     51.0685                 2.7468                 6.2780

                     40                     41                     42
                      A                      A                      A
 Frequencies --   1095.4504              1126.1023              1134.9676
 Red. masses --      2.8982                 1.9949                 1.7713
 Frc consts  --      2.0491                 1.4905                 1.3444
 IR Inten    --      4.7509                35.9372                14.4384

                     43                     44                     45
                      A                      A                      A
 Frequencies --   1166.3292              1186.5463              1203.2924
 Red. masses --      1.8255                 1.1546                 2.2730
 Frc consts  --      1.4631                 0.9577                 1.9391
 IR Inten    --     68.1342                 3.4676                11.7119

                     46                     47                     48
                      A                      A                      A
 Frequencies --   1228.6089              1250.3969              1263.3001
 Red. masses --      2.5762                 1.1935                 1.2063
 Frc consts  --      2.2911                 1.0995                 1.1343
 IR Inten    --    421.5658                 1.1317                31.5022

                     49                     50                     51
                      A                      A                      A
 Frequencies --   1280.1925              1315.1134              1325.6053
 Red. masses --      3.4252                 1.2314                 1.4998
 Frc consts  --      3.3074                 1.2548                 1.5528
 IR Inten    --     49.6989                39.7915                12.8733

                     52                     53                     54
                      A                      A                      A
 Frequencies --   1372.2611              1379.3628              1402.1332
 Red. masses --      2.8345                 1.8376                 1.2640
 Frc consts  --      3.1448                 2.0599                 1.4642
 IR Inten    --     53.1049                41.4761                12.9725

                     55                     56                     57
                      A                      A                      A
 Frequencies --   1415.3498              1447.3477              1486.5815
 Red. masses --      1.5277                 1.2686                 1.6688
 Frc consts  --      1.8031                 1.5657                 2.1729
 IR Inten    --     30.1899                17.3973                28.7648

                     58                     59                     60
                      A                      A                      A
 Frequencies --   1501.3961              1513.0480              1523.0164
 Red. masses --      1.5043                 2.0667                 1.4414
 Frc consts  --      1.9980                 2.7876                 1.9698
 IR Inten    --    132.7106                34.0471                 6.8164

                     61                     62                     63
                      A                      A                      A
 Frequencies --   1524.2642              1533.6884              1537.8241
 Red. masses --      1.1533                 1.1331                 1.4641
 Frc consts  --      1.5788                 1.5704                 2.0400
 IR Inten    --      4.4075                34.3155                36.9342

                     64                     65                     66
                      A                      A                      A
 Frequencies --   1548.8214              1603.5490              1659.7749
 Red. masses --      1.1571                 1.5815                 6.8379
 Frc consts  --      1.6354                 2.3959                11.0986
 IR Inten    --     13.0445               241.4324                18.9943

                     67                     68                     69
                      A                      A                      A
 Frequencies --   1669.5814              3023.8758              3055.4091
 Red. masses --      6.8831                 1.0759                 1.0396
 Frc consts  --     11.3044                 5.7964                 5.7184
 IR Inten    --     31.0433                44.6400                27.8165

                     70                     71                     72
                      A                      A                      A
 Frequencies --   3070.4570              3096.9881              3119.1277
 Red. masses --      1.0852                 1.0659                 1.0989
 Frc consts  --      6.0277                 6.0233                 6.2992
 IR Inten    --     10.7873                45.9392                23.4937

                     73                     74                     75
                      A                      A                      A
 Frequencies --   3155.4145              3165.6187              3190.6006
 Red. masses --      1.1013                 1.1041                 1.0861
 Frc consts  --      6.4605                 6.5186                 6.5142
 IR Inten    --     12.2574                 7.4409                 0.3053

                     76                     77                     78
                      A                      A                      A
 Frequencies --   3197.9605              3202.3705              3214.1472
 Red. masses --      1.0903                 1.0884                 1.0946
 Frc consts  --      6.5694                 6.5762                 6.6625
 IR Inten    --     11.5240                 0.7257                22.8823

                     79                     80                     81
                      A                      A                      A
 Frequencies --   3224.8871              3575.5146              3595.5412
 Red. masses --      1.0948                 1.0753                 1.0764
 Frc consts  --      6.7083                 8.0994                 8.1988
 IR Inten    --      7.7439                31.0859                23.5354

 - Thermochemistry -
 -------------------
 Temperature   298.150 Kelvin.  Pressure   1.00000 Atm.
 Atom     1 has atomic number  6 and mass  12.00000

 Molecular mass:   222.08268 amu.
 Principal axes and moments of inertia in atomic units:
                           1         2         3
     Eigenvalues --  1823.570174942.677225212.88472
           X            0.99993  -0.00180   0.01131
           Y            0.00200   0.99984  -0.01773
           Z           -0.01128   0.01775   0.99978
 This molecule is an asymmetric top.
 Rotational symmetry number  1.
 Warning -- assumption of classical behavior for rotation
           may cause significant error
 Rotational temperatures (Kelvin)      0.04750     0.01752     0.01662
 Rotational constants (GHZ):           0.98967     0.36513     0.34621
 Zero-point vibrational energy     634787.7 (Joules/Mol)
                                  151.71790 (Kcal/Mol)
 Warning -- explicit consideration of  19 degrees of freedom as
           vibrations may cause significant error
 Vibrational temperatures:     44.49    62.98    83.23   135.23   180.38
          (Kelvin)            249.68   275.71   296.01   310.36   392.60
                              428.75   443.03   561.48   608.64   626.11
                              697.20   755.48   795.76   827.57   893.84
                              964.82   982.03  1029.85  1067.65  1092.02
                             1102.43  1122.06  1161.60  1233.39  1249.76
                             1291.06  1341.95  1349.93  1377.75  1403.06
                             1454.61  1496.64  1510.08  1540.01  1576.11
                             1620.21  1632.97  1678.09  1707.18  1731.27
                             1767.69  1799.04  1817.61  1841.91  1892.15
                             1907.25  1974.38  1984.60  2017.36  2036.37
                             2082.41  2138.86  2160.17  2176.94  2191.28
                             2193.08  2206.64  2212.59  2228.41  2307.15
                             2388.05  2402.16  4350.68  4396.05  4417.70
                             4455.88  4487.73  4539.94  4554.62  4590.56
                             4601.15  4607.50  4624.44  4639.89  5144.37
                             5173.18

 Zero-point correction=                           0.241778 (Hartree/Particle)
 Thermal correction to Energy=                    0.255525
 Thermal correction to Enthalpy=                  0.256469
 Thermal correction to Gibbs Free Energy=         0.199995
 Sum of electronic and zero-point Energies=          -1010.330553
 Sum of electronic and thermal Energies=             -1010.316806
 Sum of electronic and thermal Enthalpies=           -1010.315862
 Sum of electronic and thermal Free Energies=        -1010.372336

                     E (Thermal)             CV                S
                      KCal/Mol        Cal/Mol-Kelvin    Cal/Mol-Kelvin
 Total                  160.344             52.556            118.859
 Electronic               0.000              0.000              0.000
 Translational            0.889              2.981             42.096
 Rotational               0.889              2.981             32.219
 Vibrational            158.567             46.594             44.544
 Vibration     1          0.594              1.984              5.769
 Vibration     2          0.595              1.980              5.081
 Vibration     3          0.596              1.974              4.529
 Vibration     4          0.603              1.953              3.575
 Vibration     5          0.610              1.928              3.016
 Vibration     6          0.627              1.875              2.397
 Vibration     7          0.634              1.851              2.212
 Vibration     8          0.640              1.832              2.081
 Vibration     9          0.645              1.817              1.995
 Vibration    10          0.676              1.723              1.578
 Vibration    11          0.691              1.677              1.428
 Vibration    12          0.698              1.659              1.373
 Vibration    13          0.758              1.491              0.999
 Vibration    14          0.785              1.420              0.882
 Vibration    15          0.796              1.394              0.842
 Vibration    16          0.841              1.284              0.698
 Vibration    17          0.880              1.194              0.598
 Vibration    18          0.908              1.133              0.538
 Vibration    19          0.932              1.085              0.494

 Optimization completed.
    -- Stationary point found.
 Normal termination of Gaussian 16 at Thu Dec 10 17:36:47 2020.

 ----------------------------------------------------------------------
 # B3LYP/6-311++G(d,p) empiricaldispersion=gd3bj scf=xqc pop=npa geom=c
 heck
 ----------------------------------------------------------------------

 ---------------------------------------
 CID_115597978_JID_5864_Energie_neutraal
 ---------------------------------------
 Structure from the checkpoint file:  "JID_5864.chk"
 Charge =  0 Multiplicity = 1

 SCF Done:  E(RB3LYP) =  -1010.76772741     A.U. after   15 cycles
 Normal termination of Gaussian 16 at Thu Dec 10 17:42:00 2020.

 ----------------------------------------------------------------------
 # B3LYP/6-311++G(d,p) empiricaldispersion=gd3bj scf=xqc pop=npa geom=c
 heck
 ----------------------------------------------------------------------

 -------------------------------------
 CID_115597978_JID_5864_Energie_kation
 -------------------------------------
 Structure from the checkpoint file:  "JID_5864.chk"
 Charge =  1 Multiplicity = 2

 SCF Done:  E(UB3LYP) =  -1010.48602111     A.U. after   28 cycles
 Normal termination of Gaussian 16 at Thu Dec 10 17:55:26 2020.
 Gaussian 16:  ES64L-G16RevA.03 25-Dec-2016

 ----------------------------------------------------------------------
 # B3LYP/6-311++G(d,p) empiricaldispersion=gd3bj scf=xqc pop=npa geom=c
 heck
 ----------------------------------------------------------------------

 ------------------------------------
 CID_115597978_JID_5864_Energie_anion
 ------------------------------------
 Structure from the checkpoint file:  "JID_5864.chk"
 Charge = -1 Multiplicity = 2

                         Standard orientation:
 ---------------------------------------------------------------------
 Center     Atomic      Atomic             Coordinates (Angstroms)
 Number     Number       Type             X           Y           Z
 ---------------------------------------------------------------------
      1          6           0       -0.149340    2.756015   -0.041818
      2          6           0        0.546666    1.682602   -0.871731
      3          7           0        1.724887    1.152375   -0.171007
      4          6           0        2.237655   -0.103809   -0.296114
      5         16           0        3.898869   -0.371700   -0.321772
      6          7           0        1.360713   -1.167291   -0.377849
      7          6           0        0.178327   -1.407054    0.483131
      8          6           0        0.186945   -0.700489    1.873459
      9          8           0       -1.011320    0.109795    1.963728
     10          6           0       -1.767629   -0.123138    0.852436
     11          6           0       -3.006761    0.460911    0.610420
     12          6           0       -3.636329    0.148688   -0.597994
     13          6           0       -3.044668   -0.712872   -1.529469
     14          6           0       -1.796013   -1.284498   -1.264257
     15          6           0       -1.161842   -0.977713   -0.066602
     16          1           0       -0.474848    2.347545    0.918033
     17          1           0       -1.025470    3.135432   -0.577622
     18          1           0        0.520975    3.602324    0.151037
     19          1           0       -0.130238    0.860029   -1.086279
     20          1           0        0.870403    2.094957   -1.838530
     21          1           0        2.472606    1.829132   -0.068095
     22          1           0        1.900504   -2.011577   -0.517125
     23          1           0        0.185007   -2.491614    0.629385
     24          1           0        1.046458   -0.043056    2.003779
     25          1           0        0.155989   -1.428752    2.688133
     26          1           0       -3.454211    1.134252    1.333339
     27          1           0       -4.605458    0.588066   -0.816464
     28          1           0       -3.556802   -0.936683   -2.459956
     29          1           0       -1.317522   -1.938662   -1.987875
 ---------------------------------------------------------------------

 SCF Done:  E(UB3LYP) =  -1010.76300544     A.U. after   33 cycles
 SCF Done:  E(UB3LYP) =  -1010.76300544     a.u. after    1 cycles

 The electronic state is 2-A.
 Alpha  occ. eigenvalues --  -88.67719 -19.04398 -14.23473 -14.22591 -10.16675
 Alpha  occ. eigenvalues --  -10.11868 -10.11610 -10.11414 -10.10421 -10.06521
 Alpha  occ. eigenvalues --  -10.06116 -10.05994 -10.05793 -10.05643 -10.05397
 Alpha  occ. eigenvalues --   -7.76493  -5.72886  -5.72348  -5.72028  -0.96463
 Alpha  occ. eigenvalues --   -0.87231  -0.80331  -0.74208  -0.68672  -0.66034
 Alpha  occ. eigenvalues --   -0.63494  -0.62114  -0.59650  -0.53322  -0.52587
 Alpha  occ. eigenvalues --   -0.51157  -0.48152  -0.47974  -0.41623  -0.40584
 Alpha  occ. eigenvalues --   -0.38690  -0.38503  -0.37576  -0.36565  -0.34468
 Alpha  occ. eigenvalues --   -0.33595  -0.32520  -0.31948  -0.29873  -0.29388
 Alpha  occ. eigenvalues --   -0.28716  -0.27083  -0.26713  -0.25840  -0.25667
 Alpha  occ. eigenvalues --   -0.24982  -0.24594  -0.22542  -0.21112  -0.15171
 Alpha  occ. eigenvalues --   -0.14604  -0.11947  -0.11141  -0.09820   0.04519
 Alpha virt. eigenvalues --    0.06910   0.07321   0.07908   0.08525   0.08727
 Alpha virt. eigenvalues --    0.09878   0.10115   0.10245   0.10518   0.10896
 Alpha virt. eigenvalues --    0.11786   0.12750   0.13169   0.13454   0.13885

  Beta  occ. eigenvalues --  -88.67712 -19.04402 -14.23469 -14.22516 -10.16540
  Beta  occ. eigenvalues --  -10.11852 -10.11641 -10.11376 -10.10403 -10.06512
  Beta  occ. eigenvalues --  -10.06053 -10.05971 -10.05648 -10.05537 -10.05276
  Beta  occ. eigenvalues --   -7.76487  -5.72887  -5.72323  -5.72024  -0.96456
  Beta  occ. eigenvalues --   -0.87104  -0.80239  -0.74007  -0.68488  -0.65918
  Beta  occ. eigenvalues --   -0.63366  -0.61887  -0.59547  -0.53224  -0.52519
  Beta  occ. eigenvalues --   -0.50926  -0.48054  -0.47855  -0.41498  -0.40412
  Beta  occ. eigenvalues --   -0.38592  -0.38407  -0.37496  -0.36462  -0.34365
  Beta  occ. eigenvalues --   -0.33529  -0.32415  -0.31777  -0.29784  -0.29296
  Beta  occ. eigenvalues --   -0.28632  -0.26848  -0.26588  -0.25747  -0.25533
  Beta  occ. eigenvalues --   -0.24892  -0.24411  -0.22415  -0.20827  -0.14997
  Beta  occ. eigenvalues --   -0.13680  -0.11718  -0.10858  -0.09771
  Beta virt. eigenvalues --    0.06857   0.07553   0.08129   0.08486   0.08672
  Beta virt. eigenvalues --    0.09617   0.10098   0.10150   0.10570   0.10740
  Beta virt. eigenvalues --    0.11174   0.11897   0.12855   0.13344   0.13516

 Mulliken charges and spin densities:
               1          2
     1  C   -0.486410  -0.138421
     2  C    0.125823  -0.196611
     3  N   -0.052464  -0.000208
     4  C    0.144107   0.039953
     5  S   -0.897048   0.013166
     6  N    0.185863  -0.113237
     7  C    0.998537  -0.970358
     8  C    0.490533  -0.882232
     9  O   -0.099087  -0.005662
    10  C   -0.166190   0.012985
    11  C   -0.576475   0.442233
    12  C    0.044144  -0.238090
    13  C   -0.355509  -0.071829
    14  C   -0.768244   0.555226
    15  C    0.166999   0.161280
    16  H    0.157847   0.013741
    17  H    0.038444   0.089377
    18  H    0.005712   0.120638
    19  H    0.448366  -0.201979
    20  H    0.026060   0.150804
    21  H    0.221973   0.058255
    22  H    0.197639   0.081156
    23  H   -0.854824   1.088942
    24  H    0.208463   0.028214
    25  H   -0.316095   0.511392
    26  H    0.047869   0.094118
    27  H    0.080673   0.045304
    28  H   -0.004924   0.144365
    29  H   -0.011784   0.167480
 Sum of Mulliken charges =  -1.00000   1.00000

 Dipole moment (field-independent basis, Debye):
    X=             -3.1363    Y=              4.6772    Z=             -1.0972  Tot=              5.7373
 Quadrupole moment (field-independent basis, Debye-Ang):
   XX=           -157.1587   YY=           -132.3917   ZZ=           -122.1306
   XY=              2.2979   XZ=              1.3343   YZ=              6.0394

 Summary of Natural Population Analysis:

                                       Natural Population
                Natural  -----------------------------------------------
    Atom  No    Charge         Core      Valence    Rydberg      Total
 -----------------------------------------------------------------------
      C    1   -0.28967      0.99966     2.28560    0.00441     3.28967
      C    2   -0.09182      0.99961     2.08175    0.01046     3.09182
      N    3   -0.32056      0.99963     2.80905    0.01188     3.82056
      C    4    0.17511      0.99965     1.80294    0.02230     2.82489
      S    5   -0.15523      4.99957     3.14259    0.01307     8.15523
      N    6   -0.31768      0.99963     2.80428    0.01377     3.81768
      C    7   -0.02263      0.99953     2.00750    0.01560     3.02263
      C    8   -0.01117      0.99957     2.00016    0.01145     3.01117
      O    9   -0.27860      0.99987     3.27072    0.00801     4.27860
      C   10    0.15824      0.99931     1.82660    0.01585     2.84176
      C   11   -0.11578      0.99951     2.10779    0.00848     3.11578
      C   12   -0.07627      0.99958     2.06717    0.00953     3.07627
      C   13   -0.12923      0.99957     2.12007    0.00959     3.12923
      C   14   -0.06614      0.99951     2.05683    0.00980     3.06614
      C   15   -0.04427      0.99944     2.03375    0.01108     3.04427
      H   16    0.10903      0.00000     0.38948    0.00149     0.39097
      H   17    0.10128      0.00000     0.39772    0.00101     0.39872
      H   18    0.09100      0.00000     0.40798    0.00102     0.40900
      H   19    0.11270      0.00000     0.38491    0.00239     0.38730
      H   20    0.08615      0.00000     0.41270    0.00114     0.41385
      H   21    0.19269      0.00000     0.30495    0.00236     0.30731
      H   22    0.19973      0.00000     0.29798    0.00229     0.30027
      H   23    0.11321      0.00000     0.37897    0.00781     0.38679
      H   24    0.09735      0.00000     0.40131    0.00135     0.40265
      H   25    0.09251      0.00000     0.40549    0.00200     0.40749
      H   26    0.09988      0.00000     0.39882    0.00129     0.40012
      H   27    0.09371      0.00000     0.40552    0.00077     0.40629
      H   28    0.09616      0.00000     0.40306    0.00078     0.40384
      H   29    0.10030      0.00000     0.39863    0.00107     0.39970
 =======================================================================
   * Total *   -0.00000     18.99364    39.80432    0.20204    59.00000

 Normal termination of Gaussian 16 at Thu Dec 10 18:11:26 2020.
