 Gaussian 16, Revision A.03,

 -----------------------------------------------------------
 # opt freq B3LYP/6-31G(d) empiricaldispersion=gd3bj scf=xqc
 -----------------------------------------------------------

 -----------------------------
 CID_90747826_JID_282_neutraal
 -----------------------------
 Symbolic Z-matrix:
 Charge =  0 Multiplicity = 1

 SCF Done:  E(RB3LYP) =  -478.568512245     A.U. after   14 cycles
 SCF Done:  E(RB3LYP) =  -478.572153200     A.U. after   12 cycles
 SCF Done:  E(RB3LYP) =  -478.570817001     A.U. after   13 cycles
 SCF Done:  E(RB3LYP) =  -478.572734712     A.U. after   13 cycles
 SCF Done:  E(RB3LYP) =  -478.572729516     A.U. after   12 cycles
 SCF Done:  E(RB3LYP) =  -478.573057795     A.U. after   12 cycles
 SCF Done:  E(RB3LYP) =  -478.573166453     A.U. after   12 cycles
 SCF Done:  E(RB3LYP) =  -478.573256378     A.U. after   12 cycles
 SCF Done:  E(RB3LYP) =  -478.573336789     A.U. after   13 cycles
 SCF Done:  E(RB3LYP) =  -478.573373784     A.U. after   12 cycles
 SCF Done:  E(RB3LYP) =  -478.573430425     A.U. after   12 cycles
 SCF Done:  E(RB3LYP) =  -478.573430691     A.U. after   11 cycles
 SCF Done:  E(RB3LYP) =  -478.573436147     A.U. after   12 cycles
 SCF Done:  E(RB3LYP) =  -478.573437822     A.U. after    9 cycles
 SCF Done:  E(RB3LYP) =  -478.573438117     A.U. after    9 cycles
 Optimization completed.
    -- Stationary point found.
 Normal termination of Gaussian 16 at Tue Dec  8 10:24:42 2020.

 --------------------------------------------------------------------
 #N Geom=AllCheck Guess=TCheck SCRF=Check GenChk RB3LYP/6-31G(d) Freq
 --------------------------------------------------------------------

 Structure from the checkpoint file:  "JID_282.chk"
 -----------------------------
 CID_90747826_JID_282_neutraal
 -----------------------------
 Charge =  0 Multiplicity = 1

 SCF Done:  E(RB3LYP) =  -478.573438117     A.U. after    1 cycles

  Exact polarizability:  83.867   7.968  81.948  -0.293  -0.390  75.445
 Approx polarizability: 118.963  17.227 120.606   1.332   0.538 114.930

                      1                      2                      3
                      A                      A                      A
 Frequencies --     33.9682               128.4742               167.3406
 Red. masses --      5.2976                 4.6756                 2.7205
 Frc consts  --      0.0036                 0.0455                 0.0449
 IR Inten    --      1.7615                 1.0610                 3.8051

                      4                      5                      6
                      A                      A                      A
 Frequencies --    222.9375               236.8754               274.4213
 Red. masses --      3.9124                 6.5382                 2.8031
 Frc consts  --      0.1146                 0.2161                 0.1244
 IR Inten    --      5.4520                 5.0277                11.2810

                      7                      8                      9
                      A                      A                      A
 Frequencies --    313.4214               371.0256               380.0815
 Red. masses --      2.5191                 1.1786                 2.0497
 Frc consts  --      0.1458                 0.0956                 0.1745
 IR Inten    --      5.0251                59.0757                10.4203

                     10                     11                     12
                      A                      A                      A
 Frequencies --    425.2568               454.8415               592.9393
 Red. masses --      3.9046                 3.2624                 5.0834
 Frc consts  --      0.4160                 0.3977                 1.0530
 IR Inten    --      2.5155                 0.8048                 5.6074

                     13                     14                     15
                      A                      A                      A
 Frequencies --    617.6251               670.9233               743.2306
 Red. masses --      2.0416                 2.7919                 2.5120
 Frc consts  --      0.4588                 0.7404                 0.8176
 IR Inten    --     11.9634                 1.2395                36.0400

                     16                     17                     18
                      A                      A                      A
 Frequencies --    774.3681               818.5839               872.1509
 Red. masses --      2.5932                 3.1700                 2.6928
 Frc consts  --      0.9162                 1.2515                 1.2068
 IR Inten    --      1.9479                 9.9432                18.7601

                     19                     20                     21
                      A                      A                      A
 Frequencies --    895.0711               936.8557               970.3717
 Red. masses --      2.4761                 1.7741                 1.8502
 Frc consts  --      1.1688                 0.9174                 1.0265
 IR Inten    --     14.4968               105.3792                49.0607

                     22                     23                     24
                      A                      A                      A
 Frequencies --    980.5391               994.0115              1031.6440
 Red. masses --      2.4335                 1.4114                 1.6699
 Frc consts  --      1.3785                 0.8217                 1.0471
 IR Inten    --      5.5439                 4.8021                 0.4966

                     25                     26                     27
                      A                      A                      A
 Frequencies --   1046.0722              1087.5149              1111.0123
 Red. masses --      1.8862                 1.6657                 2.1589
 Frc consts  --      1.2161                 1.1607                 1.5700
 IR Inten    --     10.2336                 2.3647                 8.8059

                     28                     29                     30
                      A                      A                      A
 Frequencies --   1150.9659              1206.1072              1221.9341
 Red. masses --      1.6855                 1.1533                 1.3820
 Frc consts  --      1.3156                 0.9884                 1.2157
 IR Inten    --      4.6013                 2.8898                18.9619

                     31                     32                     33
                      A                      A                      A
 Frequencies --   1228.1781              1245.1209              1275.0175
 Red. masses --      2.1214                 1.8153                 1.3458
 Frc consts  --      1.8854                 1.6581                 1.2891
 IR Inten    --    193.4273               148.7713                 0.9468

                     34                     35                     36
                      A                      A                      A
 Frequencies --   1340.8096              1352.1727              1384.7042
 Red. masses --      1.3277                 1.7261                 1.5348
 Frc consts  --      1.4063                 1.8594                 1.7339
 IR Inten    --     21.0543                10.3715                 0.3980

                     37                     38                     39
                      A                      A                      A
 Frequencies --   1394.2981              1417.5684              1433.8970
 Red. masses --      1.5332                 1.3932                 1.3016
 Frc consts  --      1.7562                 1.6495                 1.5767
 IR Inten    --      1.3642                 6.7957                 2.7535

                     40                     41                     42
                      A                      A                      A
 Frequencies --   1442.6649              1450.8887              1507.4469
 Red. masses --      1.1184                 1.4609                 1.0827
 Frc consts  --      1.3714                 1.8119                 1.4495
 IR Inten    --      3.8674                 5.6363                 2.2057

                     43                     44                     45
                      A                      A                      A
 Frequencies --   1519.4636              1694.9171              1734.6962
 Red. masses --      1.0985                 1.1191                 6.6928
 Frc consts  --      1.4942                 1.8941                11.8660
 IR Inten    --      5.1938                75.7120                 0.2185

                     46                     47                     48
                      A                      A                      A
 Frequencies --   1818.5071              2995.6248              3017.9847
 Red. masses --      7.6449                 1.0820                 1.0693
 Frc consts  --     14.8954                 5.7207                 5.7381
 IR Inten    --    252.2422                24.4461                27.7110

                     49                     50                     51
                      A                      A                      A
 Frequencies --   3049.2579              3052.7852              3065.9223
 Red. masses --      1.0887                 1.0739                 1.0807
 Frc consts  --      5.9643                 5.8967                 5.9854
 IR Inten    --     83.5065                11.3429                47.9449

                     52                     53                     54
                      A                      A                      A
 Frequencies --   3105.2248              3113.7559              3155.9574
 Red. masses --      1.1022                 1.0877                 1.0845
 Frc consts  --      6.2616                 6.2133                 6.3640
 IR Inten    --     28.4432                33.3944                10.0325

                     55                     56                     57
                      A                      A                      A
 Frequencies --   3178.4224              3476.6293              3565.1929
 Red. masses --      1.0971                 1.0498                 1.0921
 Frc consts  --      6.5300                 7.4761                 8.1783
 IR Inten    --     34.6518                14.6956                14.3348

 - Thermochemistry -
 -------------------
 Temperature   298.150 Kelvin.  Pressure   1.00000 Atm.
 Atom     1 has atomic number  6 and mass  12.00000

 Molecular mass:   141.07898 amu.
 Principal axes and moments of inertia in atomic units:
                           1         2         3
     Eigenvalues --  1045.831061336.604621524.53697
           X            0.99696   0.07734  -0.00896
           Y           -0.07731   0.99700   0.00351
           Z            0.00920  -0.00280   0.99995
 This molecule is an asymmetric top.
 Rotational symmetry number  1.
 Warning -- assumption of classical behavior for rotation
           may cause significant error
 Rotational temperatures (Kelvin)      0.08282     0.06480     0.05681
 Rotational constants (GHZ):           1.72565     1.35024     1.18380
 Zero-point vibrational energy     471015.7 (Joules/Mol)
                                  112.57545 (Kcal/Mol)
 Warning -- explicit consideration of  13 degrees of freedom as
           vibrations may cause significant error
 Vibrational temperatures:     48.87   184.85   240.77   320.76   340.81
          (Kelvin)            394.83   450.94   533.82   546.85   611.85
                              654.42   853.11   888.62   965.31  1069.34
                             1114.14  1177.76  1254.83  1287.81  1347.93
                             1396.15  1410.78  1430.16  1484.31  1505.06
                             1564.69  1598.50  1655.98  1735.32  1758.09
                             1767.07  1791.45  1834.47  1929.13  1945.47
                             1992.28  2006.08  2039.56  2063.06  2075.67
                             2087.51  2168.88  2186.17  2438.61  2495.84
                             2616.43  4310.04  4342.21  4387.20  4392.28
                             4411.18  4467.73  4480.00  4540.72  4573.04
                             5002.09  5129.52

 Zero-point correction=                           0.179400 (Hartree/Particle)
 Thermal correction to Energy=                    0.188755
 Thermal correction to Enthalpy=                  0.189699
 Thermal correction to Gibbs Free Energy=         0.144718
 Sum of electronic and zero-point Energies=           -478.394038
 Sum of electronic and thermal Energies=              -478.384683
 Sum of electronic and thermal Enthalpies=            -478.383739
 Sum of electronic and thermal Free Energies=         -478.428720

                     E (Thermal)             CV                S
                      KCal/Mol        Cal/Mol-Kelvin    Cal/Mol-Kelvin
 Total                  118.445             35.678             94.671
 Electronic               0.000              0.000              0.000
 Translational            0.889              2.981             40.744
 Rotational               0.889              2.981             29.145
 Vibrational            116.668             29.717             24.782
 Vibration     1          0.594              1.983              5.583
 Vibration     2          0.611              1.925              2.969
 Vibration     3          0.624              1.883              2.465
 Vibration     4          0.649              1.806              1.935
 Vibration     5          0.656              1.784              1.826
 Vibration     6          0.677              1.721              1.568
 Vibration     7          0.701              1.648              1.344
 Vibration     8          0.743              1.532              1.076
 Vibration     9          0.750              1.513              1.039
 Vibration    10          0.787              1.415              0.874
 Vibration    11          0.813              1.350              0.781
 Vibration    12          0.950              1.047              0.462
 Vibration    13          0.977              0.995              0.420

 Optimization completed.
    -- Stationary point found.
 Normal termination of Gaussian 16 at Tue Dec  8 10:28:53 2020.

 ----------------------------------------------------------------------
 # B3LYP/6-311++G(d,p) empiricaldispersion=gd3bj scf=xqc pop=npa geom=c
 heck
 ----------------------------------------------------------------------

 -------------------------------------
 CID_90747826_JID_282_Energie_neutraal
 -------------------------------------
 Structure from the checkpoint file:  "JID_282.chk"
 Charge =  0 Multiplicity = 1

 SCF Done:  E(RB3LYP) =  -478.719843470     A.U. after   15 cycles
 Normal termination of Gaussian 16 at Tue Dec  8 10:30:14 2020.

 ----------------------------------------------------------------------
 # B3LYP/6-311++G(d,p) empiricaldispersion=gd3bj scf=xqc pop=npa geom=c
 heck
 ----------------------------------------------------------------------

 -----------------------------------
 CID_90747826_JID_282_Energie_kation
 -----------------------------------
 Structure from the checkpoint file:  "JID_282.chk"
 Charge =  1 Multiplicity = 2

 SCF Done:  E(UB3LYP) =  -478.401234901     A.U. after   22 cycles
 Normal termination of Gaussian 16 at Tue Dec  8 10:37:18 2020.
 Gaussian 16:  ES64L-G16RevA.03 25-Dec-2016

 ----------------------------------------------------------------------
 # B3LYP/6-311++G(d,p) empiricaldispersion=gd3bj scf=xqc pop=npa geom=c
 heck
 ----------------------------------------------------------------------

 ----------------------------------
 CID_90747826_JID_282_Energie_anion
 ----------------------------------
 Structure from the checkpoint file:  "JID_282.chk"
 Charge = -1 Multiplicity = 2

                         Standard orientation:
 ---------------------------------------------------------------------
 Center     Atomic      Atomic             Coordinates (Angstroms)
 Number     Number       Type             X           Y           Z
 ---------------------------------------------------------------------
      1          6           0       -2.030206   -0.507152    0.466489
      2          6           0       -1.601358   -0.502887   -1.007862
      3          6           0       -0.108546   -0.209318   -1.159418
      4          6           0        0.220926    1.176640   -0.586296
      5          6           0       -0.442104    1.399390    0.760413
      6          6           0       -1.448369    0.656698    1.226643
      7          7           0        1.651637    1.474088   -0.668540
      8          8           0        0.588733   -1.386250   -0.625033
      9          6           0        1.330691   -1.482944    0.477941
     10          8           0        1.688337   -0.621613    1.247214
     11          1           0       -3.125864   -0.494379    0.530171
     12          1           0       -1.718916   -1.448659    0.944237
     13          1           0       -2.150566    0.278055   -1.548624
     14          1           0       -1.838309   -1.459062   -1.485522
     15          1           0        0.192537   -0.218631   -2.209239
     16          1           0       -0.260147    1.853281   -1.310462
     17          1           0       -0.043703    2.219805    1.355006
     18          1           0       -1.862385    0.863804    2.211920
     19          1           0        1.790346    2.478608   -0.575192
     20          1           0        2.111738    1.033399    0.125683
     21          1           0        1.601045   -2.544495    0.596880
 ---------------------------------------------------------------------

 SCF Done:  E(UB3LYP) =  -478.703511729     A.U. after   33 cycles
 SCF Done:  E(UB3LYP) =  -478.703511729     a.u. after    1 cycles

 The electronic state is 2-A.
 Alpha  occ. eigenvalues --  -19.06968 -19.01900 -14.18150 -10.20574 -10.12863
 Alpha  occ. eigenvalues --  -10.09790 -10.06259 -10.06182 -10.05703 -10.05456
 Alpha  occ. eigenvalues --   -1.00355  -0.92973  -0.78521  -0.71679  -0.65296
 Alpha  occ. eigenvalues --   -0.61874  -0.55982  -0.50944  -0.47173  -0.43293
 Alpha  occ. eigenvalues --   -0.40730  -0.39278  -0.38238  -0.36384  -0.35920
 Alpha  occ. eigenvalues --   -0.32800  -0.32000  -0.30422  -0.29273  -0.28381
 Alpha  occ. eigenvalues --   -0.25877  -0.25018  -0.24062  -0.21367  -0.19928
 Alpha  occ. eigenvalues --   -0.19028  -0.14551  -0.13124   0.04949
 Alpha virt. eigenvalues --    0.07406   0.07925   0.08156   0.08976   0.10130
 Alpha virt. eigenvalues --    0.10309   0.10708   0.11433   0.11679   0.12909
 Alpha virt. eigenvalues --    0.13087   0.14680   0.15321   0.16988   0.18323

  Beta  occ. eigenvalues --  -19.06965 -19.01887 -14.18132 -10.20559 -10.12850
  Beta  occ. eigenvalues --  -10.09773 -10.06233 -10.06146 -10.05691 -10.05436
  Beta  occ. eigenvalues --   -1.00341  -0.92957  -0.78484  -0.71632  -0.65254
  Beta  occ. eigenvalues --   -0.61808  -0.55929  -0.50871  -0.47117  -0.43249
  Beta  occ. eigenvalues --   -0.40663  -0.39225  -0.38211  -0.36331  -0.35874
  Beta  occ. eigenvalues --   -0.32763  -0.31958  -0.30387  -0.29222  -0.28332
  Beta  occ. eigenvalues --   -0.25829  -0.24974  -0.24018  -0.21326  -0.19891
  Beta  occ. eigenvalues --   -0.18992  -0.14511  -0.13085
  Beta virt. eigenvalues --    0.07450   0.08200   0.08645   0.08913   0.09406
  Beta virt. eigenvalues --    0.10963   0.11148   0.11226   0.11871   0.12001
  Beta virt. eigenvalues --    0.13271   0.13751   0.15189   0.15437   0.17152

 Mulliken charges and spin densities:
               1          2
     1  C   -0.020962  -0.509706
     2  C    1.503670  -2.108186
     3  C   -1.762733   1.871259
     4  C    2.545935  -2.757986
     5  C   -1.051906   0.939047
     6  C    1.214561  -1.335860
     7  N   -0.446313   0.075563
     8  O   -0.033163   0.002933
     9  C    0.438257  -0.393326
    10  O   -0.251710  -0.008328
    11  H   -0.546031   0.722005
    12  H   -0.031200   0.184945
    13  H   -0.282557   0.438834
    14  H   -0.443522   0.638903
    15  H   -0.443693   0.706275
    16  H   -0.666001   0.889182
    17  H   -0.296452   0.471451
    18  H   -0.416740   0.580903
    19  H    0.011093   0.221447
    20  H    0.266441  -0.029310
    21  H   -0.286974   0.399955
 Sum of Mulliken charges =  -1.00000   1.00000

 Dipole moment (field-independent basis, Debye):
    X=              4.0839    Y=             -2.0353    Z=              2.3441  Tot=              5.1299
 Quadrupole moment (field-independent basis, Debye-Ang):
   XX=           -106.7350   YY=            -97.1703   ZZ=           -100.0402
   XY=             -0.3230   XZ=             -0.8298   YZ=              1.0507

 Summary of Natural Population Analysis:

                                       Natural Population
                Natural  -----------------------------------------------
    Atom  No    Charge         Core      Valence    Rydberg      Total
 -----------------------------------------------------------------------
      C    1   -0.20898      0.99962     2.19935    0.01002     3.20898
      C    2   -0.19710      0.99960     2.18772    0.00978     3.19710
      C    3    0.07060      0.99947     1.91388    0.01604     2.92940
      C    4   -0.04605      0.99954     2.03114    0.01536     3.04605
      C    5   -0.09647      0.99950     2.08441    0.01255     3.09647
      C    6   -0.08945      0.99952     2.07929    0.01065     3.08945
      N    7   -0.42525      0.99976     2.91470    0.01079     3.92525
      O    8   -0.28278      0.99987     3.27167    0.01125     4.28278
      C    9    0.34279      0.99975     1.63302    0.02444     2.65721
      O   10   -0.30513      0.99987     3.29836    0.00689     4.30513
      H   11    0.10803      0.00000     0.38981    0.00216     0.39197
      H   12    0.09935      0.00000     0.39913    0.00152     0.40065
      H   13    0.10701      0.00000     0.38954    0.00345     0.39299
      H   14    0.10504      0.00000     0.39291    0.00205     0.39496
      H   15    0.10277      0.00000     0.39516    0.00208     0.39723
      H   16    0.10953      0.00000     0.38655    0.00392     0.39047
      H   17    0.09771      0.00000     0.40091    0.00138     0.40229
      H   18    0.09671      0.00000     0.40212    0.00117     0.40329
      H   19    0.17412      0.00000     0.32411    0.00177     0.32588
      H   20    0.18467      0.00000     0.31296    0.00237     0.31533
      H   21    0.05287      0.00000     0.44532    0.00181     0.44713
 =======================================================================
   * Total *    0.00000      9.99650    27.85205    0.15145    38.00000

 Normal termination of Gaussian 16 at Tue Dec  8 10:47:34 2020.
