 Gaussian 16, Revision A.03,

 -----------------------------------------------------------
 # opt freq B3LYP/6-31G(d) empiricaldispersion=gd3bj scf=xqc
 -----------------------------------------------------------

 --------------------------------
 CID_126746263_JID_10150_neutraal
 --------------------------------
 Symbolic Z-matrix:
 Charge =  0 Multiplicity = 1

 SCF Done:  E(RB3LYP) =  -939.999743135     A.U. after   15 cycles
 SCF Done:  E(RB3LYP) =  -940.002804310     A.U. after   13 cycles
 SCF Done:  E(RB3LYP) =  -940.002427932     A.U. after   13 cycles
 SCF Done:  E(RB3LYP) =  -940.003330858     A.U. after   13 cycles
 SCF Done:  E(RB3LYP) =  -940.003773118     A.U. after   12 cycles
 SCF Done:  E(RB3LYP) =  -940.003796840     A.U. after   12 cycles
 SCF Done:  E(RB3LYP) =  -940.003866060     A.U. after   11 cycles
 SCF Done:  E(RB3LYP) =  -940.003896561     A.U. after   10 cycles
 SCF Done:  E(RB3LYP) =  -940.003900163     A.U. after   10 cycles
 SCF Done:  E(RB3LYP) =  -940.003908240     A.U. after    9 cycles
 SCF Done:  E(RB3LYP) =  -940.003912832     A.U. after    8 cycles
 SCF Done:  E(RB3LYP) =  -940.003914050     A.U. after    9 cycles
 SCF Done:  E(RB3LYP) =  -940.003914365     A.U. after    8 cycles
 SCF Done:  E(RB3LYP) =  -940.003914535     A.U. after    7 cycles
 Optimization completed.
    -- Stationary point found.
 Normal termination of Gaussian 16 at Mon Dec 14 17:34:18 2020.

 --------------------------------------------------------------------
 #N Geom=AllCheck Guess=TCheck SCRF=Check GenChk RB3LYP/6-31G(d) Freq
 --------------------------------------------------------------------

 Structure from the checkpoint file:  "JID_10150.chk"
 --------------------------------
 CID_126746263_JID_10150_neutraal
 --------------------------------
 Charge =  0 Multiplicity = 1

 SCF Done:  E(RB3LYP) =  -940.003914535     A.U. after    1 cycles

  Exact polarizability: 225.397  -2.025 173.533  -0.559  -2.761 117.162
 Approx polarizability: 300.931  -4.249 293.397   1.202  -7.153 175.415

                      1                      2                      3
                      A                      A                      A
 Frequencies --     18.0060                28.7473                46.3934
 Red. masses --      5.3491                 5.5727                 5.3607
 Frc consts  --      0.0010                 0.0027                 0.0068
 IR Inten    --      0.2359                 1.3269                 0.3131

                      4                      5                      6
                      A                      A                      A
 Frequencies --     59.0446                67.7804                91.6117
 Red. masses --      6.6904                 5.8064                 4.6865
 Frc consts  --      0.0137                 0.0157                 0.0232
 IR Inten    --      1.6267                 7.1355                 1.9499

                      7                      8                      9
                      A                      A                      A
 Frequencies --    121.4327               130.1327               165.3896
 Red. masses --      4.1897                 4.6823                 4.7150
 Frc consts  --      0.0364                 0.0467                 0.0760
 IR Inten    --      0.7087                 1.5871                 0.3101

                     10                     11                     12
                      A                      A                      A
 Frequencies --    194.8280               220.7173               239.3533
 Red. masses --      5.4326                 2.7019                 1.0664
 Frc consts  --      0.1215                 0.0776                 0.0360
 IR Inten    --      2.1068                 0.2602                 1.3377

                     13                     14                     15
                      A                      A                      A
 Frequencies --    254.6144               263.5859               268.7078
 Red. masses --      1.8972                 1.7233                 1.3984
 Frc consts  --      0.0725                 0.0705                 0.0595
 IR Inten    --      0.2581                 2.6914                 0.1929

                     16                     17                     18
                      A                      A                      A
 Frequencies --    281.0681               290.8464               305.8428
 Red. masses --      2.4292                 1.7817                 2.1460
 Frc consts  --      0.1131                 0.0888                 0.1183
 IR Inten    --      1.1757                 8.8362                 5.9612

                     19                     20                     21
                      A                      A                      A
 Frequencies --    314.4919               331.4932               349.0148
 Red. masses --      1.8561                 1.4813                 1.4241
 Frc consts  --      0.1082                 0.0959                 0.1022
 IR Inten    --     33.6193                 8.9474               115.5776

                     22                     23                     24
                      A                      A                      A
 Frequencies --    364.2619               383.9436               387.8114
 Red. masses --      2.3889                 2.4160                 5.6781
 Frc consts  --      0.1868                 0.2098                 0.5031
 IR Inten    --     35.7107                 0.8467                 3.8080

                     25                     26                     27
                      A                      A                      A
 Frequencies --    402.5515               427.0349               442.2549
 Red. masses --      2.4140                 2.9857                 3.0746
 Frc consts  --      0.2305                 0.3208                 0.3543
 IR Inten    --      0.5056                 8.7014                 3.7552

                     28                     29                     30
                      A                      A                      A
 Frequencies --    451.8906               488.2907               517.2155
 Red. masses --      3.9955                 2.3601                 4.0088
 Frc consts  --      0.4807                 0.3315                 0.6318
 IR Inten    --      8.0860                 4.3936                 0.8003

                     31                     32                     33
                      A                      A                      A
 Frequencies --    524.8678               535.2448               564.6041
 Red. masses --      2.5646                 4.3828                 1.4684
 Frc consts  --      0.4163                 0.7398                 0.2758
 IR Inten    --      0.8517                 1.9897                27.3801

                     34                     35                     36
                      A                      A                      A
 Frequencies --    582.5945               608.1247               646.5506
 Red. masses --      2.9361                 1.7722                 5.0156
 Frc consts  --      0.5871                 0.3862                 1.2353
 IR Inten    --      7.1394                48.8628                51.4213

                     37                     38                     39
                      A                      A                      A
 Frequencies --    654.1123               705.6475               717.3621
 Red. masses --      2.4138                 2.9098                 2.9832
 Frc consts  --      0.6085                 0.8537                 0.9045
 IR Inten    --     49.0532                 4.9783                 2.9078

                     40                     41                     42
                      A                      A                      A
 Frequencies --    728.9692               775.4410               780.4794
 Red. masses --      2.7985                 4.3406                 4.6811
 Frc consts  --      0.8762                 1.5378                 1.6800
 IR Inten    --     22.2718                 9.9857                41.2271

                     43                     44                     45
                      A                      A                      A
 Frequencies --    787.1728               830.8779               848.4944
 Red. masses --      4.9880                 1.7208                 2.3845
 Frc consts  --      1.8210                 0.6999                 1.0115
 IR Inten    --     21.3577                 4.8954                 1.3237

                     46                     47                     48
                      A                      A                      A
 Frequencies --    868.9743               928.9987               943.4523
 Red. masses --      2.4432                 1.5725                 1.5385
 Frc consts  --      1.0870                 0.7996                 0.8069
 IR Inten    --     18.9072                 3.0329                 1.7496

                     49                     50                     51
                      A                      A                      A
 Frequencies --    944.8698               948.1882               956.9895
 Red. masses --      1.4806                 1.9022                 1.9805
 Frc consts  --      0.7788                 1.0076                 1.0686
 IR Inten    --      1.2632                 2.5389                14.9984

                     52                     53                     54
                      A                      A                      A
 Frequencies --    968.2467               979.6271               992.0559
 Red. masses --      1.5906                 3.2119                 1.3050
 Frc consts  --      0.8786                 1.8161                 0.7567
 IR Inten    --      1.3676                73.5702                 2.3763

                     55                     56                     57
                      A                      A                      A
 Frequencies --   1023.3580              1025.1194              1040.2885
 Red. masses --      2.0046                 3.0954                 1.3979
 Frc consts  --      1.2369                 1.9165                 0.8913
 IR Inten    --      3.1268                 4.5252                 2.8621

                     58                     59                     60
                      A                      A                      A
 Frequencies --   1045.7985              1097.7591              1100.8826
 Red. masses --      1.3796                 1.8408                 2.3112
 Frc consts  --      0.8890                 1.3070                 1.6503
 IR Inten    --      0.3943                 0.9481                72.8184

                     61                     62                     63
                      A                      A                      A
 Frequencies --   1129.4010              1146.3363              1170.5597
 Red. masses --      1.6891                 1.6184                 2.2875
 Frc consts  --      1.2694                 1.2530                 1.8467
 IR Inten    --      4.7367                31.9608                 7.2009

                     64                     65                     66
                      A                      A                      A
 Frequencies --   1190.1499              1205.8722              1218.8282
 Red. masses --      1.2711                 1.4977                 2.6639
 Frc consts  --      1.0608                 1.2832                 2.3316
 IR Inten    --    122.3052               170.2238               159.7428

                     67                     68                     69
                      A                      A                      A
 Frequencies --   1232.7159              1259.9826              1278.4947
 Red. masses --      2.6242                 3.1837                 3.1596
 Frc consts  --      2.3495                 2.9779                 3.0428
 IR Inten    --     99.3070                 7.4151               130.5598

                     70                     71                     72
                      A                      A                      A
 Frequencies --   1292.8970              1319.3019              1327.6838
 Red. masses --      2.6644                 1.5657                 2.0565
 Frc consts  --      2.6241                 1.6057                 2.1359
 IR Inten    --     12.7498                 5.9020                36.0306

                     73                     74                     75
                      A                      A                      A
 Frequencies --   1365.1369              1383.1335              1397.6727
 Red. masses --      4.6448                 1.8572                 2.8460
 Frc consts  --      5.1000                 2.0933                 3.2756
 IR Inten    --      7.0998                47.2766               146.6521

                     76                     77                     78
                      A                      A                      A
 Frequencies --   1404.6843              1429.2195              1434.0228
 Red. masses --      1.4798                 1.2536                 1.2501
 Frc consts  --      1.7203                 1.5087                 1.5146
 IR Inten    --      4.2852                 8.0662                 6.5959

                     79                     80                     81
                      A                      A                      A
 Frequencies --   1452.6244              1456.6355              1475.3791
 Red. masses --      1.2268                 1.2343                 3.4212
 Frc consts  --      1.5252                 1.5431                 4.3877
 IR Inten    --     10.9605                13.2729                27.0789

                     82                     83                     84
                      A                      A                      A
 Frequencies --   1496.0849              1508.5686              1512.0655
 Red. masses --      1.0894                 1.0543                 1.0502
 Frc consts  --      1.4367                 1.4136                 1.4147
 IR Inten    --      0.3826                 6.9669                 1.0507

                     85                     86                     87
                      A                      A                      A
 Frequencies --   1517.4114              1522.5331              1531.5168
 Red. masses --      1.0544                 1.0624                 1.1002
 Frc consts  --      1.4304                 1.4510                 1.5205
 IR Inten    --      1.7711                 0.1478                10.7913

                     88                     89                     90
                      A                      A                      A
 Frequencies --   1534.3405              1535.1415              1538.1424
 Red. masses --      1.3630                 1.2058                 1.3001
 Frc consts  --      1.8906                 1.6742                 1.8123
 IR Inten    --     19.3708                25.8300                17.2751

                     91                     92                     93
                      A                      A                      A
 Frequencies --   1549.5751              1642.3367              1646.3477
 Red. masses --      1.0691                 5.4817                 1.2607
 Frc consts  --      1.5124                 8.7115                 2.0132
 IR Inten    --     19.0785                90.5866                94.0753

                     94                     95                     96
                      A                      A                      A
 Frequencies --   1657.8206              1791.5821              1822.4695
 Red. masses --      5.9312                 8.7627                 9.7654
 Frc consts  --      9.6043                16.5714                19.1101
 IR Inten    --     14.3586               213.7402               328.3252

                     97                     98                     99
                      A                      A                      A
 Frequencies --   3042.7917              3048.4464              3058.0124
 Red. masses --      1.0425                 1.0507                 1.0374
 Frc consts  --      5.6866                 5.7531                 5.7156
 IR Inten    --      8.4256                34.3579                23.8898

                    100                    101                    102
                      A                      A                      A
 Frequencies --   3073.9326              3076.1620              3086.6922
 Red. masses --      1.0376                 1.0396                 1.1025
 Frc consts  --      5.7766                 5.7962                 6.1889
 IR Inten    --     14.7245                 9.9730                14.9453

                    103                    104                    105
                      A                      A                      A
 Frequencies --   3108.8630              3125.0705              3126.9821
 Red. masses --      1.0998                 1.1034                 1.1025
 Frc consts  --      6.2629                 6.3489                 6.3518
 IR Inten    --     39.2942                12.5198                21.7250

                    106                    107                    108
                      A                      A                      A
 Frequencies --   3135.0047              3139.2984              3139.9049
 Red. masses --      1.1025                 1.1018                 1.1033
 Frc consts  --      6.3844                 6.3975                 6.4087
 IR Inten    --      9.2556                38.9165                52.8351

                    109                    110                    111
                      A                      A                      A
 Frequencies --   3167.0383              3186.1892              3199.9090
 Red. masses --      1.1010                 1.0973                 1.0884
 Frc consts  --      6.5065                 6.5632                 6.5659
 IR Inten    --      8.3287                21.8562                10.6065

                    112                    113                    114
                      A                      A                      A
 Frequencies --   3224.8626              3233.9042              3249.1853
 Red. masses --      1.0926                 1.0936                 1.0911
 Frc consts  --      6.6945                 6.7386                 6.7869
 IR Inten    --      6.4748                 3.5849                 1.3040

                    115                    116                    117
                      A                      A                      A
 Frequencies --   3585.1383              3701.1307              3708.3400
 Red. masses --      1.0456                 1.0642                 1.1030
 Frc consts  --      7.9185                 8.5886                 8.9367
 IR Inten    --     29.6645                74.5466                23.8965

 - Thermochemistry -
 -------------------
 Temperature   298.150 Kelvin.  Pressure   1.00000 Atm.
 Atom     1 has atomic number  6 and mass  12.00000

 Molecular mass:   279.14706 amu.
 Principal axes and moments of inertia in atomic units:
                           1         2         3
     Eigenvalues --  2210.96945********************
           X            0.99995  -0.00913   0.00447
           Y            0.00908   0.99989   0.01143
           Z           -0.00457  -0.01139   0.99992
 This molecule is an asymmetric top.
 Rotational symmetry number  1.
 Warning -- assumption of classical behavior for rotation
           may cause significant error
 Rotational temperatures (Kelvin)      0.03917     0.00735     0.00692
 Rotational constants (GHZ):           0.81627     0.15312     0.14417
 Zero-point vibrational energy     908306.8 (Joules/Mol)
                                  217.09053 (Kcal/Mol)
 Warning -- explicit consideration of  35 degrees of freedom as
           vibrations may cause significant error
 Vibrational temperatures:     25.91    41.36    66.75    84.95    97.52
          (Kelvin)            131.81   174.71   187.23   237.96   280.31
                              317.56   344.38   366.33   379.24   386.61
                              404.39   418.46   440.04   452.48   476.94
                              502.15   524.09   552.41   557.97   579.18
                              614.41   636.31   650.17   702.54   744.16
                              755.17   770.10   812.34   838.22   874.96
                              930.24   941.12  1015.27  1032.12  1048.82
                             1115.69  1122.94  1132.57  1195.45  1220.79
                             1250.26  1336.62  1357.42  1359.46  1364.23
                             1376.89  1393.09  1409.46  1427.35  1472.38
                             1474.92  1496.74  1504.67  1579.43  1583.92
                             1624.96  1649.32  1684.17  1712.36  1734.98
                             1753.62  1773.60  1812.83  1839.47  1860.19
                             1898.18  1910.24  1964.13  1990.02  2010.94
                             2021.03  2056.33  2063.24  2090.00  2095.77
                             2122.74  2152.53  2170.49  2175.52  2183.22
                             2190.59  2203.51  2207.57  2208.73  2213.04
                             2229.49  2362.96  2368.73  2385.23  2577.69
                             2622.13  4377.90  4386.03  4399.80  4422.70
                             4425.91  4441.06  4472.96  4496.28  4499.03
                             4510.57  4516.75  4517.62  4556.66  4584.22
                             4603.96  4639.86  4652.87  4674.85  5158.21
                             5325.10  5335.47

 Zero-point correction=                           0.345956 (Hartree/Particle)
 Thermal correction to Energy=                    0.366547
 Thermal correction to Enthalpy=                  0.367492
 Thermal correction to Gibbs Free Energy=         0.296296
 Sum of electronic and zero-point Energies=           -939.657959
 Sum of electronic and thermal Energies=              -939.637367
 Sum of electronic and thermal Enthalpies=            -939.636423
 Sum of electronic and thermal Free Energies=         -939.707619

                     E (Thermal)             CV                S
                      KCal/Mol        Cal/Mol-Kelvin    Cal/Mol-Kelvin
 Total                  230.012             79.689            149.844
 Electronic               0.000              0.000              0.000
 Translational            0.889              2.981             42.778
 Rotational               0.889              2.981             34.144
 Vibrational            228.235             73.728             72.922
 Vibration     1          0.593              1.986              6.843
 Vibration     2          0.593              1.984              5.914
 Vibration     3          0.595              1.979              4.965
 Vibration     4          0.596              1.974              4.489
 Vibration     5          0.598              1.970              4.217
 Vibration     6          0.602              1.955              3.625
 Vibration     7          0.609              1.931              3.077
 Vibration     8          0.612              1.923              2.944
 Vibration     9          0.624              1.885              2.487
 Vibration    10          0.635              1.847              2.181
 Vibration    11          0.647              1.810              1.953
 Vibration    12          0.657              1.780              1.808
 Vibration    13          0.665              1.755              1.698
 Vibration    14          0.670              1.740              1.638
 Vibration    15          0.673              1.731              1.605
 Vibration    16          0.681              1.709              1.527
 Vibration    17          0.687              1.691              1.469
 Vibration    18          0.696              1.663              1.385
 Vibration    19          0.702              1.646              1.339
 Vibration    20          0.714              1.613              1.253
 Vibration    21          0.726              1.577              1.171
 Vibration    22          0.738              1.546              1.104
 Vibration    23          0.753              1.504              1.024
 Vibration    24          0.756              1.496              1.009
 Vibration    25          0.768              1.465              0.953
 Vibration    26          0.789              1.411              0.868
 Vibration    27          0.802              1.378              0.820
 Vibration    28          0.811              1.357              0.790
 Vibration    29          0.844              1.276              0.688
 Vibration    30          0.872              1.212              0.616
 Vibration    31          0.880              1.195              0.599
 Vibration    32          0.890              1.172              0.576
 Vibration    33          0.920              1.108              0.515
 Vibration    34          0.939              1.069              0.481
 Vibration    35          0.967              1.015              0.436

                           ! Non-Optimized Parameters !
 Normal termination of Gaussian 16 at Mon Dec 14 17:55:21 2020.

 ----------------------------------------------------------------------
 # B3LYP/6-311++G(d,p) empiricaldispersion=gd3bj scf=xqc pop=npa geom=c
 heck
 ----------------------------------------------------------------------

 ----------------------------------------
 CID_126746263_JID_10150_Energie_neutraal
 ----------------------------------------
 Structure from the checkpoint file:  "JID_10150.chk"
 Charge =  0 Multiplicity = 1

 SCF Done:  E(RB3LYP) =  -940.283149760     A.U. after   15 cycles
 Normal termination of Gaussian 16 at Mon Dec 14 18:03:43 2020.

 ----------------------------------------------------------------------
 # B3LYP/6-311++G(d,p) empiricaldispersion=gd3bj scf=xqc pop=npa geom=c
 heck
 ----------------------------------------------------------------------

 --------------------------------------
 CID_126746263_JID_10150_Energie_kation
 --------------------------------------
 Structure from the checkpoint file:  "JID_10150.chk"
 Charge =  1 Multiplicity = 2

 SCF Done:  E(UB3LYP) =  -939.970830608     A.U. after   33 cycles
 SCF Done:  E(UB3LYP) =  -939.970830608     a.u. after    1 cycles
 Normal termination of Gaussian 16 at Mon Dec 14 18:28:42 2020.
 Gaussian 16:  ES64L-G16RevA.03 25-Dec-2016

 ----------------------------------------------------------------------
 # B3LYP/6-311++G(d,p) empiricaldispersion=gd3bj scf=xqc pop=npa geom=c
 heck
 ----------------------------------------------------------------------

 -------------------------------------
 CID_126746263_JID_10150_Energie_anion
 -------------------------------------
 Structure from the checkpoint file:  "JID_10150.chk"
 Charge = -1 Multiplicity = 2

                         Standard orientation:
 ---------------------------------------------------------------------
 Center     Atomic      Atomic             Coordinates (Angstroms)
 Number     Number       Type             X           Y           Z
 ---------------------------------------------------------------------
      1          6           0        2.577500    0.683845    1.760605
      2          6           0        3.203412   -0.273116    0.736789
      3          6           0        4.262565   -1.134613    1.467726
      4          6           0        2.171955   -1.252805    0.113259
      5          6           0        0.893040   -0.726028   -0.565095
      6          6           0        1.144864    0.382458   -1.588232
      7          6           0        0.176463   -1.904252   -1.237490
      8          8           0        0.078333   -0.247695    0.551199
      9          6           0       -1.126316    0.359684    0.294382
     10          6           0       -1.193573    1.747252    0.121780
     11          6           0       -2.427934    2.369870   -0.067082
     12          6           0       -3.599665    1.618663   -0.078745
     13          6           0       -3.534804    0.232776    0.109671
     14          6           0       -2.299069   -0.396862    0.299834
     15          6           0       -4.807849   -0.530169    0.103539
     16          8           0       -5.911094   -0.046053   -0.053695
     17          8           0       -4.630543   -1.864425    0.292474
     18          6           0        3.934958    0.560949   -0.336750
     19          8           0        3.958766    1.783585   -0.331855
     20          7           0        4.562783   -0.152277   -1.330127
     21          1           0        2.013375    0.115202    2.505285
     22          1           0        1.897411    1.392812    1.291397
     23          1           0        3.361606    1.255948    2.265285
     24          1           0        3.801828   -1.638351    2.324229
     25          1           0        4.692504   -1.911960    0.824562
     26          1           0        5.081807   -0.511658    1.842127
     27          1           0        2.687891   -1.883128   -0.620957
     28          1           0        1.838216   -1.925320    0.912897
     29          1           0        1.836294    0.023223   -2.356249
     30          1           0        0.211157    0.671516   -2.079617
     31          1           0        1.585399    1.269261   -1.129769
     32          1           0       -0.005717   -2.708591   -0.517142
     33          1           0       -0.784445   -1.588148   -1.653918
     34          1           0        0.783429   -2.301629   -2.057897
     35          1           0       -0.275876    2.324834    0.145562
     36          1           0       -2.471867    3.446718   -0.200285
     37          1           0       -4.569400    2.081577   -0.222596
     38          1           0       -2.243924   -1.465396    0.464290
     39          1           0       -5.525464   -2.250178    0.271503
     40          1           0        4.758644   -1.136421   -1.226872
     41          1           0        5.170675    0.376399   -1.941076
 ---------------------------------------------------------------------

 SCF Done:  E(UB3LYP) =  -940.291457453     A.U. after   33 cycles
 SCF Done:  E(UB3LYP) =  -940.291457461     a.u. after    2 cycles

 The electronic state is 2-A.
 Alpha  occ. eigenvalues --  -19.04807 -19.02277 -19.00086 -18.97619 -14.24050
 Alpha  occ. eigenvalues --  -10.18365 -10.16191 -10.14118 -10.10788 -10.10667
 Alpha  occ. eigenvalues --  -10.08328 -10.08251 -10.06664 -10.05950 -10.05904
 Alpha  occ. eigenvalues --  -10.05881 -10.05514 -10.05081 -10.05074 -10.04805
 Alpha  occ. eigenvalues --   -0.98413  -0.95098  -0.94063  -0.88981  -0.81526
 Alpha  occ. eigenvalues --   -0.74525  -0.73143  -0.69543  -0.64460  -0.62262
 Alpha  occ. eigenvalues --   -0.60181  -0.59930  -0.59320  -0.54684  -0.54047
 Alpha  occ. eigenvalues --   -0.50717  -0.48678  -0.46921  -0.44455  -0.43603
 Alpha  occ. eigenvalues --   -0.40991  -0.39292  -0.38235  -0.37741  -0.37006
 Alpha  occ. eigenvalues --   -0.35931  -0.35383  -0.34593  -0.34346  -0.33146
 Alpha  occ. eigenvalues --   -0.32877  -0.32063  -0.31774  -0.31382  -0.31051
 Alpha  occ. eigenvalues --   -0.30012  -0.29164  -0.28374  -0.28132  -0.27498
 Alpha  occ. eigenvalues --   -0.26815  -0.26588  -0.25965  -0.25011  -0.24512
 Alpha  occ. eigenvalues --   -0.24052  -0.23611  -0.21552  -0.20582  -0.18723
 Alpha  occ. eigenvalues --   -0.17086  -0.16655  -0.15447  -0.14531  -0.12961
 Alpha  occ. eigenvalues --    0.03272
 Alpha virt. eigenvalues --    0.04423   0.07181   0.07703   0.08157   0.08512
 Alpha virt. eigenvalues --    0.09091   0.09365   0.09722   0.10125   0.10579
 Alpha virt. eigenvalues --    0.11193   0.11250   0.11926   0.12187   0.12500

  Beta  occ. eigenvalues --  -19.04756 -19.02278 -19.00081 -18.97394 -14.23995
  Beta  occ. eigenvalues --  -10.18362 -10.15966 -10.14117 -10.10834 -10.10665
  Beta  occ. eigenvalues --  -10.08305 -10.08243 -10.06658 -10.05943 -10.05943
  Beta  occ. eigenvalues --  -10.05880 -10.05393 -10.04971 -10.04945 -10.04554
  Beta  occ. eigenvalues --   -0.98173  -0.95086  -0.94066  -0.88645  -0.81450
  Beta  occ. eigenvalues --   -0.74403  -0.72994  -0.69512  -0.64048  -0.62047
  Beta  occ. eigenvalues --   -0.60159  -0.59879  -0.59305  -0.54612  -0.53550
  Beta  occ. eigenvalues --   -0.50631  -0.48533  -0.46835  -0.44366  -0.43530
  Beta  occ. eigenvalues --   -0.40926  -0.39231  -0.38111  -0.37656  -0.36833
  Beta  occ. eigenvalues --   -0.35891  -0.35234  -0.34561  -0.34222  -0.32959
  Beta  occ. eigenvalues --   -0.32082  -0.31936  -0.31673  -0.31362  -0.31028
  Beta  occ. eigenvalues --   -0.29988  -0.29136  -0.28355  -0.27980  -0.27404
  Beta  occ. eigenvalues --   -0.26784  -0.26532  -0.25903  -0.24904  -0.24439
  Beta  occ. eigenvalues --   -0.23749  -0.23462  -0.21388  -0.19695  -0.18682
  Beta  occ. eigenvalues --   -0.17006  -0.16624  -0.15248  -0.13489  -0.12150
  Beta virt. eigenvalues --    0.05741   0.07435   0.07689   0.07782   0.08321
  Beta virt. eigenvalues --    0.08638   0.09235   0.09413   0.09714   0.10267
  Beta virt. eigenvalues --    0.10708   0.11102   0.11280   0.12024   0.12267

 Mulliken charges and spin densities:
               1          2
     1  C   -0.337422  -0.132048
     2  C   -0.110511   0.730295
     3  C    0.322249  -0.740633
     4  C    0.241879  -0.414147
     5  C   -0.337692  -0.001947
     6  C   -0.597227  -0.220754
     7  C   -0.336900  -0.038766
     8  O    0.070685  -0.000289
     9  C   -0.341354  -0.090657
    10  C    0.081852   0.181584
    11  C   -0.340468  -0.021165
    12  C   -0.524782   0.117917
    13  C    0.667038   0.055324
    14  C   -0.317027   0.126561
    15  C    0.031524   0.136693
    16  O   -0.395340   0.079982
    17  O   -0.228083   0.011315
    18  C   -0.220385  -0.216471
    19  O   -0.267255   0.006714
    20  N   -0.283299   0.012928
    21  H    0.136509   0.007419
    22  H    0.190948  -0.008936
    23  H    0.167009  -0.009067
    24  H    0.131849   0.010632
    25  H   -0.265969   0.395204
    26  H    0.039247   0.131038
    27  H    0.100805   0.055029
    28  H    0.199936  -0.010976
    29  H    0.144170   0.012333
    30  H    0.154281   0.027689
    31  H    0.142369   0.008238
    32  H    0.147211   0.005879
    33  H    0.178519  -0.016179
    34  H    0.054012   0.095510
    35  H    0.096527  -0.020871
    36  H    0.146564   0.002836
    37  H    0.165973  -0.007098
    38  H    0.203103  -0.000268
    39  H    0.273827  -0.000431
    40  H   -0.170945   0.427609
    41  H   -0.013430   0.311974
 Sum of Mulliken charges =  -1.00000   1.00000

 Dipole moment (field-independent basis, Debye):
    X=              1.6165    Y=             -1.8545    Z=              0.9454  Tot=              2.6355
 Quadrupole moment (field-independent basis, Debye-Ang):
   XX=           -235.9167   YY=           -142.6236   ZZ=           -138.2221
   XY=              8.2149   XZ=              8.5961   YZ=             -2.3420

 Summary of Natural Population Analysis:

                                       Natural Population
                Natural  -----------------------------------------------
    Atom  No    Charge         Core      Valence    Rydberg      Total
 -----------------------------------------------------------------------
      C    1   -0.28154      0.99964     2.27493    0.00698     3.28154
      C    2   -0.07673      0.99953     2.06687    0.01034     3.07673
      C    3   -0.27909      0.99964     2.27213    0.00732     3.27909
      C    4   -0.19201      0.99954     2.17925    0.01322     3.19201
      C    5    0.14380      0.99951     1.84346    0.01323     2.85620
      C    6   -0.31054      0.99960     2.30370    0.00724     3.31054
      C    7   -0.29891      0.99961     2.29161    0.00768     3.29891
      O    8   -0.31054      0.99985     3.29914    0.01155     4.31054
      C    9    0.13533      0.99937     1.85208    0.01323     2.86467
      C   10   -0.06855      0.99951     2.06088    0.00815     3.06855
      C   11   -0.11732      0.99958     2.10904    0.00871     3.11732
      C   12   -0.06562      0.99955     2.05735    0.00873     3.06562
      C   13   -0.06148      0.99946     2.05263    0.00939     3.06148
      C   14   -0.07912      0.99949     2.07171    0.00793     3.07912
      C   15    0.42278      0.99966     1.55325    0.02431     2.57722
      O   16   -0.30750      0.99987     3.30025    0.00737     4.30750
      O   17   -0.35210      0.99988     3.34646    0.00576     4.35210
      C   18    0.34859      0.99962     1.62564    0.02614     2.65141
      O   19   -0.32145      0.99988     3.31581    0.00577     4.32145
      N   20   -0.40675      0.99970     2.89748    0.00957     3.90675
      H   21    0.10065      0.00000     0.39858    0.00077     0.39935
      H   22    0.11174      0.00000     0.38729    0.00098     0.38826
      H   23    0.09808      0.00000     0.40112    0.00080     0.40192
      H   24    0.10050      0.00000     0.39871    0.00079     0.39950
      H   25    0.09860      0.00000     0.40029    0.00111     0.40140
      H   26    0.10186      0.00000     0.39733    0.00081     0.39814
      H   27    0.10119      0.00000     0.39754    0.00127     0.39881
      H   28    0.10529      0.00000     0.39356    0.00116     0.39471
      H   29    0.10573      0.00000     0.39341    0.00085     0.39427
      H   30    0.10765      0.00000     0.39157    0.00078     0.39235
      H   31    0.11067      0.00000     0.38835    0.00098     0.38933
      H   32    0.10071      0.00000     0.39840    0.00089     0.39929
      H   33    0.10869      0.00000     0.39042    0.00089     0.39131
      H   34    0.09917      0.00000     0.40014    0.00068     0.40083
      H   35    0.09750      0.00000     0.40126    0.00123     0.40250
      H   36    0.09420      0.00000     0.40478    0.00101     0.40580
      H   37    0.10556      0.00000     0.39339    0.00105     0.39444
      H   38    0.10730      0.00000     0.39140    0.00130     0.39270
      H   39    0.23297      0.00000     0.26401    0.00302     0.26703
      H   40    0.19589      0.00000     0.29822    0.00589     0.30411
      H   41    0.19481      0.00000     0.30281    0.00238     0.30519
 =======================================================================
   * Total *   -0.00000     19.99249    54.76626    0.24125    75.00000

 Normal termination of Gaussian 16 at Mon Dec 14 19:12:52 2020.
