 Gaussian 16, Revision A.03,

 -----------------------------------------------------------
 # opt freq B3LYP/6-31G(d) empiricaldispersion=gd3bj scf=xqc
 -----------------------------------------------------------

 -------------------------------
 CID_80079116_JID_10265_neutraal
 -------------------------------
 Symbolic Z-matrix:
 Charge =  0 Multiplicity = 1

 SCF Done:  E(RB3LYP) =  -920.062401570     A.U. after   15 cycles
 SCF Done:  E(RB3LYP) =  -920.067118105     A.U. after   13 cycles
 SCF Done:  E(RB3LYP) =  -920.063814590     A.U. after   13 cycles
 SCF Done:  E(RB3LYP) =  -920.068823944     A.U. after   13 cycles
 SCF Done:  E(RB3LYP) =  -920.071477102     A.U. after   13 cycles
 SCF Done:  E(RB3LYP) =  -920.074107050     A.U. after   13 cycles
 SCF Done:  E(RB3LYP) =  -920.075488545     A.U. after   12 cycles
 SCF Done:  E(RB3LYP) =  -920.076169098     A.U. after   12 cycles
 SCF Done:  E(RB3LYP) =  -920.076617864     A.U. after   12 cycles
 SCF Done:  E(RB3LYP) =  -920.077439494     A.U. after   12 cycles
 SCF Done:  E(RB3LYP) =  -920.087700489     A.U. after    9 cycles
 SCF Done:  E(RB3LYP) =  -920.087707521     A.U. after   10 cycles
 SCF Done:  E(RB3LYP) =  -920.087708253     A.U. after    8 cycles
 SCF Done:  E(RB3LYP) =  -920.087708552     A.U. after    7 cycles
 Optimization completed.
    -- Stationary point found.
 Normal termination of Gaussian 16 at Sun Dec 13 13:04:52 2020.

 --------------------------------------------------------------------
 #N Geom=AllCheck Guess=TCheck SCRF=Check GenChk RB3LYP/6-31G(d) Freq
 --------------------------------------------------------------------

 Structure from the checkpoint file:  "JID_10265.chk"
 -------------------------------
 CID_80079116_JID_10265_neutraal
 -------------------------------
 Charge =  0 Multiplicity = 1

 SCF Done:  E(RB3LYP) =  -920.087708552     A.U. after    1 cycles

  Exact polarizability: 222.986  -6.612 177.942 -23.186  -3.824 137.218
 Approx polarizability: 296.659  -5.872 282.456 -49.863 -14.281 208.437

                      1                      2                      3
                      A                      A                      A
 Frequencies --     22.2614                33.3610                50.3358
 Red. masses --      4.1600                 4.2034                 3.6250
 Frc consts  --      0.0012                 0.0028                 0.0054
 IR Inten    --      0.5981                 0.1209                 0.0972

                      4                      5                      6
                      A                      A                      A
 Frequencies --     68.6743                83.9873                95.1361
 Red. masses --      5.9817                 3.3786                 3.5766
 Frc consts  --      0.0166                 0.0140                 0.0191
 IR Inten    --      1.8511                 6.8939                 0.4550

                      7                      8                      9
                      A                      A                      A
 Frequencies --    113.0641               163.2720               183.8177
 Red. masses --      4.0426                 3.8036                 3.3612
 Frc consts  --      0.0304                 0.0597                 0.0669
 IR Inten    --      0.5351                 1.2424                 1.0209

                     10                     11                     12
                      A                      A                      A
 Frequencies --    193.1278               208.2395               226.9588
 Red. masses --      3.0361                 2.0579                 1.5146
 Frc consts  --      0.0667                 0.0526                 0.0460
 IR Inten    --      1.6499                 0.7532                 0.6394

                     13                     14                     15
                      A                      A                      A
 Frequencies --    228.0349               232.0278               256.0778
 Red. masses --      1.6147                 1.8252                 3.8710
 Frc consts  --      0.0495                 0.0579                 0.1496
 IR Inten    --      1.9177                 1.0654                 0.0807

                     16                     17                     18
                      A                      A                      A
 Frequencies --    267.5592               282.5271               292.7854
 Red. masses --      2.2799                 1.6384                 1.9516
 Frc consts  --      0.0962                 0.0771                 0.0986
 IR Inten    --      0.2363                 1.2539                 0.2722

                     19                     20                     21
                      A                      A                      A
 Frequencies --    337.9259               346.7829               351.5662
 Red. masses --      4.2738                 3.2854                 2.3012
 Frc consts  --      0.2875                 0.2328                 0.1676
 IR Inten    --      5.3575                 0.1482                 3.0239

                     22                     23                     24
                      A                      A                      A
 Frequencies --    385.0146               422.0870               444.8246
 Red. masses --      3.8024                 2.8138                 4.5376
 Frc consts  --      0.3321                 0.2954                 0.5290
 IR Inten    --      6.4176                 8.3455                 6.2351

                     25                     26                     27
                      A                      A                      A
 Frequencies --    450.8411               500.9486               505.9335
 Red. masses --      4.1654                 2.5466                 3.4914
 Frc consts  --      0.4988                 0.3765                 0.5266
 IR Inten    --      8.8892                12.3755                 2.2724

                     28                     29                     30
                      A                      A                      A
 Frequencies --    543.5542               549.7285               574.5970
 Red. masses --      2.0200                 2.9392                 3.6969
 Frc consts  --      0.3516                 0.5233                 0.7191
 IR Inten    --     36.0428                36.1891                15.5563

                     31                     32                     33
                      A                      A                      A
 Frequencies --    617.4552               628.0121               639.5352
 Red. masses --      3.2408                 4.1737                 2.6044
 Frc consts  --      0.7280                 0.9698                 0.6276
 IR Inten    --      4.1084                 0.0350                32.1792

                     34                     35                     36
                      A                      A                      A
 Frequencies --    657.2809               679.1726               715.4739
 Red. masses --      3.6170                 2.7159                 2.7325
 Frc consts  --      0.9207                 0.7381                 0.8241
 IR Inten    --     15.4934                 2.6744                30.7767

                     37                     38                     39
                      A                      A                      A
 Frequencies --    746.6606               766.6039               823.2472
 Red. masses --      3.6077                 1.8943                 1.7295
 Frc consts  --      1.1850                 0.6559                 0.6906
 IR Inten    --     12.2631                53.0428                 2.2528

                     40                     41                     42
                      A                      A                      A
 Frequencies --    827.6729               830.2506               838.5989
 Red. masses --      2.3535                 1.6537                 2.3621
 Frc consts  --      0.9499                 0.6716                 0.9787
 IR Inten    --      5.0029                42.3010                16.1204

                     43                     44                     45
                      A                      A                      A
 Frequencies --    843.4688               874.7268               914.6294
 Red. masses --      1.5758                 2.3177                 1.5813
 Frc consts  --      0.6605                 1.0448                 0.7794
 IR Inten    --     33.3599                 1.3061                 9.7437

                     46                     47                     48
                      A                      A                      A
 Frequencies --    925.4432               965.4577               974.8403
 Red. masses --      2.2371                 4.7506                 1.9440
 Frc consts  --      1.1289                 2.6089                 1.0885
 IR Inten    --      2.3995                13.3847                 3.6177

                     49                     50                     51
                      A                      A                      A
 Frequencies --   1003.4407              1016.6803              1034.7923
 Red. masses --      1.5160                 6.1385                 3.8464
 Frc consts  --      0.8993                 3.7383                 2.4267
 IR Inten    --      2.8249                 2.0641                 1.7583

                     52                     53                     54
                      A                      A                      A
 Frequencies --   1053.4084              1076.1947              1098.8776
 Red. masses --      3.1852                 1.8351                 2.6785
 Frc consts  --      2.0825                 1.2523                 1.9056
 IR Inten    --     17.1864                 4.1533                35.4447

                     55                     56                     57
                      A                      A                      A
 Frequencies --   1104.6443              1108.9567              1124.4370
 Red. masses --      1.8260                 2.3771                 1.6850
 Frc consts  --      1.3128                 1.7224                 1.2552
 IR Inten    --     10.7494                37.8399                 5.3915

                     58                     59                     60
                      A                      A                      A
 Frequencies --   1150.5513              1176.9648              1185.6861
 Red. masses --      2.0517                 2.0391                 1.2708
 Frc consts  --      1.6002                 1.6642                 1.0526
 IR Inten    --      5.0092                42.4468                 0.2014

                     61                     62                     63
                      A                      A                      A
 Frequencies --   1186.2080              1197.9727              1205.7360
 Red. masses --      1.2710                 1.8659                 1.5844
 Frc consts  --      1.0537                 1.5777                 1.3571
 IR Inten    --      1.1767               114.5993                72.9886

                     64                     65                     66
                      A                      A                      A
 Frequencies --   1218.2910              1224.7990              1230.2800
 Red. masses --      1.5140                 1.4719                 1.3215
 Frc consts  --      1.3240                 1.3010                 1.1784
 IR Inten    --      4.9278                 7.7568                76.8612

                     67                     68                     69
                      A                      A                      A
 Frequencies --   1250.0028              1281.7163              1301.6507
 Red. masses --      2.1737                 1.9776                 1.4616
 Frc consts  --      2.0011                 1.9141                 1.4591
 IR Inten    --    242.0654               300.5187                15.0591

                     70                     71                     72
                      A                      A                      A
 Frequencies --   1307.1160              1333.5607              1358.6081
 Red. masses --      1.2626                 1.3598                 1.6494
 Frc consts  --      1.2710                 1.4248                 1.7937
 IR Inten    --     22.1215                 1.8700                51.8579

                     73                     74                     75
                      A                      A                      A
 Frequencies --   1366.1735              1379.2252              1392.6826
 Red. masses --      2.5108                 1.8919                 1.6011
 Frc consts  --      2.7611                 2.1204                 1.8296
 IR Inten    --     13.0523               125.3540                 3.0468

                     76                     77                     78
                      A                      A                      A
 Frequencies --   1394.1531              1404.7701              1419.7379
 Red. masses --      2.3116                 1.3691                 1.4648
 Frc consts  --      2.6471                 1.5918                 1.7396
 IR Inten    --     31.5084                 4.9246                22.4385

                     79                     80                     81
                      A                      A                      A
 Frequencies --   1429.7345              1437.7758              1454.9899
 Red. masses --      1.3090                 1.4443                 2.3447
 Frc consts  --      1.5765                 1.7591                 2.9245
 IR Inten    --     13.5101                 2.7802                66.9253

                     82                     83                     84
                      A                      A                      A
 Frequencies --   1489.7458              1502.7108              1507.2665
 Red. masses --      1.3362                 1.2389                 1.4965
 Frc consts  --      1.7473                 1.6483                 2.0031
 IR Inten    --     38.9482                 8.3124                22.9923

                     85                     86                     87
                      A                      A                      A
 Frequencies --   1509.3021              1519.5732              1520.5548
 Red. masses --      1.0986                 1.1205                 1.0631
 Frc consts  --      1.4745                 1.5244                 1.4482
 IR Inten    --      8.7301                18.2007                 1.7113

                     88                     89                     90
                      A                      A                      A
 Frequencies --   1520.5639              1522.6038              1524.5921
 Red. masses --      1.0713                 1.5595                 1.1715
 Frc consts  --      1.4594                 2.1302                 1.6043
 IR Inten    --      7.7328                20.1497                10.5964

                     91                     92                     93
                      A                      A                      A
 Frequencies --   1531.7052              1532.4662              1537.8327
 Red. masses --      1.2367                 1.1793                 1.1611
 Frc consts  --      1.7095                 1.6318                 1.6179
 IR Inten    --     40.3336                19.1607                19.3489

                     94                     95                     96
                      A                      A                      A
 Frequencies --   1543.8406              1549.0753              1654.3178
 Red. masses --      1.7237                 1.1036                 6.2013
 Frc consts  --      2.4205                 1.5603                 9.9993
 IR Inten    --     18.8322                 2.7542               260.3945

                     97                     98                     99
                      A                      A                      A
 Frequencies --   1664.9466              1779.8328              2937.8706
 Red. masses --      6.1890                 8.3551                 1.0734
 Frc consts  --     10.1082                15.5942                 5.4587
 IR Inten    --    327.1856               337.2459                83.5978

                    100                    101                    102
                      A                      A                      A
 Frequencies --   3027.1418              3030.3235              3042.9684
 Red. masses --      1.0348                 1.0344                 1.0567
 Frc consts  --      5.5872                 5.5967                 5.7652
 IR Inten    --     41.5154                52.4322                 7.6072

                    103                    104                    105
                      A                      A                      A
 Frequencies --   3046.5952              3059.1550              3077.6973
 Red. masses --      1.0487                 1.0691                 1.0873
 Frc consts  --      5.7348                 5.8947                 6.0681
 IR Inten    --     35.9486                51.0642                72.2539

                    106                    107                    108
                      A                      A                      A
 Frequencies --   3086.2918              3086.8202              3090.5711
 Red. masses --      1.0822                 1.1065                 1.1068
 Frc consts  --      6.0735                 6.2121                 6.2285
 IR Inten    --     19.1513                41.7210                41.1744

                    109                    110                    111
                      A                      A                      A
 Frequencies --   3098.2689              3105.9652              3108.4135
 Red. masses --      1.0856                 1.1015                 1.0946
 Frc consts  --      6.1401                 6.2609                 6.2312
 IR Inten    --      6.0917                36.1058                25.7070

                    112                    113                    114
                      A                      A                      A
 Frequencies --   3131.2075              3137.5283              3161.8636
 Red. masses --      1.0989                 1.0965                 1.0999
 Frc consts  --      6.3480                 6.3595                 6.4785
 IR Inten    --     35.0403                22.6462                28.1413

                    115                    116                    117
                      A                      A                      A
 Frequencies --   3162.5230              3223.2212              3249.8658
 Red. masses --      1.1003                 1.0915                 1.0902
 Frc consts  --      6.4836                 6.6814                 6.7841
 IR Inten    --     24.7507                 1.1920                 1.6010

                    118                    119                    120
                      A                      A                      A
 Frequencies --   3260.2304              3498.7835              3585.1201
 Red. masses --      1.0898                 1.0743                 1.0753
 Frc consts  --      6.8249                 7.7486                 8.1431
 IR Inten    --      2.8744                 1.5812                27.5039

 - Thermochemistry -
 -------------------
 Temperature   298.150 Kelvin.  Pressure   1.00000 Atm.
 Atom     1 has atomic number  6 and mass  12.00000

 Molecular mass:   278.16304 amu.
 Principal axes and moments of inertia in atomic units:
                           1         2         3
     Eigenvalues --  3474.376548950.200709812.70177
           X            0.99996  -0.00658   0.00585
           Y            0.00647   0.99982   0.01811
           Z           -0.00597  -0.01807   0.99982
 This molecule is an asymmetric top.
 Rotational symmetry number  1.
 Warning -- assumption of classical behavior for rotation
           may cause significant error
 Rotational temperatures (Kelvin)      0.02493     0.00968     0.00883
 Rotational constants (GHZ):           0.51944     0.20164     0.18392
 Zero-point vibrational energy     952303.8 (Joules/Mol)
                                  227.60606 (Kcal/Mol)
 Warning -- explicit consideration of  31 degrees of freedom as
           vibrations may cause significant error
 Vibrational temperatures:     32.03    48.00    72.42    98.81   120.84
          (Kelvin)            136.88   162.67   234.91   264.47   277.87
                              299.61   326.54   328.09   333.84   368.44
                              384.96   406.49   421.25   486.20   498.94
                              505.83   553.95   607.29   640.00   648.66
                              720.75   727.93   782.05   790.94   826.72
                              888.38   903.57   920.15   945.68   977.18
                             1029.41  1074.28  1102.97  1184.47  1190.84
                             1194.55  1206.56  1213.56  1258.54  1315.95
                             1331.51  1389.08  1402.58  1443.73  1462.78
                             1488.84  1515.62  1548.40  1581.04  1589.34
                             1595.54  1617.81  1655.39  1693.39  1705.94
                             1706.69  1723.62  1734.79  1752.85  1762.21
                             1770.10  1798.48  1844.10  1872.79  1880.65
                             1918.70  1954.73  1965.62  1984.40  2003.76
                             2005.88  2021.15  2042.69  2057.07  2068.64
                             2093.41  2143.41  2162.07  2168.62  2171.55
                             2186.33  2187.74  2187.75  2190.69  2193.55
                             2203.78  2204.88  2212.60  2221.24  2228.77
                             2380.19  2395.49  2560.78  4226.94  4355.38
                             4359.96  4378.15  4383.37  4401.44  4428.12
                             4440.49  4441.25  4446.64  4457.72  4468.79
                             4472.31  4505.11  4514.20  4549.22  4550.17
                             4637.50  4675.83  4690.74  5033.97  5158.19

 Zero-point correction=                           0.362713 (Hartree/Particle)
 Thermal correction to Energy=                    0.382272
 Thermal correction to Enthalpy=                  0.383216
 Thermal correction to Gibbs Free Energy=         0.314259
 Sum of electronic and zero-point Energies=           -919.724995
 Sum of electronic and thermal Energies=              -919.705436
 Sum of electronic and thermal Enthalpies=            -919.704492
 Sum of electronic and thermal Free Energies=         -919.773449

                     E (Thermal)             CV                S
                      KCal/Mol        Cal/Mol-Kelvin    Cal/Mol-Kelvin
 Total                  239.879             75.486            145.132
 Electronic               0.000              0.000              0.000
 Translational            0.889              2.981             42.767
 Rotational               0.889              2.981             34.078
 Vibrational            238.102             69.524             68.287
 Vibration     1          0.593              1.985              6.422
 Vibration     2          0.594              1.983              5.619
 Vibration     3          0.595              1.977              4.804
 Vibration     4          0.598              1.969              4.191
 Vibration     5          0.601              1.960              3.795
 Vibration     6          0.603              1.953              3.552
 Vibration     7          0.607              1.939              3.216
 Vibration     8          0.623              1.888              2.512
 Vibration     9          0.631              1.862              2.289
 Vibration    10          0.635              1.849              2.198
 Vibration    11          0.642              1.828              2.059
 Vibration    12          0.651              1.800              1.903
 Vibration    13          0.651              1.798              1.894
 Vibration    14          0.653              1.792              1.863
 Vibration    15          0.666              1.753              1.688
 Vibration    16          0.673              1.733              1.612
 Vibration    17          0.682              1.706              1.518
 Vibration    18          0.688              1.687              1.458
 Vibration    19          0.718              1.600              1.222
 Vibration    20          0.725              1.582              1.181
 Vibration    21          0.728              1.572              1.159
 Vibration    22          0.754              1.502              1.019
 Vibration    23          0.784              1.422              0.885
 Vibration    24          0.804              1.372              0.812
 Vibration    25          0.810              1.359              0.793
 Vibration    26          0.856              1.248              0.656
 Vibration    27          0.861              1.237              0.643
 Vibration    28          0.899              1.154              0.558
 Vibration    29          0.905              1.140              0.545
 Vibration    30          0.931              1.086              0.495
 Vibration    31          0.977              0.995              0.421

 Optimization completed.
    -- Stationary point found.
 Normal termination of Gaussian 16 at Sun Dec 13 13:26:31 2020.

 ----------------------------------------------------------------------
 # B3LYP/6-311++G(d,p) empiricaldispersion=gd3bj scf=xqc pop=npa geom=c
 heck
 ----------------------------------------------------------------------

 ---------------------------------------
 CID_80079116_JID_10265_Energie_neutraal
 ---------------------------------------
 Structure from the checkpoint file:  "JID_10265.chk"
 Charge =  0 Multiplicity = 1

 SCF Done:  E(RB3LYP) =  -920.348828847     A.U. after   15 cycles
 Normal termination of Gaussian 16 at Sun Dec 13 13:35:25 2020.

 ----------------------------------------------------------------------
 # B3LYP/6-311++G(d,p) empiricaldispersion=gd3bj scf=xqc pop=npa geom=c
 heck
 ----------------------------------------------------------------------

 -------------------------------------
 CID_80079116_JID_10265_Energie_kation
 -------------------------------------
 Structure from the checkpoint file:  "JID_10265.chk"
 Charge =  1 Multiplicity = 2

 SCF Done:  E(UB3LYP) =  -920.067000656     A.U. after   33 cycles
 SCF Done:  E(UB3LYP) =  -920.067000656     a.u. after    1 cycles
 Normal termination of Gaussian 16 at Sun Dec 13 14:02:07 2020.
 Gaussian 16:  ES64L-G16RevA.03 25-Dec-2016

 ----------------------------------------------------------------------
 # B3LYP/6-311++G(d,p) empiricaldispersion=gd3bj scf=xqc pop=npa geom=c
 heck
 ----------------------------------------------------------------------

 ------------------------------------
 CID_80079116_JID_10265_Energie_anion
 ------------------------------------
 Structure from the checkpoint file:  "JID_10265.chk"
 Charge = -1 Multiplicity = 2

                         Standard orientation:
 ---------------------------------------------------------------------
 Center     Atomic      Atomic             Coordinates (Angstroms)
 Number     Number       Type             X           Y           Z
 ---------------------------------------------------------------------
      1          6           0       -1.463240    0.721619   -2.217167
      2          6           0       -1.614021   -0.236077   -1.020769
      3          6           0       -2.028778    0.527246    0.266046
      4          6           0       -3.515448    0.929038    0.223682
      5          6           0       -4.430789   -0.248073   -0.137561
      6          6           0       -3.942271   -0.949520   -1.404097
      7          7           0       -2.545673   -1.351534   -1.220381
      8          6           0       -1.726324   -0.291391    1.524532
      9          8           0       -2.592738   -0.659927    2.305172
     10          7           0       -0.408620   -0.636167    1.785821
     11          6           0        0.787149   -0.335301    1.090568
     12          6           0        1.646776   -1.376563    0.756615
     13          6           0        2.848915   -1.095686    0.089355
     14          6           0        3.175506    0.212189   -0.262304
     15          6           0        2.300823    1.251412    0.088846
     16          6           0        1.119011    0.994869    0.783264
     17          8           0        2.712585    2.497805   -0.279348
     18          6           0        1.858150    3.592698    0.008871
     19          8           0        3.624632   -2.178710   -0.193124
     20          6           0        4.844376   -1.960752   -0.884480
     21          1           0       -1.198545    0.158709   -3.120333
     22          1           0       -0.658975    1.442194   -2.027018
     23          1           0       -2.378222    1.282864   -2.429057
     24          1           0       -0.633580   -0.690541   -0.857533
     25          1           0       -1.427815    1.440703    0.309301
     26          1           0       -3.634263    1.727913   -0.519774
     27          1           0       -3.804578    1.345367    1.193008
     28          1           0       -5.458528    0.107444   -0.281666
     29          1           0       -4.430076   -0.961995    0.689361
     30          1           0       -4.095282   -0.287371   -2.277585
     31          1           0       -4.530699   -1.855929   -1.585718
     32          1           0       -2.234372   -1.906606   -2.014332
     33          1           0       -0.344289   -1.326167    2.525031
     34          1           0        1.392032   -2.406715    0.978858
     35          1           0        4.084005    0.466884   -0.791388
     36          1           0        0.478087    1.795138    1.122997
     37          1           0        0.875477    3.469286   -0.465240
     38          1           0        1.722185    3.724222    1.090078
     39          1           0        2.351991    4.474254   -0.402770
     40          1           0        4.671010   -1.515623   -1.872719
     41          1           0        5.519748   -1.312814   -0.311247
     42          1           0        5.299904   -2.944909   -1.004340
 ---------------------------------------------------------------------

 SCF Done:  E(UB3LYP) =  -920.339998298     A.U. after   33 cycles
 SCF Done:  E(UB3LYP) =  -920.339998298     a.u. after    1 cycles

 The electronic state is 2-A.
 Alpha  occ. eigenvalues --  -19.07312 -19.07005 -19.00417 -14.25770 -14.20679
 Alpha  occ. eigenvalues --  -10.18916 -10.15671 -10.15626 -10.14047 -10.13789
 Alpha  occ. eigenvalues --  -10.13308 -10.11213 -10.10138 -10.09432 -10.08487
 Alpha  occ. eigenvalues --  -10.08365 -10.08337 -10.07649 -10.07015 -10.06682
 Alpha  occ. eigenvalues --   -0.98984  -0.98619  -0.95683  -0.85121  -0.82490
 Alpha  occ. eigenvalues --   -0.76407  -0.70660  -0.68362  -0.68083  -0.67016
 Alpha  occ. eigenvalues --   -0.61979  -0.61912  -0.61092  -0.56501  -0.54151
 Alpha  occ. eigenvalues --   -0.52553  -0.51511  -0.49347  -0.47137  -0.44494
 Alpha  occ. eigenvalues --   -0.42676  -0.42368  -0.41542  -0.41155  -0.40350
 Alpha  occ. eigenvalues --   -0.39160  -0.38800  -0.38234  -0.37648  -0.35526
 Alpha  occ. eigenvalues --   -0.34706  -0.34183  -0.33020  -0.32733  -0.32461
 Alpha  occ. eigenvalues --   -0.32041  -0.31177  -0.30673  -0.30464  -0.29646
 Alpha  occ. eigenvalues --   -0.28657  -0.27741  -0.27129  -0.26435  -0.25867
 Alpha  occ. eigenvalues --   -0.25567  -0.24537  -0.23698  -0.22885  -0.21785
 Alpha  occ. eigenvalues --   -0.18596  -0.17357  -0.14380  -0.13834  -0.13710
 Alpha  occ. eigenvalues --    0.03690
 Alpha virt. eigenvalues --    0.05258   0.05957   0.06059   0.07323   0.07598
 Alpha virt. eigenvalues --    0.07884   0.08258   0.08355   0.08885   0.09044
 Alpha virt. eigenvalues --    0.09734   0.10047   0.10479   0.10552   0.10666

  Beta  occ. eigenvalues --  -19.07306 -19.06995 -19.00409 -14.25772 -14.20668
  Beta  occ. eigenvalues --  -10.18905 -10.15673 -10.15621 -10.14037 -10.13747
  Beta  occ. eigenvalues --  -10.13255 -10.11210 -10.10128 -10.09426 -10.08478
  Beta  occ. eigenvalues --  -10.08358 -10.08323 -10.07636 -10.07013 -10.06651
  Beta  occ. eigenvalues --   -0.98971  -0.98599  -0.95666  -0.85112  -0.82472
  Beta  occ. eigenvalues --   -0.76393  -0.70638  -0.68341  -0.68057  -0.66989
  Beta  occ. eigenvalues --   -0.61933  -0.61850  -0.61045  -0.56469  -0.54122
  Beta  occ. eigenvalues --   -0.52523  -0.51470  -0.49316  -0.47100  -0.44463
  Beta  occ. eigenvalues --   -0.42641  -0.42340  -0.41516  -0.41134  -0.40321
  Beta  occ. eigenvalues --   -0.39135  -0.38774  -0.38198  -0.37630  -0.35480
  Beta  occ. eigenvalues --   -0.34669  -0.34165  -0.32982  -0.32706  -0.32442
  Beta  occ. eigenvalues --   -0.32018  -0.31147  -0.30652  -0.30429  -0.29616
  Beta  occ. eigenvalues --   -0.28630  -0.27719  -0.27099  -0.26401  -0.25833
  Beta  occ. eigenvalues --   -0.25525  -0.24514  -0.23669  -0.22863  -0.21765
  Beta  occ. eigenvalues --   -0.18577  -0.17344  -0.14352  -0.13799  -0.13690
  Beta virt. eigenvalues --    0.05717   0.06079   0.06258   0.06700   0.07610
  Beta virt. eigenvalues --    0.07800   0.08248   0.08330   0.08783   0.09188
  Beta virt. eigenvalues --    0.09303   0.10092   0.10282   0.10603   0.10753

 Mulliken charges and spin densities:
               1          2
     1  C    0.190386  -0.836732
     2  C   -1.707548   1.280404
     3  C    0.744493  -0.107487
     4  C    0.469203  -0.966615
     5  C   -0.804587   0.364006
     6  C    0.227969  -0.523053
     7  N   -0.029460  -0.036131
     8  C   -0.172439  -0.099582
     9  O   -0.293714   0.011809
    10  N   -0.268553   0.001581
    11  C    0.966614  -0.267672
    12  C   -0.374102   0.110949
    13  C   -1.249971   0.508786
    14  C    0.044850  -0.020738
    15  C   -1.097549   0.209010
    16  C    1.182687  -0.666706
    17  O   -0.166001   0.045919
    18  C    0.928620  -1.295280
    19  O   -0.167587   0.038048
    20  C    0.815088  -1.128362
    21  H   -0.238213   0.391832
    22  H    0.215720  -0.073027
    23  H   -0.113970   0.251842
    24  H    0.596187  -0.230028
    25  H    0.239499  -0.035649
    26  H   -0.110113   0.254490
    27  H    0.099280   0.087257
    28  H    0.045619   0.095128
    29  H    0.235409  -0.029121
    30  H    0.070677   0.057812
    31  H   -0.004489   0.143013
    32  H    0.102668   0.148971
    33  H    0.319364  -0.003487
    34  H    0.127910   0.058042
    35  H   -0.001819   0.220961
    36  H    0.246415  -0.038830
    37  H   -0.484159   0.657033
    38  H   -0.211222   0.369864
    39  H   -0.512606   0.692206
    40  H   -0.243286   0.403289
    41  H   -0.205874   0.365523
    42  H   -0.411398   0.590725
 Sum of Mulliken charges =  -1.00000   1.00000

 Dipole moment (field-independent basis, Debye):
    X=             -3.4440    Y=             -2.7208    Z=              2.1420  Tot=              4.8839
 Quadrupole moment (field-independent basis, Debye-Ang):
   XX=           -211.0540   YY=           -183.0688   ZZ=           -161.5837
   XY=              3.2194   XZ=             11.3060   YZ=              0.4026

 Summary of Natural Population Analysis:

                                       Natural Population
                Natural  -----------------------------------------------
    Atom  No    Charge         Core      Valence    Rydberg      Total
 -----------------------------------------------------------------------
      C    1   -0.29494      0.99964     2.28936    0.00594     3.29494
      C    2   -0.01092      0.99958     1.99866    0.01268     3.01092
      C    3   -0.15490      0.99952     2.14399    0.01138     3.15490
      C    4   -0.19040      0.99962     2.17990    0.01087     3.19040
      C    5   -0.19679      0.99962     2.18981    0.00736     3.19679
      C    6   -0.08980      0.99962     2.07888    0.01129     3.08980
      N    7   -0.34222      0.99973     2.83159    0.01090     3.84222
      C    8    0.36141      0.99965     1.61458    0.02437     2.63859
      O    9   -0.31848      0.99988     3.31335    0.00525     4.31848
      N   10   -0.31823      0.99964     2.80928    0.00932     3.81823
      C   11    0.08836      0.99948     1.90119    0.01096     2.91164
      C   12   -0.14487      0.99947     2.13578    0.00962     3.14487
      C   13    0.17469      0.99940     1.81264    0.01327     2.82531
      C   14   -0.16785      0.99948     2.15929    0.00908     3.16785
      C   15    0.17988      0.99940     1.80720    0.01353     2.82012
      C   16   -0.17159      0.99947     2.16419    0.00793     3.17159
      O   17   -0.26970      0.99986     3.25978    0.01006     4.26970
      C   18   -0.10031      0.99960     2.09176    0.00895     3.10031
      O   19   -0.27117      0.99986     3.26159    0.00972     4.27117
      C   20   -0.10155      0.99960     2.09290    0.00905     3.10155
      H   21    0.09969      0.00000     0.39925    0.00106     0.40031
      H   22    0.10445      0.00000     0.39411    0.00144     0.39555
      H   23    0.09757      0.00000     0.40125    0.00119     0.40243
      H   24    0.10258      0.00000     0.39476    0.00266     0.39742
      H   25    0.11502      0.00000     0.38257    0.00242     0.38498
      H   26    0.09760      0.00000     0.40128    0.00112     0.40240
      H   27    0.10715      0.00000     0.39190    0.00095     0.39285
      H   28    0.09489      0.00000     0.40429    0.00082     0.40511
      H   29    0.10892      0.00000     0.38980    0.00127     0.39108
      H   30    0.07697      0.00000     0.42157    0.00146     0.42303
      H   31    0.09311      0.00000     0.40604    0.00085     0.40689
      H   32    0.17532      0.00000     0.32264    0.00204     0.32468
      H   33    0.19703      0.00000     0.30096    0.00201     0.30297
      H   34    0.10788      0.00000     0.39058    0.00154     0.39212
      H   35    0.11358      0.00000     0.38474    0.00167     0.38642
      H   36    0.11048      0.00000     0.38745    0.00207     0.38952
      H   37    0.08824      0.00000     0.40941    0.00235     0.41176
      H   38    0.08414      0.00000     0.41442    0.00144     0.41586
      H   39    0.09647      0.00000     0.40206    0.00147     0.40353
      H   40    0.08708      0.00000     0.41120    0.00171     0.41292
      H   41    0.08611      0.00000     0.41232    0.00158     0.41389
      H   42    0.09510      0.00000     0.40361    0.00129     0.40490
 =======================================================================
   * Total *   -0.00000     19.99211    54.76193    0.24596    75.00000

 Normal termination of Gaussian 16 at Sun Dec 13 14:28:23 2020.
