 Gaussian 16, Revision A.03,

 -----------------------------------------------------------
 # opt freq B3LYP/6-31G(d) empiricaldispersion=gd3bj scf=xqc
 -----------------------------------------------------------

 ------------------------------
 CID_105427905_JID_569_neutraal
 ------------------------------
 Symbolic Z-matrix:
 Charge =  0 Multiplicity = 1

 SCF Done:  E(RB3LYP) =  -476.115627057     A.U. after   14 cycles
 SCF Done:  E(RB3LYP) =  -476.127376016     A.U. after   14 cycles
 SCF Done:  E(RB3LYP) =  -476.128006074     A.U. after   13 cycles
 SCF Done:  E(RB3LYP) =  -476.130023124     A.U. after   13 cycles
 SCF Done:  E(RB3LYP) =  -476.130472478     A.U. after   12 cycles
 SCF Done:  E(RB3LYP) =  -476.130693807     A.U. after   12 cycles
 SCF Done:  E(RB3LYP) =  -476.130753264     A.U. after   11 cycles
 SCF Done:  E(RB3LYP) =  -476.130784645     A.U. after   11 cycles
 SCF Done:  E(RB3LYP) =  -476.130798098     A.U. after   11 cycles
 SCF Done:  E(RB3LYP) =  -476.130800083     A.U. after    9 cycles
 SCF Done:  E(RB3LYP) =  -476.130801972     A.U. after   10 cycles
 SCF Done:  E(RB3LYP) =  -476.130802521     A.U. after    8 cycles
 SCF Done:  E(RB3LYP) =  -476.130802590     A.U. after    7 cycles
 Optimization completed.
    -- Stationary point found.
 Normal termination of Gaussian 16 at Tue Dec  8 14:10:33 2020.

 --------------------------------------------------------------------
 #N Geom=AllCheck Guess=TCheck SCRF=Check GenChk RB3LYP/6-31G(d) Freq
 --------------------------------------------------------------------

 Structure from the checkpoint file:  "JID_569.chk"
 ------------------------------
 CID_105427905_JID_569_neutraal
 ------------------------------
 Charge =  0 Multiplicity = 1

 SCF Done:  E(RB3LYP) =  -476.130802590     A.U. after    1 cycles

  Exact polarizability:  80.087  10.204  69.926  -4.546   3.421  67.346
 Approx polarizability: 123.817  27.753 113.305  -4.902  12.592 110.246

                      1                      2                      3
                      A                      A                      A
 Frequencies --     45.8395                77.4067               184.7246
 Red. masses --      6.7568                 7.3423                 4.3685
 Frc consts  --      0.0084                 0.0259                 0.0878
 IR Inten    --      0.5362                 1.0071                 5.2354

                      4                      5                      6
                      A                      A                      A
 Frequencies --    305.7302               407.2172               464.5301
 Red. masses --      4.3187                 2.3887                 6.9895
 Frc consts  --      0.2378                 0.2334                 0.8886
 IR Inten    --      5.6330                 0.7369                 5.1280

                      7                      8                      9
                      A                      A                      A
 Frequencies --    491.7844               569.8922               579.4812
 Red. masses --      3.3686                12.4666                 4.0598
 Frc consts  --      0.4800                 2.3855                 0.8032
 IR Inten    --      3.4467                21.1424                 7.6627

                     10                     11                     12
                      A                      A                      A
 Frequencies --    643.2346               710.7066               733.9011
 Red. masses --      9.4920                 3.3647                 1.8526
 Frc consts  --      2.3139                 1.0013                 0.5879
 IR Inten    --     25.6441                10.0459                38.3839

                     13                     14                     15
                      A                      A                      A
 Frequencies --    784.5803               815.8835               848.3344
 Red. masses --      4.3157                 4.3290                 2.1543
 Frc consts  --      1.5652                 1.6978                 0.9135
 IR Inten    --      6.3575                25.5238                 1.8857

                     16                     17                     18
                      A                      A                      A
 Frequencies --    870.1631               913.7135               935.1481
 Red. masses --      4.4488                 2.7569                 2.1535
 Frc consts  --      1.9847                 1.3561                 1.1096
 IR Inten    --      8.4874                20.5406                 7.1166

                     19                     20                     21
                      A                      A                      A
 Frequencies --    942.4700               975.6351               984.4742
 Red. masses --      1.5916                 2.4053                 3.0728
 Frc consts  --      0.8330                 1.3490                 1.7547
 IR Inten    --      4.0068                 5.8976                36.9340

                     22                     23                     24
                      A                      A                      A
 Frequencies --   1021.1541              1050.0261              1061.6785
 Red. masses --      2.5128                 2.5184                 5.4019
 Frc consts  --      1.5438                 1.6360                 3.5874
 IR Inten    --     27.1056                14.3377                30.4147

                     25                     26                     27
                      A                      A                      A
 Frequencies --   1125.9184              1169.9583              1211.0827
 Red. masses --      1.2959                 1.1969                 1.2199
 Frc consts  --      0.9679                 0.9653                 1.0542
 IR Inten    --      0.7799                 0.6857                11.7858

                     28                     29                     30
                      A                      A                      A
 Frequencies --   1251.8053              1283.2591              1300.5649
 Red. masses --      1.3021                 1.3156                 1.3585
 Frc consts  --      1.2022                 1.2764                 1.3539
 IR Inten    --      2.0262                 2.6178                 1.3836

                     31                     32                     33
                      A                      A                      A
 Frequencies --   1334.2846              1354.0861              1361.3844
 Red. masses --      1.3859                 1.5661                 1.6593
 Frc consts  --      1.4537                 1.6919                 1.8119
 IR Inten    --      7.5181                 6.8266                 5.1363

                     34                     35                     36
                      A                      A                      A
 Frequencies --   1394.9314              1493.4099              1518.3339
 Red. masses --      1.4200                 5.8171                 1.1009
 Frc consts  --      1.6280                 7.6439                 1.4953
 IR Inten    --     22.2568                 5.0305                 2.4244

                     37                     38                     39
                      A                      A                      A
 Frequencies --   1655.6262              2366.7070              3096.0838
 Red. masses --      6.0045                12.6181                 1.0600
 Frc consts  --      9.6973                41.6423                 5.9868
 IR Inten    --      0.8999               871.1854                18.3309

                     40                     41                     42
                      A                      A                      A
 Frequencies --   3127.7157              3149.8175              3161.5801
 Red. masses --      1.0885                 1.1062                 1.0902
 Frc consts  --      6.2741                 6.4665                 6.4204
 IR Inten    --     11.2008                19.6921                40.6475

                     43                     44                     45
                      A                      A                      A
 Frequencies --   3168.7758              3234.9668              3258.0576
 Red. masses --      1.0921                 1.0874                 1.1073
 Frc consts  --      6.4611                 6.7046                 6.9254
 IR Inten    --     21.6951                 2.5013                 4.1282

 - Thermochemistry -
 -------------------
 Temperature   298.150 Kelvin.  Pressure   1.00000 Atm.
 Atom     1 has atomic number  6 and mass  12.00000

 Molecular mass:   137.04768 amu.
 Principal axes and moments of inertia in atomic units:
                           1         2         3
     Eigenvalues --   648.337921608.803331754.90305
           X            0.99986   0.00464  -0.01595
           Y           -0.00501   0.99972  -0.02294
           Z            0.01584   0.02301   0.99961
 This molecule is an asymmetric top.
 Rotational symmetry number  1.
 Warning -- assumption of classical behavior for rotation
           may cause significant error
 Rotational temperatures (Kelvin)      0.13359     0.05384     0.04936
 Rotational constants (GHZ):           2.78364     1.12179     1.02840
 Zero-point vibrational energy     349525.3 (Joules/Mol)
                                   83.53854 (Kcal/Mol)
 Warning -- explicit consideration of   9 degrees of freedom as
           vibrations may cause significant error
 Vibrational temperatures:     65.95   111.37   265.78   439.88   585.89
          (Kelvin)            668.36   707.57   819.95   833.74   925.47
                             1022.55  1055.92  1128.84  1173.87  1220.56
                             1251.97  1314.63  1345.47  1356.00  1403.72
                             1416.44  1469.21  1510.75  1527.52  1619.95
                             1683.31  1742.48  1801.07  1846.32  1871.22
                             1919.74  1948.23  1958.73  2007.00  2148.68
                             2184.54  2382.08  3405.16  4454.57  4500.09
                             4531.88  4548.81  4559.16  4654.40  4687.62

 Zero-point correction=                           0.133127 (Hartree/Particle)
 Thermal correction to Energy=                    0.140801
 Thermal correction to Enthalpy=                  0.141745
 Thermal correction to Gibbs Free Energy=         0.099713
 Sum of electronic and zero-point Energies=           -475.997675
 Sum of electronic and thermal Energies=              -475.990002
 Sum of electronic and thermal Enthalpies=            -475.989057
 Sum of electronic and thermal Free Energies=         -476.031089

                     E (Thermal)             CV                S
                      KCal/Mol        Cal/Mol-Kelvin    Cal/Mol-Kelvin
 Total                   88.354             29.597             88.464
 Electronic               0.000              0.000              0.000
 Translational            0.889              2.981             40.657
 Rotational               0.889              2.981             28.994
 Vibrational             86.577             23.635             18.812
 Vibration     1          0.595              1.979              4.989
 Vibration     2          0.599              1.964              3.956
 Vibration     3          0.631              1.861              2.280
 Vibration     4          0.696              1.663              1.385
 Vibration     5          0.772              1.455              0.936
 Vibration     6          0.822              1.329              0.753
 Vibration     7          0.848              1.268              0.679
 Vibration     8          0.926              1.096              0.504
 Vibration     9          0.936              1.076              0.486

 Optimization completed.
    -- Stationary point found.
 Normal termination of Gaussian 16 at Tue Dec  8 14:14:39 2020.

 ----------------------------------------------------------------------
 # B3LYP/6-311++G(d,p) empiricaldispersion=gd3bj scf=xqc pop=npa geom=c
 heck
 ----------------------------------------------------------------------

 --------------------------------------
 CID_105427905_JID_569_Energie_neutraal
 --------------------------------------
 Structure from the checkpoint file:  "JID_569.chk"
 Charge =  0 Multiplicity = 1

 SCF Done:  E(RB3LYP) =  -476.267022477     A.U. after   15 cycles
 Normal termination of Gaussian 16 at Tue Dec  8 14:16:33 2020.

 ----------------------------------------------------------------------
 # B3LYP/6-311++G(d,p) empiricaldispersion=gd3bj scf=xqc pop=npa geom=c
 heck
 ----------------------------------------------------------------------

 ------------------------------------
 CID_105427905_JID_569_Energie_kation
 ------------------------------------
 Structure from the checkpoint file:  "JID_569.chk"
 Charge =  1 Multiplicity = 2

 SCF Done:  E(UB3LYP) =  -475.923484633     A.U. after   25 cycles
 Normal termination of Gaussian 16 at Tue Dec  8 14:19:51 2020.
 Gaussian 16:  ES64L-G16RevA.03 25-Dec-2016

 ----------------------------------------------------------------------
 # B3LYP/6-311++G(d,p) empiricaldispersion=gd3bj scf=xqc pop=npa geom=c
 heck
 ----------------------------------------------------------------------

 -----------------------------------
 CID_105427905_JID_569_Energie_anion
 -----------------------------------
 Structure from the checkpoint file:  "JID_569.chk"
 Charge = -1 Multiplicity = 2

                         Standard orientation:
 ---------------------------------------------------------------------
 Center     Atomic      Atomic             Coordinates (Angstroms)
 Number     Number       Type             X           Y           Z
 ---------------------------------------------------------------------
      1          6           0       -0.685193   -0.963186    1.100801
      2          6           0       -1.712806    0.163837    0.770465
      3          6           0       -0.921494    1.448627    0.566019
      4          6           0       -0.329807    1.320257   -0.625700
      5          6           0       -0.764487   -0.045839   -1.136059
      6          6           0        0.004270   -1.133545   -0.290201
      7          7           0        1.437928   -0.990281   -0.290262
      8          6           0        2.225001   -0.126228    0.020973
      9          8           0        3.102877    0.618149    0.283072
     10          8           0       -2.075416   -0.188797   -0.580311
     11          1           0       -1.202874   -1.879432    1.394789
     12          1           0        0.023617   -0.690668    1.885753
     13          1           0       -2.597173    0.206154    1.405373
     14          1           0       -0.797599    2.234165    1.301897
     15          1           0        0.389193    1.978088   -1.097969
     16          1           0       -0.769746   -0.219304   -2.211268
     17          1           0       -0.223518   -2.115380   -0.706617
 ---------------------------------------------------------------------

 SCF Done:  E(UB3LYP) =  -476.251722515     A.U. after   33 cycles
 SCF Done:  E(UB3LYP) =  -476.251722515     a.u. after    1 cycles

 The electronic state is 2-A.
 Alpha  occ. eigenvalues --  -19.06537 -19.02576 -14.23512 -10.20211 -10.13009
 Alpha  occ. eigenvalues --  -10.12899 -10.12623 -10.07633 -10.07435 -10.07343
 Alpha  occ. eigenvalues --   -1.00037  -0.96006  -0.85489  -0.70895  -0.66614
 Alpha  occ. eigenvalues --   -0.64591  -0.53918  -0.48624  -0.46127  -0.43888
 Alpha  occ. eigenvalues --   -0.42503  -0.40315  -0.38333  -0.35970  -0.34012
 Alpha  occ. eigenvalues --   -0.32192  -0.31700  -0.30165  -0.29094  -0.27677
 Alpha  occ. eigenvalues --   -0.25173  -0.23890  -0.19923  -0.19305  -0.16050
 Alpha  occ. eigenvalues --   -0.15546   0.04817
 Alpha virt. eigenvalues --    0.07240   0.08080   0.08216   0.09154   0.10056
 Alpha virt. eigenvalues --    0.10221   0.11326   0.11934   0.13434   0.14112
 Alpha virt. eigenvalues --    0.14886   0.15204   0.16982   0.17114   0.17903

  Beta  occ. eigenvalues --  -19.06520 -19.02574 -14.23510 -10.20201 -10.12991
  Beta  occ. eigenvalues --  -10.12880 -10.12602 -10.07613 -10.07419 -10.07310
  Beta  occ. eigenvalues --   -1.00004  -0.95988  -0.85461  -0.70855  -0.66567
  Beta  occ. eigenvalues --   -0.64538  -0.53866  -0.48559  -0.46075  -0.43795
  Beta  occ. eigenvalues --   -0.42466  -0.40289  -0.38278  -0.35940  -0.33960
  Beta  occ. eigenvalues --   -0.32146  -0.31660  -0.30128  -0.29035  -0.27627
  Beta  occ. eigenvalues --   -0.25146  -0.23848  -0.19895  -0.19271  -0.16034
  Beta  occ. eigenvalues --   -0.15515
  Beta virt. eigenvalues --    0.07441   0.08063   0.08980   0.09179   0.09846
  Beta virt. eigenvalues --    0.10958   0.11105   0.11827   0.12314   0.13948
  Beta virt. eigenvalues --    0.14341   0.14856   0.15205   0.17135   0.17194

 Mulliken charges and spin densities:
               1          2
     1  C    1.984885  -2.558254
     2  C   -0.728782   1.064749
     3  C    0.807097  -1.267412
     4  C    0.503299  -0.514903
     5  C    0.859995  -1.245832
     6  C   -0.494069   0.451016
     7  N   -0.128612   0.015933
     8  C    0.590617  -0.335547
     9  O   -0.289291   0.001020
    10  O   -0.128005  -0.029863
    11  H   -0.332284   0.507932
    12  H   -0.468864   0.633330
    13  H   -1.034505   1.305073
    14  H   -0.787941   0.954073
    15  H   -0.212083   0.371992
    16  H   -0.494253   0.741481
    17  H   -0.647204   0.905211
 Sum of Mulliken charges =  -1.00000   1.00000

 Dipole moment (field-independent basis, Debye):
    X=              3.0943    Y=              0.3107    Z=             -2.3837  Tot=              3.9183
 Quadrupole moment (field-independent basis, Debye-Ang):
   XX=           -104.0897   YY=            -96.9350   ZZ=            -98.1380
   XY=             -2.9177   XZ=              4.9359   YZ=             -3.3068

 Summary of Natural Population Analysis:

                                       Natural Population
                Natural  -----------------------------------------------
    Atom  No    Charge         Core      Valence    Rydberg      Total
 -----------------------------------------------------------------------
      C    1   -0.19669      0.99960     2.18793    0.00916     3.19669
      C    2    0.04356      0.99958     1.93931    0.01754     2.95644
      C    3   -0.09090      0.99950     2.08048    0.01091     3.09090
      C    4   -0.11504      0.99951     2.10495    0.01059     3.11504
      C    5    0.04822      0.99956     1.93498    0.01724     2.95178
      C    6   -0.02036      0.99954     2.00653    0.01429     3.02036
      N    7   -0.27869      0.99950     2.76855    0.01064     3.77869
      C    8    0.42504      0.99957     1.55794    0.01745     2.57496
      O    9   -0.26809      0.99987     3.26017    0.00806     4.26809
      O   10   -0.29407      0.99991     3.28552    0.00864     4.29407
      H   11    0.11039      0.00000     0.38640    0.00321     0.38961
      H   12    0.10471      0.00000     0.39307    0.00222     0.39529
      H   13    0.10471      0.00000     0.39116    0.00414     0.39529
      H   14    0.10932      0.00000     0.38796    0.00272     0.39068
      H   15    0.10809      0.00000     0.39064    0.00127     0.39191
      H   16    0.10244      0.00000     0.39518    0.00238     0.39756
      H   17    0.10738      0.00000     0.39021    0.00241     0.39262
 =======================================================================
   * Total *    0.00000      9.99614    25.86099    0.14287    36.00000

 Normal termination of Gaussian 16 at Tue Dec  8 14:24:23 2020.
