 Gaussian 16, Revision A.03,

 -----------------------------------------------------------
 # opt freq B3LYP/6-31G(d) empiricaldispersion=gd3bj scf=xqc
 -----------------------------------------------------------

 -------------------------------
 CID_106550191_JID_7259_neutraal
 -------------------------------
 Symbolic Z-matrix:
 Charge =  0 Multiplicity = 1

 SCF Done:  E(RB3LYP) =  -727.663868741     A.U. after   14 cycles
 SCF Done:  E(RB3LYP) =  -727.670661106     A.U. after   13 cycles
 SCF Done:  E(RB3LYP) =  -727.671462762     A.U. after   13 cycles
 SCF Done:  E(RB3LYP) =  -727.671746339     A.U. after   13 cycles
 SCF Done:  E(RB3LYP) =  -727.672123437     A.U. after   13 cycles
 SCF Done:  E(RB3LYP) =  -727.671875581     A.U. after   15 cycles
 SCF Done:  E(RB3LYP) =  -727.673446957     A.U. after   14 cycles
 SCF Done:  E(RB3LYP) =  -727.673986744     A.U. after   13 cycles
 SCF Done:  E(RB3LYP) =  -727.673805605     A.U. after   13 cycles
 SCF Done:  E(RB3LYP) =  -727.674204562     A.U. after   13 cycles
 SCF Done:  E(RB3LYP) =  -727.674309381     A.U. after   10 cycles
 SCF Done:  E(RB3LYP) =  -727.674324266     A.U. after   10 cycles
 SCF Done:  E(RB3LYP) =  -727.674325118     A.U. after    9 cycles
 SCF Done:  E(RB3LYP) =  -727.674325208     A.U. after    7 cycles
 SCF Done:  E(RB3LYP) =  -727.674325218     A.U. after    6 cycles
 Optimization completed.
    -- Stationary point found.
 Normal termination of Gaussian 16 at Mon Dec 14 16:51:29 2020.

 --------------------------------------------------------------------
 #N Geom=AllCheck Guess=TCheck SCRF=Check GenChk RB3LYP/6-31G(d) Freq
 --------------------------------------------------------------------

 Structure from the checkpoint file:  "JID_7259.chk"
 -------------------------------
 CID_106550191_JID_7259_neutraal
 -------------------------------
 Charge =  0 Multiplicity = 1

 SCF Done:  E(RB3LYP) =  -727.674325218     A.U. after    1 cycles

  Exact polarizability: 203.329   5.427 162.582   2.572   8.246 118.391
 Approx polarizability: 272.823   3.871 241.462   2.135  25.478 187.377

                      1                      2                      3
                      A                      A                      A
 Frequencies --     42.1747                43.9580                49.8817
 Red. masses --      4.0314                 3.2069                 1.5124
 Frc consts  --      0.0042                 0.0037                 0.0022
 IR Inten    --      3.4928                 1.1756                 0.3631

                      4                      5                      6
                      A                      A                      A
 Frequencies --     52.6382                71.0157                97.4674
 Red. masses --      1.5818                 2.4619                 2.7077
 Frc consts  --      0.0026                 0.0073                 0.0152
 IR Inten    --      0.0853                 0.0308                 0.6724

                      7                      8                      9
                      A                      A                      A
 Frequencies --    102.5448               168.5524               196.3422
 Red. masses --      2.2141                 2.9849                 3.0393
 Frc consts  --      0.0137                 0.0500                 0.0690
 IR Inten    --      0.0986                 7.4048                 0.7208

                     10                     11                     12
                      A                      A                      A
 Frequencies --    206.2739               231.8094               235.3750
 Red. masses --      1.3906                 2.1455                 1.7598
 Frc consts  --      0.0349                 0.0679                 0.0574
 IR Inten    --      0.5743                 1.3796                 2.2113

                     13                     14                     15
                      A                      A                      A
 Frequencies --    262.1250               264.8857               288.7109
 Red. masses --      3.4022                 2.4697                 2.8001
 Frc consts  --      0.1377                 0.1021                 0.1375
 IR Inten    --      1.1698                 1.0698                 1.0063

                     16                     17                     18
                      A                      A                      A
 Frequencies --    296.6328               339.1026               376.2760
 Red. masses --      2.1125                 3.1088                 2.4325
 Frc consts  --      0.1095                 0.2106                 0.2029
 IR Inten    --      5.1668                 5.8629                 2.2765

                     19                     20                     21
                      A                      A                      A
 Frequencies --    393.3775               441.3394               456.7178
 Red. masses --      2.8104                 3.6578                 2.8657
 Frc consts  --      0.2562                 0.4198                 0.3522
 IR Inten    --      1.5164                 0.2748                 1.7719

                     22                     23                     24
                      A                      A                      A
 Frequencies --    483.3855               515.4832               533.7242
 Red. masses --      2.4307                 3.5228                 3.7120
 Frc consts  --      0.3346                 0.5515                 0.6230
 IR Inten    --     12.9031                 1.9822                 0.1645

                     25                     26                     27
                      A                      A                      A
 Frequencies --    541.2110               610.9581               634.0795
 Red. masses --      4.4694                 4.8836                 4.6900
 Frc consts  --      0.7713                 1.0740                 1.1110
 IR Inten    --      2.8604                 0.4904                 6.3966

                     28                     29                     30
                      A                      A                      A
 Frequencies --    716.8903               746.7646               771.7359
 Red. masses --      2.8472                 3.8957                 1.8500
 Frc consts  --      0.8621                 1.2800                 0.6492
 IR Inten    --      9.8928                 3.9636                11.6180

                     31                     32                     33
                      A                      A                      A
 Frequencies --    774.5111               787.5771               830.0760
 Red. masses --      2.4562                 1.5769                 1.5218
 Frc consts  --      0.8681                 0.5763                 0.6178
 IR Inten    --     24.4882                 4.4165                94.0044

                     34                     35                     36
                      A                      A                      A
 Frequencies --    847.2002               865.5259               892.1291
 Red. masses --      1.8192                 3.0905                 1.3623
 Frc consts  --      0.7693                 1.3641                 0.6388
 IR Inten    --      8.8371                16.9961                10.0323

                     37                     38                     39
                      A                      A                      A
 Frequencies --    923.6726               936.9128               939.9421
 Red. masses --      1.6878                 1.3841                 2.0067
 Frc consts  --      0.8484                 0.7158                 1.0446
 IR Inten    --      2.0684                 2.2843                 2.2252

                     40                     41                     42
                      A                      A                      A
 Frequencies --    978.2082               992.1191              1005.8939
 Red. masses --      2.0891                 2.4037                 1.5600
 Frc consts  --      1.1778                 1.3940                 0.9300
 IR Inten    --      5.9592                17.2171                 7.6735

                     43                     44                     45
                      A                      A                      A
 Frequencies --   1018.0695              1028.1393              1046.9702
 Red. masses --      2.2603                 1.9315                 2.6595
 Frc consts  --      1.3803                 1.2029                 1.7176
 IR Inten    --      6.9237                 8.1694                 1.8714

                     46                     47                     48
                      A                      A                      A
 Frequencies --   1054.9027              1068.3765              1076.9439
 Red. masses --      2.3195                 2.7665                 1.5426
 Frc consts  --      1.5208                 1.8605                 1.0541
 IR Inten    --      5.8731                16.9053                 4.8343

                     49                     50                     51
                      A                      A                      A
 Frequencies --   1087.0862              1106.0421              1135.1295
 Red. masses --      2.1562                 2.3134                 1.6871
 Frc consts  --      1.5013                 1.6674                 1.2808
 IR Inten    --     10.5582                25.5971                 2.4022

                     52                     53                     54
                      A                      A                      A
 Frequencies --   1148.0406              1157.2174              1180.1788
 Red. masses --      2.3260                 2.8172                 3.3846
 Frc consts  --      1.8063                 2.2228                 2.7775
 IR Inten    --      9.0009                15.4232                28.1230

                     55                     56                     57
                      A                      A                      A
 Frequencies --   1186.5790              1199.5988              1221.1314
 Red. masses --      2.3613                 2.5408                 2.1964
 Frc consts  --      1.9588                 2.1542                 1.9296
 IR Inten    --     35.7088                11.4591                30.2808

                     58                     59                     60
                      A                      A                      A
 Frequencies --   1259.7543              1279.8190              1291.1473
 Red. masses --      2.6784                 1.4054                 1.2653
 Frc consts  --      2.5044                 1.3563                 1.2428
 IR Inten    --      1.8309                 5.5860                24.0792

                     61                     62                     63
                      A                      A                      A
 Frequencies --   1299.8487              1321.0111              1337.7515
 Red. masses --      1.2848                 1.5131                 1.2568
 Frc consts  --      1.2790                 1.5558                 1.3251
 IR Inten    --      2.3302                44.6836                10.3668

                     64                     65                     66
                      A                      A                      A
 Frequencies --   1346.2507              1354.8984              1373.0515
 Red. masses --      1.4478                 1.2732                 1.5379
 Frc consts  --      1.5460                 1.3771                 1.7083
 IR Inten    --     31.6125                 2.0747                 2.3676

                     67                     68                     69
                      A                      A                      A
 Frequencies --   1388.9399              1404.7026              1414.1955
 Red. masses --      1.4740                 1.4197                 1.4945
 Frc consts  --      1.6754                 1.6505                 1.7610
 IR Inten    --      4.6669                 5.3465                41.2724

                     70                     71                     72
                      A                      A                      A
 Frequencies --   1418.4901              1424.2954              1438.7385
 Red. masses --      1.4828                 1.5056                 2.0166
 Frc consts  --      1.7579                 1.7995                 2.4594
 IR Inten    --     39.1333                70.0142                 3.9034

                     73                     74                     75
                      A                      A                      A
 Frequencies --   1440.7662              1442.5678              1444.1361
 Red. masses --      1.3418                 1.2654                 1.2650
 Frc consts  --      1.6411                 1.5515                 1.5544
 IR Inten    --      7.7783                 1.8351                 2.7717

                     76                     77                     78
                      A                      A                      A
 Frequencies --   1470.9196              1507.2927              1510.8448
 Red. masses --      2.7196                 1.1113                 1.1717
 Frc consts  --      3.4668                 1.4875                 1.5759
 IR Inten    --     65.2304                 3.8061                10.0932

                     79                     80                     81
                      A                      A                      A
 Frequencies --   1512.0115              1517.4113              1523.2327
 Red. masses --      1.0478                 1.2013                 1.0421
 Frc consts  --      1.4113                 1.6297                 1.4246
 IR Inten    --      7.0212                46.6618                 5.9030

                     82                     83                     84
                      A                      A                      A
 Frequencies --   1523.8101              1526.5073              1530.2068
 Red. masses --      1.0791                 1.1014                 1.0595
 Frc consts  --      1.4763                 1.5121                 1.4617
 IR Inten    --      1.2802                 1.1208                 0.8869

                     85                     86                     87
                      A                      A                      A
 Frequencies --   1534.0209              1541.4734              1542.7268
 Red. masses --      1.0573                 1.0616                 1.0832
 Frc consts  --      1.4659                 1.4863                 1.5190
 IR Inten    --      5.3219                 8.5767                 3.4998

                     88                     89                     90
                      A                      A                      A
 Frequencies --   1584.8791              1657.4919              2951.6046
 Red. masses --      5.0049                 5.5391                 1.0739
 Frc consts  --      7.4070                 8.9658                 5.5120
 IR Inten    --      1.5092               106.3887                52.9253

                     91                     92                     93
                      A                      A                      A
 Frequencies --   2978.7454              3037.4652              3041.2578
 Red. masses --      1.0816                 1.0761                 1.0744
 Frc consts  --      5.6545                 5.8494                 5.8551
 IR Inten    --     32.1621                35.6147                32.3168

                     94                     95                     96
                      A                      A                      A
 Frequencies --   3044.9383              3049.7562              3050.3943
 Red. masses --      1.0694                 1.0403                 1.0388
 Frc consts  --      5.8416                 5.7011                 5.6949
 IR Inten    --     10.9371                38.8109                35.9260

                     97                     98                     99
                      A                      A                      A
 Frequencies --   3051.1074              3056.4233              3087.1406
 Red. masses --      1.0368                 1.0678                 1.0928
 Frc consts  --      5.6869                 5.8770                 6.1365
 IR Inten    --     15.1173                32.4380                21.9894

                    100                    101                    102
                      A                      A                      A
 Frequencies --   3099.9406              3107.1301              3109.4757
 Red. masses --      1.0882                 1.1007                 1.1003
 Frc consts  --      6.1613                 6.2611                 6.2681
 IR Inten    --     33.1368                11.7256                22.6372

                    103                    104                    105
                      A                      A                      A
 Frequencies --   3111.6493              3115.1174              3122.4298
 Red. masses --      1.1005                 1.1011                 1.0987
 Frc consts  --      6.2780                 6.2953                 6.3111
 IR Inten    --     62.9256                27.2468                28.9942

                    106                    107                    108
                      A                      A                      A
 Frequencies --   3134.1877              3140.9748              3148.1094
 Red. masses --      1.1022                 1.1004                 1.0930
 Frc consts  --      6.3789                 6.3961                 6.3821
 IR Inten    --     13.3036                27.1392                25.4470

                    109                    110                    111
                      A                      A                      A
 Frequencies --   3180.6499              3198.1593              3475.1374
 Red. masses --      1.0907                 1.0917                 1.0739
 Frc consts  --      6.5009                 6.5790                 7.6414
 IR Inten    --     20.4650                 7.3299                 1.6846

 - Thermochemistry -
 -------------------
 Temperature   298.150 Kelvin.  Pressure   1.00000 Atm.
 Atom     1 has atomic number  6 and mass  12.00000

 Molecular mass:   234.18445 amu.
 Principal axes and moments of inertia in atomic units:
                           1         2         3
     Eigenvalues --  2680.739675826.316847643.57831
           X            0.99989   0.01466   0.00140
           Y           -0.01466   0.99989  -0.00345
           Z           -0.00145   0.00343   0.99999
 This molecule is an asymmetric top.
 Rotational symmetry number  1.
 Warning -- assumption of classical behavior for rotation
           may cause significant error
 Rotational temperatures (Kelvin)      0.03231     0.01487     0.01133
 Rotational constants (GHZ):           0.67323     0.30976     0.23611
 Zero-point vibrational energy     909847.3 (Joules/Mol)
                                  217.45873 (Kcal/Mol)
 Warning -- explicit consideration of  26 degrees of freedom as
           vibrations may cause significant error
 Vibrational temperatures:     60.68    63.25    71.77    75.73   102.18
          (Kelvin)            140.23   147.54   242.51   282.49   296.78
                              333.52   338.65   377.14   381.11   415.39
                              426.79   487.89   541.38   565.98   634.99
                              657.12   695.48   741.67   767.91   778.68
                              879.03   912.30  1031.45  1074.43  1110.36
                             1114.35  1133.15  1194.29  1218.93  1245.30
                             1283.57  1328.96  1348.01  1352.37  1407.42
                             1427.44  1447.26  1464.77  1479.26  1506.36
                             1517.77  1537.16  1549.48  1564.07  1591.35
                             1633.20  1651.77  1664.98  1698.01  1707.22
                             1725.96  1756.94  1812.51  1841.37  1857.67
                             1870.19  1900.64  1924.73  1936.95  1949.40
                             1975.51  1998.37  2021.05  2034.71  2040.89
                             2049.24  2070.02  2072.94  2075.53  2077.79
                             2116.33  2168.66  2173.77  2175.45  2183.22
                             2191.59  2192.42  2196.30  2201.63  2207.11
                             2217.84  2219.64  2280.29  2384.76  4246.70
                             4285.75  4370.23  4375.69  4380.99  4387.92
                             4388.84  4389.86  4397.51  4441.71  4460.12
                             4470.47  4473.84  4476.97  4481.96  4492.48
                             4509.40  4519.16  4529.43  4576.25  4601.44
                             4999.95

 Zero-point correction=                           0.346543 (Hartree/Particle)
 Thermal correction to Energy=                    0.363782
 Thermal correction to Enthalpy=                  0.364727
 Thermal correction to Gibbs Free Energy=         0.300629
 Sum of electronic and zero-point Energies=           -727.327783
 Sum of electronic and thermal Energies=              -727.310543
 Sum of electronic and thermal Enthalpies=            -727.309599
 Sum of electronic and thermal Free Energies=         -727.373697

                     E (Thermal)             CV                S
                      KCal/Mol        Cal/Mol-Kelvin    Cal/Mol-Kelvin
 Total                  228.277             65.401            134.905
 Electronic               0.000              0.000              0.000
 Translational            0.889              2.981             42.254
 Rotational               0.889              2.981             33.145
 Vibrational            226.499             59.440             59.505
 Vibration     1          0.595              1.980              5.154
 Vibration     2          0.595              1.980              5.072
 Vibration     3          0.595              1.978              4.822
 Vibration     4          0.596              1.977              4.716
 Vibration     5          0.598              1.968              4.125
 Vibration     6          0.603              1.951              3.504
 Vibration     7          0.605              1.947              3.405
 Vibration     8          0.625              1.881              2.452
 Vibration     9          0.636              1.845              2.167
 Vibration    10          0.641              1.831              2.076
 Vibration    11          0.653              1.792              1.865
 Vibration    12          0.655              1.787              1.838
 Vibration    13          0.669              1.742              1.648
 Vibration    14          0.671              1.737              1.629
 Vibration    15          0.685              1.695              1.482
 Vibration    16          0.690              1.680              1.436
 Vibration    17          0.719              1.597              1.216
 Vibration    18          0.747              1.521              1.054
 Vibration    19          0.761              1.484              0.987
 Vibration    20          0.801              1.380              0.822
 Vibration    21          0.815              1.346              0.776
 Vibration    22          0.840              1.287              0.701
 Vibration    23          0.871              1.216              0.621
 Vibration    24          0.889              1.175              0.579
 Vibration    25          0.896              1.159              0.563
 Vibration    26          0.970              1.009              0.431

 Optimization completed.
    -- Stationary point found.
 Normal termination of Gaussian 16 at Mon Dec 14 17:06:57 2020.

 ----------------------------------------------------------------------
 # B3LYP/6-311++G(d,p) empiricaldispersion=gd3bj scf=xqc pop=npa geom=c
 heck
 ----------------------------------------------------------------------

 ---------------------------------------
 CID_106550191_JID_7259_Energie_neutraal
 ---------------------------------------
 Structure from the checkpoint file:  "JID_7259.chk"
 Charge =  0 Multiplicity = 1

 SCF Done:  E(RB3LYP) =  -727.868999787     A.U. after   14 cycles
 Normal termination of Gaussian 16 at Mon Dec 14 17:15:00 2020.

 ----------------------------------------------------------------------
 # B3LYP/6-311++G(d,p) empiricaldispersion=gd3bj scf=xqc pop=npa geom=c
 heck
 ----------------------------------------------------------------------

 -------------------------------------
 CID_106550191_JID_7259_Energie_kation
 -------------------------------------
 Structure from the checkpoint file:  "JID_7259.chk"
 Charge =  1 Multiplicity = 2

 SCF Done:  E(UB3LYP) =  -727.588792519     A.U. after   25 cycles
 Normal termination of Gaussian 16 at Mon Dec 14 17:36:37 2020.
 Gaussian 16:  ES64L-G16RevA.03 25-Dec-2016

 ----------------------------------------------------------------------
 # B3LYP/6-311++G(d,p) empiricaldispersion=gd3bj scf=xqc pop=npa geom=c
 heck
 ----------------------------------------------------------------------

 ------------------------------------
 CID_106550191_JID_7259_Energie_anion
 ------------------------------------
 Structure from the checkpoint file:  "JID_7259.chk"
 Charge = -1 Multiplicity = 2

                         Standard orientation:
 ---------------------------------------------------------------------
 Center     Atomic      Atomic             Coordinates (Angstroms)
 Number     Number       Type             X           Y           Z
 ---------------------------------------------------------------------
      1          6           0        1.161788    3.628307   -0.836839
      2          6           0        0.482941    2.256189   -0.904057
      3          6           0        0.926425    1.298519    0.213852
      4          6           0        2.437757    1.017097    0.075734
      5          7           0        2.987565   -0.043701    0.917080
      6          6           0        2.209541   -1.285305    0.806549
      7          6           0        0.723780   -1.015797    1.052903
      8          7           0        0.196057    0.012723    0.133062
      9          6           0       -1.210490    0.064008    0.172535
     10          7           0       -1.801846    1.149402    0.684942
     11          7           0       -3.138270    1.222867    0.723750
     12          6           0       -3.866837    0.206243    0.281772
     13          6           0       -3.325905   -0.973006   -0.271295
     14          6           0       -1.949284   -1.028551   -0.327324
     15          6           0       -4.214085   -2.073816   -0.783316
     16          6           0        2.448739   -1.987734   -0.539164
     17          6           0        3.926663   -2.242825   -0.832747
     18          1           0        1.015618    4.088833    0.147673
     19          1           0        0.729519    4.303152   -1.583213
     20          1           0        2.238835    3.576966   -1.027970
     21          1           0       -0.596068    2.402310   -0.842116
     22          1           0        0.691868    1.775490   -1.869274
     23          1           0        0.733915    1.772827    1.191445
     24          1           0        2.989173    1.935164    0.295460
     25          1           0        2.647254    0.764257   -0.971026
     26          1           0        2.969467    0.262408    1.889213
     27          1           0        2.563415   -1.952520    1.603929
     28          1           0        0.583534   -0.688239    2.099752
     29          1           0        0.141743   -1.932760    0.921771
     30          1           0       -4.943840    0.339023    0.362590
     31          1           0       -1.431335   -1.875136   -0.768603
     32          1           0       -4.834715   -2.483284    0.022634
     33          1           0       -4.895351   -1.702364   -1.557631
     34          1           0       -3.627497   -2.892737   -1.209780
     35          1           0        1.899678   -2.939141   -0.518587
     36          1           0        1.995511   -1.397463   -1.343508
     37          1           0        4.379496   -2.869802   -0.054814
     38          1           0        4.055418   -2.753662   -1.793470
     39          1           0        4.483617   -1.302337   -0.857940
 ---------------------------------------------------------------------

 SCF Done:  E(UB3LYP) =  -727.862999258     A.U. after   33 cycles
 SCF Done:  E(UB3LYP) =  -727.862999258     a.u. after    1 cycles

 The electronic state is 2-A.
 Alpha  occ. eigenvalues --  -14.20677 -14.19631 -14.19109 -14.18733 -10.10987
 Alpha  occ. eigenvalues --  -10.09347 -10.09293 -10.09015 -10.08628 -10.07105
 Alpha  occ. eigenvalues --  -10.06886 -10.06632 -10.06160 -10.06093 -10.05976
 Alpha  occ. eigenvalues --  -10.05652 -10.04643  -0.87869  -0.83760  -0.79469
 Alpha  occ. eigenvalues --   -0.70329  -0.69780  -0.67919  -0.66470  -0.62507
 Alpha  occ. eigenvalues --   -0.60474  -0.57548  -0.55425  -0.52342  -0.51486
 Alpha  occ. eigenvalues --   -0.49774  -0.47024  -0.44804  -0.41506  -0.39182
 Alpha  occ. eigenvalues --   -0.38248  -0.37061  -0.36045  -0.34960  -0.34101
 Alpha  occ. eigenvalues --   -0.33229  -0.32465  -0.32228  -0.32130  -0.30911
 Alpha  occ. eigenvalues --   -0.29462  -0.29389  -0.28514  -0.27704  -0.27469
 Alpha  occ. eigenvalues --   -0.26871  -0.26488  -0.25225  -0.24400  -0.23784
 Alpha  occ. eigenvalues --   -0.23736  -0.22587  -0.22290  -0.18236  -0.17557
 Alpha  occ. eigenvalues --   -0.15954  -0.12554  -0.11270  -0.09383   0.04639
 Alpha virt. eigenvalues --    0.06443   0.07110   0.07351   0.07649   0.08741
 Alpha virt. eigenvalues --    0.09277   0.09666   0.09995   0.10071   0.10534
 Alpha virt. eigenvalues --    0.11172   0.11706   0.11914   0.12167   0.12705

  Beta  occ. eigenvalues --  -14.20686 -14.19620 -14.18729 -14.18483 -10.11046
  Beta  occ. eigenvalues --  -10.09347 -10.09281 -10.09011 -10.08607 -10.07164
  Beta  occ. eigenvalues --  -10.06884 -10.06634 -10.06084 -10.05972 -10.05958
  Beta  occ. eigenvalues --  -10.05638 -10.04447  -0.87447  -0.83646  -0.79411
  Beta  occ. eigenvalues --   -0.70108  -0.69579  -0.67694  -0.66345  -0.62486
  Beta  occ. eigenvalues --   -0.60302  -0.57476  -0.55389  -0.52289  -0.51107
  Beta  occ. eigenvalues --   -0.49725  -0.46913  -0.44759  -0.41400  -0.39052
  Beta  occ. eigenvalues --   -0.38186  -0.36953  -0.35999  -0.34909  -0.34063
  Beta  occ. eigenvalues --   -0.33184  -0.32411  -0.32207  -0.31833  -0.30871
  Beta  occ. eigenvalues --   -0.29359  -0.29311  -0.28023  -0.27597  -0.27383
  Beta  occ. eigenvalues --   -0.26628  -0.26374  -0.25111  -0.24343  -0.23722
  Beta  occ. eigenvalues --   -0.23716  -0.22570  -0.22258  -0.17776  -0.17022
  Beta  occ. eigenvalues --   -0.14623  -0.12466  -0.10877  -0.08980
  Beta virt. eigenvalues --    0.06689   0.07290   0.07510   0.07831   0.09087
  Beta virt. eigenvalues --    0.09457   0.09521   0.09791   0.10059   0.10245
  Beta virt. eigenvalues --    0.10717   0.11396   0.11816   0.12009   0.12165

 Mulliken charges and spin densities:
               1          2
     1  C   -0.570085  -0.131353
     2  C    0.071858   0.098574
     3  C   -0.519303   0.170240
     4  C   -0.380905  -0.604725
     5  N   -0.087678   0.063436
     6  C    0.515760  -0.331128
     7  C   -0.214398  -0.364405
     8  N    0.617758  -0.007134
     9  C   -0.462680  -0.104778
    10  N   -0.082181   0.092245
    11  N   -0.008250   0.186877
    12  C   -1.016250   0.156310
    13  C    0.324141   0.553283
    14  C   -0.091573   0.090230
    15  C    0.107966  -0.683866
    16  C   -0.055645  -0.181491
    17  C    0.147759  -0.712591
    18  H    0.113584   0.033655
    19  H    0.137654  -0.004769
    20  H    0.134133   0.001369
    21  H    0.209951  -0.003955
    22  H    0.108691   0.011587
    23  H    0.192803   0.017563
    24  H    0.111090   0.050433
    25  H    0.189541  -0.016459
    26  H    0.099092   0.143480
    27  H   -0.533920   0.757875
    28  H    0.064191   0.048021
    29  H   -0.180238   0.360214
    30  H    0.112568   0.032868
    31  H    0.027460   0.054293
    32  H   -0.027485   0.176516
    33  H    0.122329   0.011148
    34  H   -0.133255   0.286379
    35  H   -0.199271   0.351890
    36  H    0.183843  -0.025305
    37  H   -0.057018   0.183645
    38  H   -0.028001   0.146599
    39  H    0.055966   0.093231
 Sum of Mulliken charges =  -1.00000   1.00000

 Dipole moment (field-independent basis, Debye):
    X=              1.5546    Y=              3.5120    Z=             -3.1070  Tot=              4.9401
 Quadrupole moment (field-independent basis, Debye-Ang):
   XX=           -168.9084   YY=           -153.3628   ZZ=           -126.2538
   XY=             12.8402   XZ=              1.8464   YZ=             -0.0760

 Summary of Natural Population Analysis:

                                       Natural Population
                Natural  -----------------------------------------------
    Atom  No    Charge         Core      Valence    Rydberg      Total
 -----------------------------------------------------------------------
      C    1   -0.28473      0.99967     2.28136    0.00370     3.28473
      C    2   -0.19729      0.99961     2.19071    0.00697     3.19729
      C    3   -0.00991      0.99958     1.99783    0.01250     3.00991
      C    4   -0.09411      0.99959     2.08193    0.01258     3.09411
      N    5   -0.33956      0.99975     2.82698    0.01283     3.83956
      C    6   -0.01570      0.99958     2.00082    0.01530     3.01570
      C    7   -0.08500      0.99958     2.07359    0.01182     3.08500
      N    8   -0.28300      0.99965     2.77112    0.01223     3.78300
      C    9    0.18344      0.99952     1.80069    0.01636     2.81656
      N   10   -0.13632      0.99967     2.62124    0.01541     3.63632
      N   11   -0.07777      0.99972     2.56342    0.01462     3.57777
      C   12   -0.01566      0.99955     2.00185    0.01425     3.01566
      C   13    0.00934      0.99951     1.98208    0.00907     2.99066
      C   14   -0.08308      0.99945     2.07416    0.00946     3.08308
      C   15   -0.29589      0.99964     2.29038    0.00587     3.29589
      C   16   -0.19699      0.99962     2.18796    0.00941     3.19699
      C   17   -0.28609      0.99966     2.28089    0.00554     3.28609
      H   18    0.09742      0.00000     0.40173    0.00085     0.40258
      H   19    0.09624      0.00000     0.40300    0.00076     0.40376
      H   20    0.09172      0.00000     0.40736    0.00091     0.40828
      H   21    0.11691      0.00000     0.38182    0.00127     0.38309
      H   22    0.09206      0.00000     0.40678    0.00116     0.40794
      H   23    0.08922      0.00000     0.40861    0.00217     0.41078
      H   24    0.09536      0.00000     0.40376    0.00088     0.40464
      H   25    0.08949      0.00000     0.40937    0.00113     0.41051
      H   26    0.17172      0.00000     0.32601    0.00227     0.32828
      H   27    0.09717      0.00000     0.40108    0.00175     0.40283
      H   28    0.08387      0.00000     0.41473    0.00140     0.41613
      H   29    0.10631      0.00000     0.39206    0.00163     0.39369
      H   30    0.08435      0.00000     0.41396    0.00168     0.41565
      H   31    0.09992      0.00000     0.39889    0.00118     0.40008
      H   32    0.10499      0.00000     0.39389    0.00112     0.39501
      H   33    0.10032      0.00000     0.39888    0.00079     0.39968
      H   34    0.10182      0.00000     0.39723    0.00094     0.39818
      H   35    0.09908      0.00000     0.39957    0.00135     0.40092
      H   36    0.09875      0.00000     0.39973    0.00152     0.40125
      H   37    0.09572      0.00000     0.40326    0.00103     0.40428
      H   38    0.09369      0.00000     0.40565    0.00066     0.40631
      H   39    0.10216      0.00000     0.39681    0.00103     0.39784
 =======================================================================
   * Total *   -0.00000     16.99336    46.79121    0.21544    64.00000

 Normal termination of Gaussian 16 at Mon Dec 14 18:02:52 2020.
