 Gaussian 16, Revision A.03,

 -----------------------------------------------------------
 # opt freq B3LYP/6-31G(d) empiricaldispersion=gd3bj scf=xqc
 -----------------------------------------------------------

 -------------------------------
 CID_113842864_JID_7792_neutraal
 -------------------------------
 Symbolic Z-matrix:
 Charge =  0 Multiplicity = 1

 SCF Done:  E(RB3LYP) =  -715.446206252     A.U. after   13 cycles
 SCF Done:  E(RB3LYP) =  -715.449844555     A.U. after   12 cycles
 SCF Done:  E(RB3LYP) =  -715.449943027     A.U. after   11 cycles
 SCF Done:  E(RB3LYP) =  -715.449554039     A.U. after   12 cycles
 SCF Done:  E(RB3LYP) =  -715.450143852     A.U. after   11 cycles
 SCF Done:  E(RB3LYP) =  -715.450686247     A.U. after   11 cycles
 SCF Done:  E(RB3LYP) =  -715.451137921     A.U. after   11 cycles
 SCF Done:  E(RB3LYP) =  -715.451215205     A.U. after   11 cycles
 SCF Done:  E(RB3LYP) =  -715.451276805     A.U. after   10 cycles
 SCF Done:  E(RB3LYP) =  -715.451286586     A.U. after    9 cycles
 SCF Done:  E(RB3LYP) =  -715.451324677     A.U. after    9 cycles
 SCF Done:  E(RB3LYP) =  -715.451324688     A.U. after    8 cycles
 SCF Done:  E(RB3LYP) =  -715.451324743     A.U. after    8 cycles
 SCF Done:  E(RB3LYP) =  -715.451324741     A.U. after    5 cycles
 Optimization completed.
    -- Stationary point found.
 Normal termination of Gaussian 16 at Fri Dec 11 13:37:39 2020.

 --------------------------------------------------------------------
 #N Geom=AllCheck Guess=TCheck SCRF=Check GenChk RB3LYP/6-31G(d) Freq
 --------------------------------------------------------------------

 Structure from the checkpoint file:  "JID_7792.chk"
 -------------------------------
 CID_113842864_JID_7792_neutraal
 -------------------------------
 Charge =  0 Multiplicity = 1

 SCF Done:  E(RB3LYP) =  -715.451324741     A.U. after    1 cycles

  Exact polarizability: 191.516  -3.948 174.126   6.633   7.071 120.005
 Approx polarizability: 265.628  -5.100 264.063  16.543  18.378 182.534

                      1                      2                      3
                      A                      A                      A
 Frequencies --     20.0899                28.8147                32.5161
 Red. masses --      1.0197                 1.4570                 1.8142
 Frc consts  --      0.0002                 0.0007                 0.0011
 IR Inten    --      0.2482                 0.4102                 0.2309

                      4                      5                      6
                      A                      A                      A
 Frequencies --     60.6443                76.7758                87.9280
 Red. masses --      4.1247                 3.7028                 2.8085
 Frc consts  --      0.0089                 0.0129                 0.0128
 IR Inten    --      0.0070                 6.9867                 2.3892

                      7                      8                      9
                      A                      A                      A
 Frequencies --     94.1854               153.3877               171.7973
 Red. masses --      3.4154                 3.5859                 4.2101
 Frc consts  --      0.0179                 0.0497                 0.0732
 IR Inten    --      0.2038                 0.7093                 1.9186

                     10                     11                     12
                      A                      A                      A
 Frequencies --    187.7506               203.7945               214.0696
 Red. masses --      3.7873                 2.9212                 2.6475
 Frc consts  --      0.0787                 0.0715                 0.0715
 IR Inten    --      3.2010                 4.4156                 8.6409

                     13                     14                     15
                      A                      A                      A
 Frequencies --    237.9181               248.6059               253.1054
 Red. masses --      2.0017                 1.6733                 2.3890
 Frc consts  --      0.0668                 0.0609                 0.0902
 IR Inten    --     20.5186                16.6481                14.2286

                     16                     17                     18
                      A                      A                      A
 Frequencies --    279.4727               293.2836               307.0395
 Red. masses --      1.3785                 3.0774                 2.4021
 Frc consts  --      0.0634                 0.1560                 0.1334
 IR Inten    --    105.3717                 1.6409                35.2751

                     19                     20                     21
                      A                      A                      A
 Frequencies --    323.9388               349.2487               388.4895
 Red. masses --      1.9492                 2.3365                 2.5335
 Frc consts  --      0.1205                 0.1679                 0.2253
 IR Inten    --     11.6666                 3.8954                 1.5372

                     22                     23                     24
                      A                      A                      A
 Frequencies --    418.8059               471.0698               517.3038
 Red. masses --      3.2864                 2.2175                 3.7517
 Frc consts  --      0.3396                 0.2899                 0.5915
 IR Inten    --      0.4311                 0.1450                 7.8227

                     25                     26                     27
                      A                      A                      A
 Frequencies --    523.2143               528.9307               533.0098
 Red. masses --      4.2612                 3.4542                 3.5225
 Frc consts  --      0.6873                 0.5694                 0.5896
 IR Inten    --      0.3350                 2.9601                 0.1712

                     28                     29                     30
                      A                      A                      A
 Frequencies --    556.5576               565.3435               683.5249
 Red. masses --      3.9045                 3.5839                 3.7040
 Frc consts  --      0.7126                 0.6749                 1.0196
 IR Inten    --      3.0048                 4.6752                 1.3145

                     31                     32                     33
                      A                      A                      A
 Frequencies --    702.9707               747.2128               796.1066
 Red. masses --      2.7947                 2.3523                 1.1476
 Frc consts  --      0.8137                 0.7738                 0.4285
 IR Inten    --      3.0180                 7.4916                 6.4987

                     34                     35                     36
                      A                      A                      A
 Frequencies --    837.1223               853.5358               856.4456
 Red. masses --      1.2930                 1.4253                 1.7019
 Frc consts  --      0.5339                 0.6118                 0.7355
 IR Inten    --      7.5024                63.2790                23.2341

                     37                     38                     39
                      A                      A                      A
 Frequencies --    876.3260               906.0083               909.3835
 Red. masses --      1.3494                 1.4232                 1.4069
 Frc consts  --      0.6106                 0.6883                 0.6855
 IR Inten    --     40.9699                 9.9397                15.2440

                     40                     41                     42
                      A                      A                      A
 Frequencies --    914.1230               927.6232               942.7599
 Red. masses --      1.8601                 2.1434                 2.7309
 Frc consts  --      0.9158                 1.0867                 1.4301
 IR Inten    --     21.9480                 8.9457                 9.9425

                     43                     44                     45
                      A                      A                      A
 Frequencies --    965.5750               972.4900               984.3425
 Red. masses --      2.1735                 2.2666                 2.7396
 Frc consts  --      1.1940                 1.2630                 1.5640
 IR Inten    --     25.9621                 5.8352                 1.2287

                     46                     47                     48
                      A                      A                      A
 Frequencies --   1022.3913              1049.0481              1050.1226
 Red. masses --      5.1255                 1.5797                 1.7351
 Frc consts  --      3.1566                 1.0243                 1.1273
 IR Inten    --      1.0845                 0.8623                 1.6414

                     49                     50                     51
                      A                      A                      A
 Frequencies --   1058.1901              1062.1261              1071.7529
 Red. masses --      2.4199                 1.5658                 1.6983
 Frc consts  --      1.5965                 1.0407                 1.1493
 IR Inten    --     36.5164                 5.0537                 8.6537

                     52                     53                     54
                      A                      A                      A
 Frequencies --   1075.5995              1075.7434              1079.7817
 Red. masses --      1.5201                 1.5233                 1.8214
 Frc consts  --      1.0362                 1.0386                 1.2512
 IR Inten    --      5.5722                 5.8918                15.2470

                     55                     56                     57
                      A                      A                      A
 Frequencies --   1084.9377              1126.3541              1152.1292
 Red. masses --      2.4399                 2.6184                 1.1414
 Frc consts  --      1.6921                 1.9572                 0.8927
 IR Inten    --     39.8471                 1.4069                 1.1364

                     58                     59                     60
                      A                      A                      A
 Frequencies --   1157.3938              1162.0315              1204.9712
 Red. masses --      1.2936                 2.6295                 1.3350
 Frc consts  --      1.0210                 2.0920                 1.1420
 IR Inten    --      0.6237                29.9578                 5.3984

                     61                     62                     63
                      A                      A                      A
 Frequencies --   1210.2693              1211.4122              1214.7359
 Red. masses --      1.3107                 1.4264                 1.3980
 Frc consts  --      1.1312                 1.2333                 1.2154
 IR Inten    --      7.6910                 0.4376                 0.4057

                     64                     65                     66
                      A                      A                      A
 Frequencies --   1258.8353              1266.1015              1324.9198
 Red. masses --      1.9346                 1.5267                 2.2094
 Frc consts  --      1.8063                 1.4420                 2.2851
 IR Inten    --      0.8742                 2.3279                 2.1307

                     67                     68                     69
                      A                      A                      A
 Frequencies --   1328.4457              1343.2144              1353.8813
 Red. masses --      2.6845                 1.5445                 1.2469
 Frc consts  --      2.7913                 1.6418                 1.3466
 IR Inten    --      0.0480                 2.1639                 0.7288

                     70                     71                     72
                      A                      A                      A
 Frequencies --   1362.4461              1376.8540              1400.8996
 Red. masses --      2.1862                 1.8743                 1.2777
 Frc consts  --      2.3909                 2.0935                 1.4774
 IR Inten    --      0.3975                 1.5091                 9.2994

                     73                     74                     75
                      A                      A                      A
 Frequencies --   1420.6210              1440.9052              1441.5390
 Red. masses --      1.2340                 1.2521                 1.4776
 Frc consts  --      1.4673                 1.5317                 1.8091
 IR Inten    --     41.4478                 0.5784                 2.7892

                     76                     77                     78
                      A                      A                      A
 Frequencies --   1443.7493              1448.1165              1484.8350
 Red. masses --      1.2916                 1.3508                 1.9255
 Frc consts  --      1.5862                 1.6689                 2.5012
 IR Inten    --      0.3446                 3.0501                 0.0835

                     79                     80                     81
                      A                      A                      A
 Frequencies --   1494.5632              1497.7365              1516.0131
 Red. masses --      1.8282                 1.1830                 1.0521
 Frc consts  --      2.4061                 1.5636                 1.4246
 IR Inten    --      1.7623                 0.7114                 8.5895

                     82                     83                     84
                      A                      A                      A
 Frequencies --   1516.4411              1529.8579              1531.1922
 Red. masses --      1.0473                 1.1575                 1.1144
 Frc consts  --      1.4189                 1.5961                 1.5394
 IR Inten    --      1.5623                 5.3704                 0.6139

                     85                     86                     87
                      A                      A                      A
 Frequencies --   1536.4948              1540.4091              1541.2865
 Red. masses --      1.1427                 1.2932                 1.3001
 Frc consts  --      1.5895                 1.8080                 1.8197
 IR Inten    --      8.0447                13.1542                 6.0089

                     88                     89                     90
                      A                      A                      A
 Frequencies --   1544.4820              1662.6633              1663.6077
 Red. masses --      1.1762                 5.4646                 5.3660
 Frc consts  --      1.6531                 8.9006                 8.7500
 IR Inten    --     20.2416                25.0335                20.9866

                     91                     92                     93
                      A                      A                      A
 Frequencies --   1697.6720              3008.6503              3029.1507
 Red. masses --      1.0922                 1.0676                 1.0676
 Frc consts  --      1.8547                 5.6938                 5.7716
 IR Inten    --     25.1022                51.8926                23.5397

                     94                     95                     96
                      A                      A                      A
 Frequencies --   3042.7760              3044.0425              3050.9637
 Red. masses --      1.0384                 1.0383                 1.0583
 Frc consts  --      5.6646                 5.6686                 5.8041
 IR Inten    --     36.6589                26.4319                29.6884

                     97                     98                     99
                      A                      A                      A
 Frequencies --   3064.2270              3090.9133              3097.4151
 Red. masses --      1.0937                 1.0931                 1.0986
 Frc consts  --      6.0504                 6.1528                 6.2100
 IR Inten    --     47.0785                16.3194                16.3513

                    100                    101                    102
                      A                      A                      A
 Frequencies --   3098.2741              3098.3714              3121.5419
 Red. masses --      1.1062                 1.1012                 1.0868
 Frc consts  --      6.2564                 6.2286                 6.2393
 IR Inten    --     10.4636                48.2570                36.9646

                    103                    104                    105
                      A                      A                      A
 Frequencies --   3123.7591              3126.2861              3153.8750
 Red. masses --      1.1019                 1.1017                 1.0579
 Frc consts  --      6.3353                 6.3443                 6.2000
 IR Inten    --     17.1089                17.3361                20.6632

                    106                    107                    108
                      A                      A                      A
 Frequencies --   3161.5459              3170.0769              3173.8878
 Red. masses --      1.0598                 1.0897                 1.0892
 Frc consts  --      6.2411                 6.4521                 6.4643
 IR Inten    --     13.5893                29.1540                16.5884

                    109                    110                    111
                      A                      A                      A
 Frequencies --   3194.9094              3239.6012              3250.1323
 Red. masses --      1.0884                 1.1135                 1.1119
 Frc consts  --      6.5455                 6.8853                 6.9201
 IR Inten    --     14.6277                 4.7948                18.2847

                    112                    113                    114
                      A                      A                      A
 Frequencies --   3478.8772              3562.6440              3768.9854
 Red. masses --      1.0495                 1.0924                 1.0665
 Frc consts  --      7.4836                 8.1690                 8.9257
 IR Inten    --      1.5081                 0.3058                12.1931

 - Thermochemistry -
 -------------------
 Temperature   298.150 Kelvin.  Pressure   1.00000 Atm.
 Atom     1 has atomic number  6 and mass  12.00000

 Molecular mass:   233.17796 amu.
 Principal axes and moments of inertia in atomic units:
                           1         2         3
     Eigenvalues --  2685.497435543.328126825.97796
           X            0.99996  -0.00907   0.00016
           Y            0.00907   0.99993   0.00776
           Z           -0.00023  -0.00775   0.99997
 This molecule is an asymmetric top.
 Rotational symmetry number  1.
 Warning -- assumption of classical behavior for rotation
           may cause significant error
 Rotational temperatures (Kelvin)      0.03225     0.01562     0.01269
 Rotational constants (GHZ):           0.67203     0.32557     0.26439
 Zero-point vibrational energy     934225.6 (Joules/Mol)
                                  223.28527 (Kcal/Mol)
 Warning -- explicit consideration of  29 degrees of freedom as
           vibrations may cause significant error
 Vibrational temperatures:     28.90    41.46    46.78    87.25   110.46
          (Kelvin)            126.51   135.51   220.69   247.18   270.13
                              293.21   308.00   342.31   357.69   364.16
                              402.10   421.97   441.76   466.08   502.49
                              558.95   602.57   677.76   744.28   752.79
                              761.01   766.88   800.76   813.40   983.44
                             1011.42  1075.07  1145.42  1204.43  1228.05
                             1232.23  1260.84  1303.54  1308.40  1315.22
                             1334.64  1356.42  1389.25  1399.20  1416.25
                             1470.99  1509.35  1510.89  1522.50  1528.16
                             1542.01  1547.55  1547.75  1553.57  1560.98
                             1620.57  1657.66  1665.23  1671.90  1733.68
                             1741.31  1742.95  1747.73  1811.18  1821.64
                             1906.26  1911.34  1932.59  1947.93  1960.26
                             1980.99  2015.58  2043.96  2073.14  2074.05
                             2077.23  2083.52  2136.35  2150.34  2154.91
                             2181.20  2181.82  2201.12  2203.04  2210.67
                             2216.31  2217.57  2222.17  2392.20  2393.56
                             2442.57  4328.78  4358.27  4377.88  4379.70
                             4389.66  4408.74  4447.13  4456.49  4457.73
                             4457.87  4491.20  4494.39  4498.03  4537.72
                             4548.76  4561.03  4566.52  4596.76  4661.06
                             4676.22  5005.33  5125.85  5422.73

 Zero-point correction=                           0.355828 (Hartree/Particle)
 Thermal correction to Energy=                    0.374534
 Thermal correction to Enthalpy=                  0.375478
 Thermal correction to Gibbs Free Energy=         0.307572
 Sum of electronic and zero-point Energies=           -715.095497
 Sum of electronic and thermal Energies=              -715.076791
 Sum of electronic and thermal Enthalpies=            -715.075847
 Sum of electronic and thermal Free Energies=         -715.143753

                     E (Thermal)             CV                S
                      KCal/Mol        Cal/Mol-Kelvin    Cal/Mol-Kelvin
 Total                  235.024             70.227            142.920
 Electronic               0.000              0.000              0.000
 Translational            0.889              2.981             42.242
 Rotational               0.889              2.981             32.985
 Vibrational            233.246             64.265             67.694
 Vibration     1          0.593              1.986              6.625
 Vibration     2          0.593              1.984              5.909
 Vibration     3          0.594              1.983              5.670
 Vibration     4          0.597              1.973              4.436
 Vibration     5          0.599              1.965              3.972
 Vibration     6          0.601              1.958              3.706
 Vibration     7          0.603              1.953              3.571
 Vibration     8          0.619              1.899              2.630
 Vibration     9          0.626              1.877              2.416
 Vibration    10          0.632              1.857              2.250
 Vibration    11          0.639              1.834              2.099
 Vibration    12          0.644              1.820              2.009
 Vibration    13          0.656              1.783              1.818
 Vibration    14          0.662              1.765              1.740
 Vibration    15          0.664              1.758              1.709
 Vibration    16          0.680              1.712              1.537
 Vibration    17          0.688              1.686              1.455
 Vibration    18          0.697              1.660              1.378
 Vibration    19          0.708              1.628              1.290
 Vibration    20          0.727              1.577              1.170
 Vibration    21          0.757              1.495              1.006
 Vibration    22          0.782              1.429              0.896
 Vibration    23          0.828              1.314              0.735
 Vibration    24          0.872              1.212              0.616
 Vibration    25          0.878              1.199              0.603
 Vibration    26          0.884              1.186              0.590
 Vibration    27          0.888              1.177              0.581
 Vibration    28          0.912              1.125              0.531
 Vibration    29          0.921              1.106              0.513

 Optimization completed.
    -- Stationary point found.
 Normal termination of Gaussian 16 at Fri Dec 11 13:53:42 2020.

 ----------------------------------------------------------------------
 # B3LYP/6-311++G(d,p) empiricaldispersion=gd3bj scf=xqc pop=npa geom=c
 heck
 ----------------------------------------------------------------------

 ---------------------------------------
 CID_113842864_JID_7792_Energie_neutraal
 ---------------------------------------
 Structure from the checkpoint file:  "JID_7792.chk"
 Charge =  0 Multiplicity = 1

 SCF Done:  E(RB3LYP) =  -715.660219521     A.U. after   14 cycles
 Normal termination of Gaussian 16 at Fri Dec 11 14:00:36 2020.

 ----------------------------------------------------------------------
 # B3LYP/6-311++G(d,p) empiricaldispersion=gd3bj scf=xqc pop=npa geom=c
 heck
 ----------------------------------------------------------------------

 -------------------------------------
 CID_113842864_JID_7792_Energie_kation
 -------------------------------------
 Structure from the checkpoint file:  "JID_7792.chk"
 Charge =  1 Multiplicity = 2

 SCF Done:  E(UB3LYP) =  -715.362189747     A.U. after   33 cycles
 SCF Done:  E(UB3LYP) =  -715.362189891     a.u. after    2 cycles
 Normal termination of Gaussian 16 at Fri Dec 11 14:38:30 2020.
 Gaussian 16:  ES64L-G16RevA.03 25-Dec-2016

 ----------------------------------------------------------------------
 # B3LYP/6-311++G(d,p) empiricaldispersion=gd3bj scf=xqc pop=npa geom=c
 heck
 ----------------------------------------------------------------------

 ------------------------------------
 CID_113842864_JID_7792_Energie_anion
 ------------------------------------
 Structure from the checkpoint file:  "JID_7792.chk"
 Charge = -1 Multiplicity = 2

                         Standard orientation:
 ---------------------------------------------------------------------
 Center     Atomic      Atomic             Coordinates (Angstroms)
 Number     Number       Type             X           Y           Z
 ---------------------------------------------------------------------
      1          6           0        3.562657   -2.401111   -0.479014
      2          6           0        2.755365   -1.127317   -0.412781
      3          6           0        3.335843    0.074432   -0.006505
      4          6           0        2.587279    1.256212    0.061761
      5          6           0        1.234219    1.213244   -0.276826
      6          6           0        0.609865    0.018605   -0.666607
      7          6           0        1.395443   -1.133802   -0.746409
      8          6           0       -0.858054   -0.041251   -1.038048
      9          6           0       -1.940067    0.199742    0.054658
     10          6           0       -1.851897    1.619492    0.656100
     11          7           0       -1.989543    2.680531   -0.352126
     12          6           0       -3.318862    0.066789   -0.641744
     13          8           0       -3.563034   -1.220261   -1.203329
     14          6           0       -1.915342   -0.780664    1.229003
     15          6           0       -1.354726   -2.174790    1.192847
     16          6           0       -0.698349   -1.126400    2.058337
     17          6           0        3.232964    2.546532    0.506116
     18          1           0        4.635886   -2.198840   -0.408673
     19          1           0        3.298131   -3.079687    0.342057
     20          1           0        3.380034   -2.941923   -1.414629
     21          1           0        4.392581    0.096436    0.252525
     22          1           0        0.663087    2.135847   -0.237448
     23          1           0        0.938640   -2.064957   -1.073949
     24          1           0       -1.051389    0.687576   -1.837728
     25          1           0       -1.054095   -1.025660   -1.474519
     26          1           0       -2.685997    1.737339    1.359220
     27          1           0       -0.931041    1.684308    1.255209
     28          1           0       -2.075456    3.582841    0.111040
     29          1           0       -1.151903    2.736095   -0.927769
     30          1           0       -4.104207    0.216763    0.107756
     31          1           0       -3.425715    0.860231   -1.390836
     32          1           0       -3.132711   -1.247787   -2.069640
     33          1           0       -2.829150   -0.692181    1.817040
     34          1           0       -1.929796   -2.966173    1.664879
     35          1           0       -0.822380   -2.493432    0.303835
     36          1           0        0.270403   -0.752652    1.748194
     37          1           0       -0.828149   -1.189908    3.135639
     38          1           0        3.426319    2.541978    1.586603
     39          1           0        4.195994    2.705355    0.007709
     40          1           0        2.593961    3.408524    0.289676
 ---------------------------------------------------------------------

 SCF Done:  E(UB3LYP) =  -715.648153960     A.U. after   33 cycles
 SCF Done:  E(UB3LYP) =  -715.648153960     a.u. after    1 cycles

 The electronic state is 2-A.
 Alpha  occ. eigenvalues --  -19.02984 -14.19692 -10.11540 -10.09582 -10.09230
 Alpha  occ. eigenvalues --  -10.08833 -10.08696 -10.08694 -10.08278 -10.07951
 Alpha  occ. eigenvalues --  -10.07671 -10.07468 -10.07278 -10.07139 -10.07130
 Alpha  occ. eigenvalues --  -10.07054 -10.06973  -0.93005  -0.79416  -0.77012
 Alpha  occ. eigenvalues --   -0.76291  -0.70239  -0.68837  -0.66817  -0.60555
 Alpha  occ. eigenvalues --   -0.58911  -0.58487  -0.56743  -0.51611  -0.50493
 Alpha  occ. eigenvalues --   -0.49097  -0.48179  -0.44298  -0.42567  -0.41034
 Alpha  occ. eigenvalues --   -0.40272  -0.39578  -0.38024  -0.36711  -0.35570
 Alpha  occ. eigenvalues --   -0.34424  -0.33433  -0.32863  -0.32127  -0.31963
 Alpha  occ. eigenvalues --   -0.31543  -0.30959  -0.30477  -0.29948  -0.28910
 Alpha  occ. eigenvalues --   -0.27812  -0.27305  -0.26318  -0.25071  -0.24742
 Alpha  occ. eigenvalues --   -0.24130  -0.23465  -0.22722  -0.20858  -0.19227
 Alpha  occ. eigenvalues --   -0.17741  -0.15034  -0.14514  -0.14276   0.04103
 Alpha virt. eigenvalues --    0.06020   0.06213   0.06885   0.07557   0.07703
 Alpha virt. eigenvalues --    0.07791   0.08300   0.09307   0.09561   0.09655
 Alpha virt. eigenvalues --    0.09955   0.10561   0.11241   0.11494   0.11871

  Beta  occ. eigenvalues --  -19.02969 -14.19649 -10.11532 -10.09572 -10.09231
  Beta  occ. eigenvalues --  -10.08834 -10.08695 -10.08687 -10.08277 -10.07932
  Beta  occ. eigenvalues --  -10.07646 -10.07461 -10.07273 -10.07128 -10.07112
  Beta  occ. eigenvalues --  -10.07037 -10.06937  -0.92973  -0.79363  -0.76988
  Beta  occ. eigenvalues --   -0.76278  -0.70210  -0.68816  -0.66788  -0.60510
  Beta  occ. eigenvalues --   -0.58868  -0.58445  -0.56696  -0.51583  -0.50472
  Beta  occ. eigenvalues --   -0.49064  -0.48139  -0.44270  -0.42537  -0.40995
  Beta  occ. eigenvalues --   -0.40235  -0.39561  -0.37998  -0.36674  -0.35539
  Beta  occ. eigenvalues --   -0.34388  -0.33400  -0.32828  -0.32092  -0.31926
  Beta  occ. eigenvalues --   -0.31520  -0.30931  -0.30442  -0.29921  -0.28885
  Beta  occ. eigenvalues --   -0.27785  -0.27290  -0.26297  -0.25048  -0.24723
  Beta  occ. eigenvalues --   -0.24104  -0.23441  -0.22705  -0.20847  -0.19216
  Beta  occ. eigenvalues --   -0.17725  -0.15002  -0.14484  -0.14243
  Beta virt. eigenvalues --    0.06101   0.06778   0.06881   0.07199   0.07757
  Beta virt. eigenvalues --    0.07843   0.08178   0.08666   0.09458   0.09680
  Beta virt. eigenvalues --    0.09914   0.10315   0.10857   0.11489   0.11672

 Mulliken charges and spin densities:
               1          2
     1  C    1.215118  -1.838681
     2  C    0.470228  -0.119239
     3  C   -2.012350   1.419054
     4  C   -0.854875   0.875835
     5  C   -0.527005   0.092951
     6  C    0.580294   0.274360
     7  C   -0.767117   0.434647
     8  C    0.867904  -1.582153
     9  C    0.379396   0.764390
    10  C    0.405423  -1.307687
    11  N   -0.366245   0.078616
    12  C    0.182126  -0.605070
    13  O   -0.198030   0.006470
    14  C   -0.864187   0.673843
    15  C    0.065273  -0.270625
    16  C   -0.326191  -0.328426
    17  C    1.685668  -2.280254
    18  H   -0.213814   0.355313
    19  H   -0.015228   0.186985
    20  H   -0.080661   0.232621
    21  H   -0.385913   0.558213
    22  H    0.122684  -0.078931
    23  H   -0.236174   0.378742
    24  H   -0.222509   0.416973
    25  H   -0.046444   0.122408
    26  H   -0.039858   0.195806
    27  H    0.066109   0.108540
    28  H   -0.206406   0.459308
    29  H    0.024469   0.213281
    30  H    0.110501   0.044265
    31  H    0.114226   0.102158
    32  H    0.112284   0.140685
    33  H    0.138689   0.074488
    34  H    0.092823   0.065937
    35  H    0.114624  -0.016367
    36  H    0.416114  -0.282266
    37  H    0.050943   0.105826
    38  H   -0.118269   0.296350
    39  H   -0.111816   0.249669
    40  H   -0.621805   0.781963
 Sum of Mulliken charges =  -1.00000   1.00000

 Dipole moment (field-independent basis, Debye):
    X=             -2.5045    Y=             -4.1404    Z=              1.4604  Tot=              5.0545
 Quadrupole moment (field-independent basis, Debye-Ang):
   XX=           -180.4656   YY=           -171.7577   ZZ=           -137.2710
   XY=             -0.1573   XZ=             -5.3662   YZ=             -2.4508

 Summary of Natural Population Analysis:

                                       Natural Population
                Natural  -----------------------------------------------
    Atom  No    Charge         Core      Valence    Rydberg      Total
 -----------------------------------------------------------------------
      C    1   -0.29036      0.99964     2.28580    0.00492     3.29036
      C    2   -0.01144      0.99951     2.00212    0.00980     3.01144
      C    3   -0.10454      0.99946     2.09578    0.00930     3.10454
      C    4   -0.00661      0.99952     1.99766    0.00944     3.00661
      C    5   -0.10865      0.99945     2.09928    0.00992     3.10865
      C    6   -0.00801      0.99950     1.99685    0.01165     3.00801
      C    7   -0.10531      0.99946     2.09668    0.00917     3.10531
      C    8   -0.20779      0.99957     2.19494    0.01329     3.20779
      C    9   -0.04932      0.99952     2.03448    0.01532     3.04932
      C   10   -0.08948      0.99956     2.07718    0.01274     3.08948
      N   11   -0.42596      0.99977     2.91558    0.01062     3.92596
      C   12   -0.00503      0.99952     1.99273    0.01278     3.00503
      O   13   -0.37039      0.99990     3.36437    0.00612     4.37039
      C   14   -0.10901      0.99955     2.09828    0.01118     3.10901
      C   15   -0.19255      0.99961     2.18615    0.00679     3.19255
      C   16   -0.20045      0.99961     2.19422    0.00662     3.20045
      C   17   -0.29278      0.99964     2.28721    0.00594     3.29278
      H   18    0.10212      0.00000     0.39685    0.00102     0.39788
      H   19    0.10394      0.00000     0.39491    0.00115     0.39606
      H   20    0.10323      0.00000     0.39564    0.00113     0.39677
      H   21    0.09833      0.00000     0.40064    0.00103     0.40167
      H   22    0.09816      0.00000     0.39942    0.00242     0.40184
      H   23    0.09681      0.00000     0.40153    0.00166     0.40319
      H   24    0.10899      0.00000     0.38955    0.00146     0.39101
      H   25    0.10348      0.00000     0.39433    0.00219     0.39652
      H   26    0.09183      0.00000     0.40698    0.00119     0.40817
      H   27    0.08972      0.00000     0.40840    0.00188     0.41028
      H   28    0.18019      0.00000     0.31719    0.00262     0.31981
      H   29    0.17444      0.00000     0.32295    0.00261     0.32556
      H   30    0.08293      0.00000     0.41583    0.00124     0.41707
      H   31    0.09178      0.00000     0.40677    0.00145     0.40822
      H   32    0.22752      0.00000     0.26943    0.00305     0.27248
      H   33    0.10097      0.00000     0.39785    0.00118     0.39903
      H   34    0.09860      0.00000     0.40057    0.00083     0.40140
      H   35    0.10275      0.00000     0.39602    0.00123     0.39725
      H   36    0.11082      0.00000     0.38779    0.00139     0.38918
      H   37    0.09746      0.00000     0.40165    0.00089     0.40254
      H   38    0.10499      0.00000     0.39390    0.00111     0.39501
      H   39    0.10304      0.00000     0.39591    0.00106     0.39696
      H   40    0.10556      0.00000     0.39293    0.00151     0.39444
 =======================================================================
   * Total *    0.00000     16.99278    46.80634    0.20088    64.00000

 Normal termination of Gaussian 16 at Fri Dec 11 14:59:55 2020.
