 Gaussian 16, Revision A.03,

 -----------------------------------------------------------
 # opt freq B3LYP/6-31G(d) empiricaldispersion=gd3bj scf=xqc
 -----------------------------------------------------------

 -------------------------------
 CID_116353589_JID_2130_neutraal
 -------------------------------
 Symbolic Z-matrix:
 Charge =  0 Multiplicity = 1

 SCF Done:  E(RB3LYP) =  -522.471205403     A.U. after   14 cycles
 SCF Done:  E(RB3LYP) =  -522.483995922     A.U. after   13 cycles
 SCF Done:  E(RB3LYP) =  -522.486421533     A.U. after   13 cycles
 SCF Done:  E(RB3LYP) =  -522.487721413     A.U. after   12 cycles
 SCF Done:  E(RB3LYP) =  -522.488170111     A.U. after   13 cycles
 SCF Done:  E(RB3LYP) =  -522.488194418     A.U. after   12 cycles
 SCF Done:  E(RB3LYP) =  -522.488526734     A.U. after   12 cycles
 SCF Done:  E(RB3LYP) =  -522.489197256     A.U. after   14 cycles
 SCF Done:  E(RB3LYP) =  -522.489189786     A.U. after   15 cycles
 SCF Done:  E(RB3LYP) =  -522.489912173     A.U. after   13 cycles
 SCF Done:  E(RB3LYP) =  -522.491772381     A.U. after    7 cycles
 SCF Done:  E(RB3LYP) =  -522.491772663     A.U. after    9 cycles
 SCF Done:  E(RB3LYP) =  -522.491772786     A.U. after    8 cycles
 SCF Done:  E(RB3LYP) =  -522.491772840     A.U. after    8 cycles
 SCF Done:  E(RB3LYP) =  -522.491772852     A.U. after    7 cycles
 Optimization completed.
    -- Stationary point found.
 Normal termination of Gaussian 16 at Wed Dec  9 17:13:04 2020.

 --------------------------------------------------------------------
 #N Geom=AllCheck Guess=TCheck SCRF=Check GenChk RB3LYP/6-31G(d) Freq
 --------------------------------------------------------------------

 Structure from the checkpoint file:  "JID_2130.chk"
 -------------------------------
 CID_116353589_JID_2130_neutraal
 -------------------------------
 Charge =  0 Multiplicity = 1

 SCF Done:  E(RB3LYP) =  -522.491772852     A.U. after    1 cycles

  Exact polarizability: 128.541  -1.717 107.739  -0.925  -3.511  99.042
 Approx polarizability: 151.581  -4.073 162.547  -1.198  -8.729 145.031

                      1                      2                      3
                      A                      A                      A
 Frequencies --     18.6205                39.0752                47.6151
 Red. masses --      3.5556                 3.2521                 3.8046
 Frc consts  --      0.0007                 0.0029                 0.0051
 IR Inten    --      0.8128                 2.6628                 2.1550

                      4                      5                      6
                      A                      A                      A
 Frequencies --     86.4414                99.1761               115.7989
 Red. masses --      2.7139                 2.8764                 1.1078
 Frc consts  --      0.0119                 0.0167                 0.0088
 IR Inten    --      0.4705                 0.4526                 0.1080

                      7                      8                      9
                      A                      A                      A
 Frequencies --    135.4103               181.6405               205.5960
 Red. masses --      2.3792                 2.2661                 1.2041
 Frc consts  --      0.0257                 0.0441                 0.0300
 IR Inten    --      1.5541                 1.8564                 0.3026

                     10                     11                     12
                      A                      A                      A
 Frequencies --    258.7977               268.6691               297.3749
 Red. masses --      1.7702                 2.8810                 2.9085
 Frc consts  --      0.0699                 0.1225                 0.1515
 IR Inten    --      1.8026                 3.1525                 0.6591

                     13                     14                     15
                      A                      A                      A
 Frequencies --    349.3249               390.0418               446.3143
 Red. masses --      2.3819                 2.4039                 2.9612
 Frc consts  --      0.1713                 0.2155                 0.3475
 IR Inten    --      0.2051                 0.6414                 6.2489

                     16                     17                     18
                      A                      A                      A
 Frequencies --    454.9213               471.1402               543.9068
 Red. masses --      3.0696                 2.1474                 2.3121
 Frc consts  --      0.3743                 0.2808                 0.4030
 IR Inten    --     10.7992                 0.2241                 4.0075

                     19                     20                     21
                      A                      A                      A
 Frequencies --    595.8920               651.7276               739.9901
 Red. masses --      3.2379                 2.3245                 1.8321
 Frc consts  --      0.6774                 0.5817                 0.5911
 IR Inten    --      3.0507                 2.9096                 7.7683

                     22                     23                     24
                      A                      A                      A
 Frequencies --    757.7181               797.0836               805.4108
 Red. masses --      1.5883                 1.1950                 1.7194
 Frc consts  --      0.5373                 0.4473                 0.6572
 IR Inten    --      2.1797                 0.3397                 3.1256

                     25                     26                     27
                      A                      A                      A
 Frequencies --    837.9879               898.4626               918.5370
 Red. masses --      1.6614                 2.0741                 2.7046
 Frc consts  --      0.6874                 0.9865                 1.3445
 IR Inten    --      3.0877                 0.7531                 8.1249

                     28                     29                     30
                      A                      A                      A
 Frequencies --    935.7769               959.3047               960.3057
 Red. masses --      2.5207                 1.5996                 1.6583
 Frc consts  --      1.3005                 0.8673                 0.9010
 IR Inten    --      1.4221                 3.0430                12.8734

                     31                     32                     33
                      A                      A                      A
 Frequencies --    983.9673               999.9280              1035.8377
 Red. masses --      1.7350                 2.5970                 1.8406
 Frc consts  --      0.9897                 1.5299                 1.1636
 IR Inten    --      4.6425                 8.6755                 7.6329

                     34                     35                     36
                      A                      A                      A
 Frequencies --   1044.5661              1091.9902              1104.1893
 Red. masses --      1.8518                 2.1551                 2.4826
 Frc consts  --      1.1905                 1.5141                 1.7834
 IR Inten    --      3.4272                13.5878                 2.2561

                     37                     38                     39
                      A                      A                      A
 Frequencies --   1118.6454              1133.1253              1165.4793
 Red. masses --      2.4620                 1.9767                 1.3729
 Frc consts  --      1.8152                 1.4954                 1.0988
 IR Inten    --     49.9356                20.6736                 1.7349

                     40                     41                     42
                      A                      A                      A
 Frequencies --   1176.1586              1202.5730              1207.6740
 Red. masses --      1.9033                 1.9757                 1.5342
 Frc consts  --      1.5513                 1.6835                 1.3183
 IR Inten    --     16.2417                51.4176                29.4529

                     43                     44                     45
                      A                      A                      A
 Frequencies --   1236.5312              1252.7253              1260.6452
 Red. masses --      1.4733                 1.3920                 1.2896
 Frc consts  --      1.3272                 1.2871                 1.2075
 IR Inten    --      8.3389                15.8511                 1.8183

                     46                     47                     48
                      A                      A                      A
 Frequencies --   1269.5794              1272.4705              1291.5221
 Red. masses --      1.5421                 1.2266                 1.5535
 Frc consts  --      1.4645                 1.1701                 1.5267
 IR Inten    --      9.4770                 1.4458                 7.5824

                     49                     50                     51
                      A                      A                      A
 Frequencies --   1310.0541              1318.6033              1358.5813
 Red. masses --      1.3745                 1.8153                 1.2646
 Frc consts  --      1.3899                 1.8597                 1.3753
 IR Inten    --      1.1102                23.3414                 6.2452

                     52                     53                     54
                      A                      A                      A
 Frequencies --   1376.2634              1396.6207              1414.3437
 Red. masses --      1.3398                 1.4500                 1.4510
 Frc consts  --      1.4951                 1.6664                 1.7101
 IR Inten    --      7.5498                 8.5045                43.6738

                     55                     56                     57
                      A                      A                      A
 Frequencies --   1437.0376              1438.2408              1481.8576
 Red. masses --      1.3808                 1.4013                 1.0852
 Frc consts  --      1.6801                 1.7079                 1.4040
 IR Inten    --     20.6500                16.1369                 8.1356

                     58                     59                     60
                      A                      A                      A
 Frequencies --   1490.2941              1495.2475              1505.5699
 Red. masses --      1.1607                 1.0587                 1.0531
 Frc consts  --      1.5189                 1.3945                 1.4064
 IR Inten    --      0.5688                15.1408                 9.6809

                     61                     62                     63
                      A                      A                      A
 Frequencies --   1506.7280              1511.2895              1516.6993
 Red. masses --      1.0980                 1.0855                 1.0825
 Frc consts  --      1.4687                 1.4607                 1.4672
 IR Inten    --      1.2702                 1.7129                 3.8745

                     64                     65                     66
                      A                      A                      A
 Frequencies --   1520.4623              1533.3361              1539.6481
 Red. masses --      1.0540                 1.0819                 1.0764
 Frc consts  --      1.4356                 1.4987                 1.5034
 IR Inten    --     14.3086                 2.0566                 4.2144

                     67                     68                     69
                      A                      A                      A
 Frequencies --   1545.3976              1814.2045              2955.5403
 Red. masses --      1.1414                10.0361                 1.0608
 Frc consts  --      1.6061                19.4619                 5.4596
 IR Inten    --     10.2816               115.3415                61.4025

                     70                     71                     72
                      A                      A                      A
 Frequencies --   2974.8198              3023.5906              3049.1225
 Red. masses --      1.0714                 1.0609                 1.0441
 Frc consts  --      5.5861                 5.7146                 5.7196
 IR Inten    --     48.3872                21.8434                 5.2007

                     73                     74                     75
                      A                      A                      A
 Frequencies --   3051.9300              3053.4181              3069.1816
 Red. masses --      1.0915                 1.0855                 1.0571
 Frc consts  --      5.9900                 5.9630                 5.8669
 IR Inten    --     11.8464                16.2642                47.2646

                     76                     77                     78
                      A                      A                      A
 Frequencies --   3071.3632              3074.8871              3076.4924
 Red. masses --      1.0592                 1.0653                 1.0654
 Frc consts  --      5.8869                 5.9344                 5.9411
 IR Inten    --     50.0676                16.7150                 8.8538

                     79                     80                     81
                      A                      A                      A
 Frequencies --   3082.9805              3088.2093              3107.5061
 Red. masses --      1.0742                 1.0833                 1.0987
 Frc consts  --      6.0154                 6.0870                 6.2508
 IR Inten    --     55.1941                21.6224                12.8601

                     82                     83                     84
                      A                      A                      A
 Frequencies --   3112.2148              3119.9734              3122.1419
 Red. masses --      1.1068                 1.1081                 1.1027
 Frc consts  --      6.3163                 6.3550                 6.3328
 IR Inten    --     17.3991                27.9001                12.0561

                     85                     86                     87
                      A                      A                      A
 Frequencies --   3133.8802              3135.9009              3166.1801
 Red. masses --      1.1068                 1.1008                 1.1021
 Frc consts  --      6.4044                 6.3781                 6.5093
 IR Inten    --     80.7183                48.4874                10.9332

 - Thermochemistry -
 -------------------
 Temperature   298.150 Kelvin.  Pressure   1.00000 Atm.
 Atom     1 has atomic number  6 and mass  12.00000

 Molecular mass:   169.14666 amu.
 Principal axes and moments of inertia in atomic units:
                           1         2         3
     Eigenvalues --  1016.758474600.453244838.15437
           X            0.99993  -0.01061   0.00448
           Y            0.01061   0.99994   0.00166
           Z           -0.00450  -0.00162   0.99999
 This molecule is an asymmetric top.
 Rotational symmetry number  1.
 Warning -- assumption of classical behavior for rotation
           may cause significant error
 Rotational temperatures (Kelvin)      0.08519     0.01883     0.01790
 Rotational constants (GHZ):           1.77500     0.39230     0.37302
 Zero-point vibrational energy     736274.5 (Joules/Mol)
                                  175.97383 (Kcal/Mol)
 Warning -- explicit consideration of  19 degrees of freedom as
           vibrations may cause significant error
 Vibrational temperatures:     26.79    56.22    68.51   124.37   142.69
          (Kelvin)            166.61   194.83   261.34   295.81   372.35
                              386.55   427.86   502.60   561.18   642.15
                              654.53   677.87   782.56   857.36   937.69
                             1064.68  1090.19  1146.83  1158.81  1205.68
                             1292.69  1321.57  1346.37  1380.23  1381.67
                             1415.71  1438.67  1490.34  1502.90  1571.13
                             1588.68  1609.48  1630.31  1676.86  1692.23
                             1730.23  1737.57  1779.09  1802.39  1813.79
                             1826.64  1830.80  1858.21  1884.88  1897.18
                             1954.70  1980.14  2009.43  2034.93  2067.58
                             2069.31  2132.06  2144.20  2151.33  2166.18
                             2167.85  2174.41  2182.19  2187.61  2206.13
                             2215.21  2223.48  2610.24  4252.36  4280.10
                             4350.27  4387.01  4391.05  4393.19  4415.87
                             4419.01  4424.08  4426.39  4435.72  4443.24
                             4471.01  4477.78  4488.95  4492.07  4508.95
                             4511.86  4555.43

 Zero-point correction=                           0.280432 (Hartree/Particle)
 Thermal correction to Energy=                    0.294332
 Thermal correction to Enthalpy=                  0.295276
 Thermal correction to Gibbs Free Energy=         0.237812
 Sum of electronic and zero-point Energies=           -522.211341
 Sum of electronic and thermal Energies=              -522.197441
 Sum of electronic and thermal Enthalpies=            -522.196497
 Sum of electronic and thermal Free Energies=         -522.253960

                     E (Thermal)             CV                S
                      KCal/Mol        Cal/Mol-Kelvin    Cal/Mol-Kelvin
 Total                  184.696             50.490            120.943
 Electronic               0.000              0.000              0.000
 Translational            0.889              2.981             41.285
 Rotational               0.889              2.981             31.493
 Vibrational            182.919             44.529             48.165
 Vibration     1          0.593              1.986              6.776
 Vibration     2          0.594              1.981              5.305
 Vibration     3          0.595              1.978              4.914
 Vibration     4          0.601              1.959              3.739
 Vibration     5          0.604              1.950              3.470
 Vibration     6          0.608              1.936              3.169
 Vibration     7          0.613              1.918              2.868
 Vibration     8          0.630              1.865              2.311
 Vibration     9          0.640              1.832              2.082
 Vibration    10          0.668              1.748              1.670
 Vibration    11          0.673              1.731              1.605
 Vibration    12          0.691              1.679              1.432
 Vibration    13          0.727              1.577              1.169
 Vibration    14          0.758              1.491              1.000
 Vibration    15          0.806              1.369              0.807
 Vibration    16          0.813              1.350              0.781
 Vibration    17          0.828              1.314              0.734
 Vibration    18          0.899              1.153              0.557
 Vibration    19          0.954              1.041              0.457

 Optimization completed.
    -- Stationary point found.
 Normal termination of Gaussian 16 at Wed Dec  9 17:21:01 2020.

 ----------------------------------------------------------------------
 # B3LYP/6-311++G(d,p) empiricaldispersion=gd3bj scf=xqc pop=npa geom=c
 heck
 ----------------------------------------------------------------------

 ---------------------------------------
 CID_116353589_JID_2130_Energie_neutraal
 ---------------------------------------
 Structure from the checkpoint file:  "JID_2130.chk"
 Charge =  0 Multiplicity = 1

 SCF Done:  E(RB3LYP) =  -522.640440010     A.U. after   13 cycles
 Normal termination of Gaussian 16 at Wed Dec  9 17:23:56 2020.

 ----------------------------------------------------------------------
 # B3LYP/6-311++G(d,p) empiricaldispersion=gd3bj scf=xqc pop=npa geom=c
 heck
 ----------------------------------------------------------------------

 -------------------------------------
 CID_116353589_JID_2130_Energie_kation
 -------------------------------------
 Structure from the checkpoint file:  "JID_2130.chk"
 Charge =  1 Multiplicity = 2

 SCF Done:  E(UB3LYP) =  -522.358717990     A.U. after   20 cycles
 Normal termination of Gaussian 16 at Wed Dec  9 17:29:23 2020.
 Gaussian 16:  ES64L-G16RevA.03 25-Dec-2016

 ----------------------------------------------------------------------
 # B3LYP/6-311++G(d,p) empiricaldispersion=gd3bj scf=xqc pop=npa geom=c
 heck
 ----------------------------------------------------------------------

 ------------------------------------
 CID_116353589_JID_2130_Energie_anion
 ------------------------------------
 Structure from the checkpoint file:  "JID_2130.chk"
 Charge = -1 Multiplicity = 2

                         Standard orientation:
 ---------------------------------------------------------------------
 Center     Atomic      Atomic             Coordinates (Angstroms)
 Number     Number       Type             X           Y           Z
 ---------------------------------------------------------------------
      1          6           0        4.231879   -1.057577   -0.776116
      2          6           0        3.157156   -0.140005   -0.222122
      3          8           0        2.962362    0.968098   -0.686058
      4          6           0        2.346105   -0.679476    0.951902
      5          6           0        1.101416    0.149252    1.266321
      6          6           0       -0.010057   -0.051793    0.230503
      7          7           0       -1.122075    0.872216    0.447715
      8          6           0       -0.859992    2.169161   -0.166517
      9          6           0       -2.432373    0.365678    0.090192
     10          6           0       -2.740675   -0.339101   -1.274630
     11          6           0       -3.733701   -1.248975   -0.505086
     12          6           0       -3.008973   -0.874830    0.816203
     13          1           0        4.846371   -1.477795    0.028837
     14          1           0        4.860875   -0.513005   -1.482914
     15          1           0        3.760221   -1.903887   -1.292208
     16          1           0        2.093995   -1.732069    0.756352
     17          1           0        3.025983   -0.703223    1.816970
     18          1           0        0.709532   -0.114314    2.254615
     19          1           0        1.388416    1.204119    1.304135
     20          1           0        0.405437    0.050679   -0.787114
     21          1           0       -0.377170   -1.079736    0.315662
     22          1           0       -0.857832    2.131152   -1.271987
     23          1           0       -1.621347    2.889715    0.151734
     24          1           0        0.117348    2.543708    0.149411
     25          1           0       -3.135638    1.197387    0.216907
     26          1           0       -3.127509    0.270905   -2.096785
     27          1           0       -1.876447   -0.907203   -1.635041
     28          1           0       -3.763818   -2.307501   -0.778941
     29          1           0       -4.754098   -0.853294   -0.535038
     30          1           0       -2.232315   -1.605337    1.063912
     31          1           0       -3.611091   -0.694602    1.712055
 ---------------------------------------------------------------------

 SCF Done:  E(UB3LYP) =  -522.624119358     A.U. after   33 cycles
 SCF Done:  E(UB3LYP) =  -522.624151979     a.u. after    5 cycles

 The electronic state is 2-A.
 Alpha  occ. eigenvalues --  -19.00754 -14.20888 -10.15530 -10.10583 -10.09233
 Alpha  occ. eigenvalues --  -10.09123 -10.07985 -10.07564 -10.07375 -10.07055
 Alpha  occ. eigenvalues --  -10.06396 -10.06162  -0.94032  -0.83254  -0.74347
 Alpha  occ. eigenvalues --   -0.69163  -0.64250  -0.60183  -0.58660  -0.56973
 Alpha  occ. eigenvalues --   -0.52785  -0.49681  -0.45189  -0.42329  -0.40483
 Alpha  occ. eigenvalues --   -0.39702  -0.37904  -0.36337  -0.35422  -0.34112
 Alpha  occ. eigenvalues --   -0.33561  -0.32261  -0.30805  -0.30260  -0.30035
 Alpha  occ. eigenvalues --   -0.28786  -0.27706  -0.26980  -0.25597  -0.25381
 Alpha  occ. eigenvalues --   -0.23980  -0.23768  -0.23649  -0.22685  -0.21655
 Alpha  occ. eigenvalues --   -0.14865  -0.11900   0.04714
 Alpha virt. eigenvalues --    0.05478   0.07240   0.07671   0.08108   0.08395
 Alpha virt. eigenvalues --    0.09296   0.09766   0.10300   0.10722   0.11132
 Alpha virt. eigenvalues --    0.11295   0.11715   0.12739   0.13168   0.13538

  Beta  occ. eigenvalues --  -19.00734 -14.20884 -10.15503 -10.10575 -10.09229
  Beta  occ. eigenvalues --  -10.09118 -10.07972 -10.07561 -10.07371 -10.07012
  Beta  occ. eigenvalues --  -10.06391 -10.06100  -0.93984  -0.83243  -0.74323
  Beta  occ. eigenvalues --   -0.69116  -0.64174  -0.60143  -0.58624  -0.56960
  Beta  occ. eigenvalues --   -0.52736  -0.49648  -0.45163  -0.42247  -0.40442
  Beta  occ. eigenvalues --   -0.39671  -0.37856  -0.36275  -0.35392  -0.34055
  Beta  occ. eigenvalues --   -0.33519  -0.32236  -0.30769  -0.30207  -0.30014
  Beta  occ. eigenvalues --   -0.28755  -0.27663  -0.26964  -0.25528  -0.25336
  Beta  occ. eigenvalues --   -0.23925  -0.23741  -0.23630  -0.22663  -0.21639
  Beta  occ. eigenvalues --   -0.14830  -0.11888
  Beta virt. eigenvalues --    0.06273   0.07394   0.07686   0.07848   0.08209
  Beta virt. eigenvalues --    0.08919   0.09849   0.10026   0.10418   0.11163
  Beta virt. eigenvalues --    0.11528   0.11902   0.12115   0.12916   0.13472

 Mulliken charges and spin densities:
               1          2
     1  C    2.752836  -3.421026
     2  C   -2.430948   2.616826
     3  O   -0.230893  -0.023719
     4  C    1.827160  -2.096315
     5  C   -0.859988   1.112245
     6  C   -0.247149  -0.745085
     7  N    0.366534   0.024404
     8  C   -0.263494  -0.040638
     9  C   -0.433873   0.071359
    10  C    0.077306  -0.285234
    11  C   -0.046737  -0.327285
    12  C    0.093306  -0.242561
    13  H   -0.754580   0.933500
    14  H   -0.177438   0.330206
    15  H   -0.506359   0.670234
    16  H   -0.184912   0.351622
    17  H   -0.769507   0.983770
    18  H    0.009486   0.135826
    19  H    0.192139  -0.033701
    20  H    0.246861  -0.112595
    21  H    0.109388  -0.005624
    22  H    0.116667   0.002816
    23  H    0.083361   0.047061
    24  H    0.130755  -0.001095
    25  H   -0.289812   0.466161
    26  H    0.067780   0.064715
    27  H    0.111535   0.015758
    28  H    0.154929  -0.017959
    29  H   -0.346014   0.481807
    30  H    0.088188   0.024030
    31  H    0.113472   0.020499
 Sum of Mulliken charges =  -1.00000   1.00000

 Dipole moment (field-independent basis, Debye):
    X=             -7.2290    Y=              2.9180    Z=             -1.0647  Tot=              7.8681
 Quadrupole moment (field-independent basis, Debye-Ang):
   XX=           -190.6337   YY=           -111.3881   ZZ=           -107.1226
   XY=             20.8548   XZ=             -5.8080   YZ=              3.0543

 Summary of Natural Population Analysis:

                                       Natural Population
                Natural  -----------------------------------------------
    Atom  No    Charge         Core      Valence    Rydberg      Total
 -----------------------------------------------------------------------
      C    1   -0.33427      0.99962     2.32867    0.00599     3.33427
      C    2    0.30124      0.99968     1.67796    0.02112     2.69876
      O    3   -0.29520      0.99987     3.28849    0.00684     4.29520
      C    4   -0.24162      0.99958     2.23256    0.00948     3.24162
      C    5   -0.19524      0.99962     2.18435    0.01127     3.19524
      C    6   -0.08521      0.99960     2.07455    0.01106     3.08521
      N    7   -0.27628      0.99969     2.76555    0.01104     3.77628
      C    8   -0.17585      0.99965     2.16842    0.00778     3.17585
      C    9   -0.00118      0.99958     1.98595    0.01565     3.00118
      C   10   -0.20192      0.99963     2.19406    0.00823     3.20192
      C   11   -0.19352      0.99965     2.18532    0.00855     3.19352
      C   12   -0.19114      0.99963     2.18239    0.00912     3.19114
      H   13    0.11604      0.00000     0.37688    0.00708     0.38396
      H   14    0.10754      0.00000     0.39135    0.00110     0.39246
      H   15    0.11211      0.00000     0.38612    0.00177     0.38789
      H   16    0.10781      0.00000     0.39052    0.00167     0.39219
      H   17    0.12017      0.00000     0.37640    0.00343     0.37983
      H   18    0.09875      0.00000     0.39984    0.00141     0.40125
      H   19    0.10252      0.00000     0.39615    0.00133     0.39748
      H   20    0.08744      0.00000     0.41132    0.00124     0.41256
      H   21    0.09275      0.00000     0.40570    0.00155     0.40725
      H   22    0.08020      0.00000     0.41846    0.00133     0.41980
      H   23    0.09193      0.00000     0.40726    0.00081     0.40807
      H   24    0.09929      0.00000     0.39981    0.00090     0.40071
      H   25    0.09557      0.00000     0.40281    0.00161     0.40443
      H   26    0.09617      0.00000     0.40303    0.00080     0.40383
      H   27    0.09792      0.00000     0.40125    0.00083     0.40208
      H   28    0.09371      0.00000     0.40559    0.00069     0.40629
      H   29    0.09740      0.00000     0.40084    0.00175     0.40260
      H   30    0.09616      0.00000     0.40259    0.00124     0.40384
      H   31    0.09671      0.00000     0.40239    0.00090     0.40329
 =======================================================================
   * Total *   -0.00000     11.99580    34.84659    0.15761    47.00000

 Normal termination of Gaussian 16 at Wed Dec  9 18:24:38 2020.
