 Gaussian 16, Revision A.03,

 -----------------------------------------------------------
 # opt freq B3LYP/6-31G(d) empiricaldispersion=gd3bj scf=xqc
 -----------------------------------------------------------

 -------------------------------
 CID_117370946_JID_7713_neutraal
 -------------------------------
 Symbolic Z-matrix:
 Charge =  0 Multiplicity = 1

 SCF Done:  E(RB3LYP) =  -1102.77531788     A.U. after   15 cycles
 SCF Done:  E(RB3LYP) =  -1102.78354065     A.U. after   13 cycles
 SCF Done:  E(RB3LYP) =  -1102.78139812     A.U. after   13 cycles
 SCF Done:  E(RB3LYP) =  -1102.78591089     A.U. after   12 cycles
 SCF Done:  E(RB3LYP) =  -1102.78658813     A.U. after   12 cycles
 SCF Done:  E(RB3LYP) =  -1102.78652869     A.U. after   12 cycles
 SCF Done:  E(RB3LYP) =  -1102.78697955     A.U. after   12 cycles
 SCF Done:  E(RB3LYP) =  -1102.78703802     A.U. after   10 cycles
 SCF Done:  E(RB3LYP) =  -1102.78705054     A.U. after    9 cycles
 SCF Done:  E(RB3LYP) =  -1102.78705458     A.U. after    8 cycles
 SCF Done:  E(RB3LYP) =  -1102.78705583     A.U. after    8 cycles
 SCF Done:  E(RB3LYP) =  -1102.78705665     A.U. after    8 cycles
 SCF Done:  E(RB3LYP) =  -1102.78705704     A.U. after    8 cycles
 SCF Done:  E(RB3LYP) =  -1102.78705717     A.U. after    7 cycles
 SCF Done:  E(RB3LYP) =  -1102.78705719     A.U. after    7 cycles
 Optimization completed.
    -- Stationary point found.
 Normal termination of Gaussian 16 at Mon Dec 14 16:42:48 2020.

 --------------------------------------------------------------------
 #N Geom=AllCheck Guess=TCheck SCRF=Check GenChk RB3LYP/6-31G(d) Freq
 --------------------------------------------------------------------

 Structure from the checkpoint file:  "JID_7713.chk"
 -------------------------------
 CID_117370946_JID_7713_neutraal
 -------------------------------
 Charge =  0 Multiplicity = 1

 SCF Done:  E(RB3LYP) =  -1102.78705719     A.U. after    1 cycles

  Exact polarizability: 165.216  24.774 177.628  17.583 -13.507 126.992
 Approx polarizability: 253.109  51.009 274.182  40.450 -25.827 225.465

                      1                      2                      3
                      A                      A                      A
 Frequencies --     43.9795                52.1317                59.4324
 Red. masses --      6.4320                 3.4060                 4.4091
 Frc consts  --      0.0073                 0.0055                 0.0092
 IR Inten    --      0.2683                 0.5933                 2.1286

                      4                      5                      6
                      A                      A                      A
 Frequencies --     80.6684               111.2341               151.6516
 Red. masses --      6.5249                 4.6546                 4.5872
 Frc consts  --      0.0250                 0.0339                 0.0622
 IR Inten    --      0.3890                 0.0249                 1.9359

                      7                      8                      9
                      A                      A                      A
 Frequencies --    161.8390               236.0464               237.5712
 Red. masses --      4.1650                 4.7740                 4.8695
 Frc consts  --      0.0643                 0.1567                 0.1619
 IR Inten    --      1.9490                 1.1123                 0.5574

                     10                     11                     12
                      A                      A                      A
 Frequencies --    280.9703               293.8578               337.3481
 Red. masses --      3.6202                 4.8008                 1.2046
 Frc consts  --      0.1684                 0.2443                 0.0808
 IR Inten    --     10.1809                11.9669                48.0453

                     13                     14                     15
                      A                      A                      A
 Frequencies --    351.9502               375.0908               413.9386
 Red. masses --      4.9275                 3.4329                 1.5391
 Frc consts  --      0.3596                 0.2846                 0.1554
 IR Inten    --      5.8816                11.9278                50.2342

                     16                     17                     18
                      A                      A                      A
 Frequencies --    446.5035               469.0240               486.3318
 Red. masses --      3.7199                 4.0506                 2.9343
 Frc consts  --      0.4370                 0.5250                 0.4089
 IR Inten    --      2.5298                 3.1927                 6.7541

                     19                     20                     21
                      A                      A                      A
 Frequencies --    524.6616               540.3562               568.1686
 Red. masses --      5.7705                 4.8309                 5.3643
 Frc consts  --      0.9359                 0.8311                 1.0203
 IR Inten    --     12.6120                 1.6519                 4.6599

                     22                     23                     24
                      A                      A                      A
 Frequencies --    628.8695               663.1165               672.8655
 Red. masses --      3.8473                 3.4414                 5.8633
 Frc consts  --      0.8965                 0.8916                 1.5640
 IR Inten    --      2.0186                58.1220                11.3358

                     25                     26                     27
                      A                      A                      A
 Frequencies --    679.7877               698.2683               710.3460
 Red. masses --      5.5611                 4.0705                 3.8663
 Frc consts  --      1.5141                 1.1693                 1.1494
 IR Inten    --      4.7556                33.2285                 4.0733

                     28                     29                     30
                      A                      A                      A
 Frequencies --    728.5893               769.2806               787.1861
 Red. masses --      6.0117                 1.7894                 2.2314
 Frc consts  --      1.8802                 0.6239                 0.8147
 IR Inten    --     19.8716                 6.7500                 1.3180

                     31                     32                     33
                      A                      A                      A
 Frequencies --    801.6125               817.4923               872.7514
 Red. masses --      1.4303                 5.0568                 1.2657
 Frc consts  --      0.5415                 1.9911                 0.5680
 IR Inten    --    322.7403                 6.2331                 2.7343

                     34                     35                     36
                      A                      A                      A
 Frequencies --    877.1788               887.2567               914.3970
 Red. masses --      1.2989                 1.4822                 3.5973
 Frc consts  --      0.5888                 0.6875                 1.7721
 IR Inten    --      7.9096                 0.6451                13.0007

                     37                     38                     39
                      A                      A                      A
 Frequencies --    945.7859               950.7783               979.8921
 Red. masses --      4.2046                 1.4344                 1.2529
 Frc consts  --      2.2159                 0.7640                 0.7088
 IR Inten    --     48.7372                 4.8273                 0.0809

                     40                     41                     42
                      A                      A                      A
 Frequencies --    996.1838              1037.8778              1042.7881
 Red. masses --      1.3591                 1.1448                 4.2197
 Frc consts  --      0.7947                 0.7265                 2.7035
 IR Inten    --      6.1161                 2.1422                11.9963

                     43                     44                     45
                      A                      A                      A
 Frequencies --   1058.5623              1078.6947              1084.7288
 Red. masses --      4.1448                 2.0706                 2.8520
 Frc consts  --      2.7364                 1.4195                 1.9771
 IR Inten    --    140.6911                36.2104                 5.5433

                     46                     47                     48
                      A                      A                      A
 Frequencies --   1099.1833              1129.5518              1139.1174
 Red. masses --      3.0340                 2.0516                 1.6647
 Frc consts  --      2.1598                 1.5422                 1.2727
 IR Inten    --      6.7443                18.0953                15.6684

                     49                     50                     51
                      A                      A                      A
 Frequencies --   1192.0306              1212.5180              1213.9494
 Red. masses --      1.1128                 1.3992                 1.5332
 Frc consts  --      0.9316                 1.2120                 1.3313
 IR Inten    --      0.2342                15.2993                14.6131

                     52                     53                     54
                      A                      A                      A
 Frequencies --   1222.6870              1228.1419              1259.2536
 Red. masses --      2.1724                 1.9163                 1.5202
 Frc consts  --      1.9134                 1.7030                 1.4203
 IR Inten    --     39.2327                42.1193                63.8306

                     55                     56                     57
                      A                      A                      A
 Frequencies --   1280.1441              1319.7282              1335.7218
 Red. masses --      1.7791                 1.9796                 3.1620
 Frc consts  --      1.7178                 2.0314                 3.3239
 IR Inten    --     29.6633                 2.5358                 5.0714

                     58                     59                     60
                      A                      A                      A
 Frequencies --   1338.7161              1376.1091              1390.0479
 Red. masses --      1.6468                 2.0118                 3.2832
 Frc consts  --      1.7389                 2.2446                 3.7378
 IR Inten    --      2.3893                 6.3636                 8.4508

                     61                     62                     63
                      A                      A                      A
 Frequencies --   1417.1292              1476.0321              1495.9535
 Red. masses --      1.2391                 3.0168                 2.5087
 Frc consts  --      1.4661                 3.8725                 3.3077
 IR Inten    --      7.6412                11.1195                13.6700

                     64                     65                     66
                      A                      A                      A
 Frequencies --   1502.6786              1527.0889              1539.9653
 Red. masses --      1.0994                 1.1239                 3.0160
 Frc consts  --      1.4627                 1.5442                 4.2141
 IR Inten    --      0.1347                16.8367                43.8302

                     67                     68                     69
                      A                      A                      A
 Frequencies --   1584.5605              1625.1884              1637.8578
 Red. masses --      4.7318                 5.8976                 3.4443
 Frc consts  --      6.9999                 9.1777                 5.4438
 IR Inten    --    107.7455                23.3264                90.8447

                     70                     71                     72
                      A                      A                      A
 Frequencies --   1661.3338              1704.2554              3102.1518
 Red. masses --      6.1344                 1.2686                 1.0556
 Frc consts  --      9.9755                 2.1710                 5.9851
 IR Inten    --      6.9062                90.7409                17.4648

                     73                     74                     75
                      A                      A                      A
 Frequencies --   3114.0348              3122.1970              3166.3251
 Red. masses --      1.0877                 1.0561                 1.1116
 Frc consts  --      6.2146                 6.0658                 6.5659
 IR Inten    --     15.7271                16.3186                16.7345

                     76                     77                     78
                      A                      A                      A
 Frequencies --   3186.1619              3189.9778              3200.8630
 Red. masses --      1.1116                 1.0854                 1.0891
 Frc consts  --      6.6486                 6.5073                 6.5742
 IR Inten    --      5.6161                 1.4224                 9.4674

                     79                     80                     81
                      A                      A                      A
 Frequencies --   3209.5885              3218.3708              3248.5776
 Red. masses --      1.0933                 1.0975                 1.0954
 Frc consts  --      6.6356                 6.6974                 6.8113
 IR Inten    --     22.1377                14.8426                 5.0964

                     82                     83                     84
                      A                      A                      A
 Frequencies --   3487.2867              3603.8811              3664.0740
 Red. masses --      1.0512                 1.0942                 1.0807
 Frc consts  --      7.5320                 8.3734                 8.5485
 IR Inten    --     88.2117                43.5806                67.1240

 - Thermochemistry -
 -------------------
 Temperature   298.150 Kelvin.  Pressure   1.00000 Atm.
 Atom     1 has atomic number  6 and mass  12.00000

 Molecular mass:   247.07793 amu.
 Principal axes and moments of inertia in atomic units:
                           1         2         3
     Eigenvalues --  3608.196254467.304336343.07389
           X            0.99885   0.04690   0.00961
           Y           -0.04663   0.99854  -0.02730
           Z           -0.01087   0.02682   0.99958
 This molecule is an asymmetric top.
 Rotational symmetry number  1.
 Warning -- assumption of classical behavior for rotation
           may cause significant error
 Rotational temperatures (Kelvin)      0.02400     0.01939     0.01365
 Rotational constants (GHZ):           0.50018     0.40399     0.28452
 Zero-point vibrational energy     630010.2 (Joules/Mol)
                                  150.57605 (Kcal/Mol)
 Warning -- explicit consideration of  21 degrees of freedom as
           vibrations may cause significant error
 Vibrational temperatures:     63.28    75.01    85.51   116.06   160.04
          (Kelvin)            218.19   232.85   339.62   341.81   404.25
                              422.80   485.37   506.38   539.67   595.57
                              642.42   674.82   699.72   754.87   777.45
                              817.47   904.80   954.08   968.10   978.06
                             1004.65  1022.03  1048.28  1106.82  1132.59
                             1153.34  1176.19  1255.69  1262.06  1276.56
                             1315.61  1360.77  1367.96  1409.85  1433.29
                             1493.27  1500.34  1523.04  1552.00  1560.68
                             1581.48  1625.17  1638.94  1715.07  1744.54
                             1746.60  1759.17  1767.02  1811.78  1841.84
                             1898.79  1921.81  1926.11  1979.91  1999.97
                             2038.93  2123.68  2152.34  2162.02  2197.14
                             2215.67  2279.83  2338.28  2356.51  2390.29
                             2452.04  4463.30  4480.40  4492.15  4555.64
                             4584.18  4589.67  4605.33  4617.88  4630.52
                             4673.98  5017.43  5185.18  5271.79

 Zero-point correction=                           0.239958 (Hartree/Particle)
 Thermal correction to Energy=                    0.254577
 Thermal correction to Enthalpy=                  0.255521
 Thermal correction to Gibbs Free Energy=         0.197523
 Sum of electronic and zero-point Energies=          -1102.547099
 Sum of electronic and thermal Energies=             -1102.532480
 Sum of electronic and thermal Enthalpies=           -1102.531536
 Sum of electronic and thermal Free Energies=        -1102.589534

                     E (Thermal)             CV                S
                      KCal/Mol        Cal/Mol-Kelvin    Cal/Mol-Kelvin
 Total                  159.750             57.507            122.067
 Electronic               0.000              0.000              0.000
 Translational            0.889              2.981             42.414
 Rotational               0.889              2.981             32.991
 Vibrational            157.972             51.545             46.662
 Vibration     1          0.595              1.980              5.071
 Vibration     2          0.596              1.977              4.735
 Vibration     3          0.597              1.974              4.476
 Vibration     4          0.600              1.962              3.875
 Vibration     5          0.607              1.940              3.247
 Vibration     6          0.619              1.901              2.651
 Vibration     7          0.622              1.889              2.528
 Vibration     8          0.655              1.786              1.832
 Vibration     9          0.656              1.783              1.821
 Vibration    10          0.681              1.709              1.528
 Vibration    11          0.689              1.685              1.452
 Vibration    12          0.718              1.601              1.225
 Vibration    13          0.728              1.571              1.157
 Vibration    14          0.746              1.523              1.059
 Vibration    15          0.778              1.440              0.913
 Vibration    16          0.806              1.369              0.806
 Vibration    17          0.826              1.319              0.740
 Vibration    18          0.842              1.280              0.693
 Vibration    19          0.880              1.195              0.599
 Vibration    20          0.895              1.161              0.565
 Vibration    21          0.924              1.100              0.508

 Optimization completed.
    -- Stationary point found.
 Normal termination of Gaussian 16 at Mon Dec 14 16:55:17 2020.

 ----------------------------------------------------------------------
 # B3LYP/6-311++G(d,p) empiricaldispersion=gd3bj scf=xqc pop=npa geom=c
 heck
 ----------------------------------------------------------------------

 ---------------------------------------
 CID_117370946_JID_7713_Energie_neutraal
 ---------------------------------------
 Structure from the checkpoint file:  "JID_7713.chk"
 Charge =  0 Multiplicity = 1

 SCF Done:  E(RB3LYP) =  -1103.00768627     A.U. after   15 cycles
 Normal termination of Gaussian 16 at Mon Dec 14 17:01:04 2020.

 ----------------------------------------------------------------------
 # B3LYP/6-311++G(d,p) empiricaldispersion=gd3bj scf=xqc pop=npa geom=c
 heck
 ----------------------------------------------------------------------

 -------------------------------------
 CID_117370946_JID_7713_Energie_kation
 -------------------------------------
 Structure from the checkpoint file:  "JID_7713.chk"
 Charge =  1 Multiplicity = 2

 SCF Done:  E(UB3LYP) =  -1102.73571291     A.U. after   25 cycles
 Normal termination of Gaussian 16 at Mon Dec 14 17:14:47 2020.
 Gaussian 16:  ES64L-G16RevA.03 25-Dec-2016

 ----------------------------------------------------------------------
 # B3LYP/6-311++G(d,p) empiricaldispersion=gd3bj scf=xqc pop=npa geom=c
 heck
 ----------------------------------------------------------------------

 ------------------------------------
 CID_117370946_JID_7713_Energie_anion
 ------------------------------------
 Structure from the checkpoint file:  "JID_7713.chk"
 Charge = -1 Multiplicity = 2

                         Standard orientation:
 ---------------------------------------------------------------------
 Center     Atomic      Atomic             Coordinates (Angstroms)
 Number     Number       Type             X           Y           Z
 ---------------------------------------------------------------------
      1          6           0        1.064318   -1.554742   -0.664655
      2          6           0        1.517533   -1.049886    0.715491
      3          6           0        2.967059   -0.734701    0.314745
      4         16           0        2.833780   -1.981211   -1.058814
      5          8           0        0.765328   -0.026862    1.378851
      6          6           0        0.463485    1.123936    0.657450
      7          6           0        1.336074    2.207481    0.747444
      8          6           0        1.068221    3.383605    0.050357
      9          6           0       -0.087413    3.468189   -0.728121
     10          6           0       -0.969864    2.394084   -0.786590
     11          6           0       -0.726604    1.192836   -0.093443
     12          6           0       -1.678465    0.084636   -0.207032
     13          6           0       -2.093879   -0.852422    0.749081
     14          7           0       -3.010554   -1.641622    0.127102
     15          7           0       -3.249173   -1.285889   -1.173361
     16          6           0       -2.445437   -0.251525   -1.360854
     17          7           0       -1.790861   -0.980898    2.093232
     18          1           0        0.712593   -0.756195   -1.317873
     19          1           0        0.360818   -2.387789   -0.679711
     20          1           0        1.511499   -1.880485    1.424862
     21          1           0        3.737619   -0.934880    1.061604
     22          1           0        3.082310    0.271015   -0.094938
     23          1           0        2.219110    2.109847    1.370884
     24          1           0        1.751710    4.224430    0.119269
     25          1           0       -0.313154    4.379598   -1.273941
     26          1           0       -1.887155    2.480563   -1.360934
     27          1           0       -3.577017   -2.364406    0.543918
     28          1           0       -2.402734    0.224373   -2.332384
     29          1           0       -1.947892   -1.909070    2.470119
     30          1           0       -0.846855   -0.652818    2.287298
 ---------------------------------------------------------------------

 SCF Done:  E(UB3LYP) =  -1103.00027281     A.U. after   33 cycles
 SCF Done:  E(UB3LYP) =  -1103.00050278     a.u. after    6 cycles

 The electronic state is 2-A.
 Alpha  occ. eigenvalues --  -88.75347 -19.06078 -14.27720 -14.22887 -14.21877
 Alpha  occ. eigenvalues --  -10.15386 -10.15119 -10.14347 -10.11334 -10.11052
 Alpha  occ. eigenvalues --  -10.10506 -10.09492 -10.09172 -10.09120 -10.09068
 Alpha  occ. eigenvalues --  -10.09050 -10.07480  -7.83927  -5.80258  -5.80062
 Alpha  occ. eigenvalues --   -5.79261  -0.97455  -0.94525  -0.81879  -0.77861
 Alpha  occ. eigenvalues --   -0.76222  -0.71893  -0.69290  -0.66397  -0.64484
 Alpha  occ. eigenvalues --   -0.59995  -0.58635  -0.54415  -0.52828  -0.50886
 Alpha  occ. eigenvalues --   -0.49471  -0.47139  -0.45343  -0.43637  -0.42204
 Alpha  occ. eigenvalues --   -0.40878  -0.39840  -0.38101  -0.36480  -0.35479
 Alpha  occ. eigenvalues --   -0.34697  -0.34028  -0.33388  -0.32881  -0.32110
 Alpha  occ. eigenvalues --   -0.31241  -0.29715  -0.28017  -0.27774  -0.26714
 Alpha  occ. eigenvalues --   -0.26104  -0.23391  -0.22079  -0.20331  -0.20010
 Alpha  occ. eigenvalues --   -0.19069  -0.16854  -0.14783  -0.13841  -0.10909
 Alpha  occ. eigenvalues --    0.04026
 Alpha virt. eigenvalues --    0.05489   0.06122   0.06556   0.06921   0.07721
 Alpha virt. eigenvalues --    0.08188   0.08419   0.08894   0.09910   0.10459
 Alpha virt. eigenvalues --    0.10755   0.11416   0.11725   0.11995   0.12235

  Beta  occ. eigenvalues --  -88.75345 -19.06078 -14.27674 -14.22879 -14.21804
  Beta  occ. eigenvalues --  -10.15364 -10.15119 -10.14334 -10.11314 -10.11045
  Beta  occ. eigenvalues --  -10.10505 -10.09490 -10.09162 -10.09111 -10.09059
  Beta  occ. eigenvalues --  -10.09037 -10.07475  -7.83925  -5.80256  -5.80058
  Beta  occ. eigenvalues --   -5.79260  -0.97443  -0.94487  -0.81784  -0.77837
  Beta  occ. eigenvalues --   -0.76200  -0.71838  -0.69247  -0.66367  -0.64443
  Beta  occ. eigenvalues --   -0.59960  -0.58601  -0.54386  -0.52789  -0.50839
  Beta  occ. eigenvalues --   -0.49443  -0.47092  -0.45239  -0.43596  -0.42155
  Beta  occ. eigenvalues --   -0.40828  -0.39814  -0.38048  -0.36452  -0.35429
  Beta  occ. eigenvalues --   -0.34664  -0.34005  -0.33366  -0.32849  -0.32090
  Beta  occ. eigenvalues --   -0.31213  -0.29678  -0.27986  -0.27751  -0.26685
  Beta  occ. eigenvalues --   -0.26080  -0.23347  -0.22052  -0.20307  -0.19993
  Beta  occ. eigenvalues --   -0.19048  -0.16803  -0.14747  -0.13825  -0.10874
  Beta virt. eigenvalues --    0.05902   0.06170   0.06864   0.06968   0.07597
  Beta virt. eigenvalues --    0.08045   0.08297   0.09108   0.09197   0.10379
  Beta virt. eigenvalues --    0.10723   0.11024   0.11391   0.12112   0.12288

 Mulliken charges and spin densities:
               1          2
     1  C   -0.168948  -0.334238
     2  C   -0.280461   0.545151
     3  C    0.470836  -1.060543
     4  S   -0.399789   0.282396
     5  O   -0.091412  -0.013684
     6  C   -0.248038  -0.256034
     7  C   -0.515407   0.350271
     8  C    0.114258  -0.377379
     9  C    0.055482  -0.477894
    10  C   -0.659203   0.306636
    11  C    0.743148  -0.284656
    12  C    2.905790  -2.002265
    13  C   -1.739570   1.018078
    14  N    0.159437  -0.156699
    15  N   -0.361289   0.129872
    16  C    0.071851  -0.227688
    17  N   -0.231808  -0.062606
    18  H    0.251719  -0.068973
    19  H    0.188294   0.046764
    20  H   -0.457939   0.712423
    21  H   -0.166233   0.379966
    22  H    0.227598  -0.054625
    23  H   -0.238992   0.428879
    24  H   -0.307134   0.472481
    25  H    0.007483   0.147481
    26  H    0.087797   0.064300
    27  H   -0.261792   0.600080
    28  H    0.139806   0.009185
    29  H   -0.650668   0.924404
    30  H    0.355188  -0.041083
 Sum of Mulliken charges =  -1.00000   1.00000

 Dipole moment (field-independent basis, Debye):
    X=              2.6088    Y=              5.1057    Z=             -5.0097  Tot=              7.6138
 Quadrupole moment (field-independent basis, Debye-Ang):
   XX=           -165.9557   YY=           -164.8170   ZZ=           -148.7004
   XY=            -14.4838   XZ=              4.0388   YZ=              8.4474

 Summary of Natural Population Analysis:

                                       Natural Population
                Natural  -----------------------------------------------
    Atom  No    Charge         Core      Valence    Rydberg      Total
 -----------------------------------------------------------------------
      C    1   -0.23904      0.99959     2.22913    0.01031     3.23904
      C    2    0.05098      0.99946     1.93046    0.01909     2.94902
      C    3   -0.23888      0.99959     2.22915    0.01014     3.23888
      S    4    0.06430      4.99968     2.92083    0.01519     7.93570
      O    5   -0.30264      0.99986     3.29012    0.01267     4.30264
      C    6    0.15124      0.99932     1.83524    0.01419     2.84876
      C    7   -0.11435      0.99950     2.10507    0.00978     3.11435
      C    8   -0.10641      0.99957     2.09705    0.00979     3.10641
      C    9   -0.10405      0.99957     2.09415    0.01033     3.10405
      C   10   -0.09175      0.99954     2.08455    0.00766     3.09175
      C   11   -0.03460      0.99944     2.02595    0.00920     3.03460
      C   12   -0.12051      0.99945     2.10912    0.01194     3.12051
      C   13    0.19453      0.99950     1.79117    0.01480     2.80547
      N   14   -0.18508      0.99965     2.67150    0.01393     3.68508
      N   15   -0.16389      0.99974     2.65107    0.01309     3.66389
      C   16    0.00186      0.99959     1.98558    0.01297     2.99814
      N   17   -0.39719      0.99970     2.88779    0.00971     3.89719
      H   18    0.10689      0.00000     0.39135    0.00176     0.39311
      H   19    0.10965      0.00000     0.38908    0.00127     0.39035
      H   20    0.10351      0.00000     0.39284    0.00365     0.39649
      H   21    0.10468      0.00000     0.39386    0.00146     0.39532
      H   22    0.10316      0.00000     0.39477    0.00207     0.39684
      H   23    0.10762      0.00000     0.39082    0.00156     0.39238
      H   24    0.10187      0.00000     0.39714    0.00099     0.39813
      H   25    0.10012      0.00000     0.39916    0.00072     0.39988
      H   26    0.10133      0.00000     0.39746    0.00121     0.39867
      H   27    0.20313      0.00000     0.29067    0.00620     0.29687
      H   28    0.09488      0.00000     0.40418    0.00094     0.40512
      H   29    0.19499      0.00000     0.28699    0.01802     0.30501
      H   30    0.20365      0.00000     0.29360    0.00274     0.29635
 =======================================================================
   * Total *   -0.00000     20.99276    43.75985    0.24738    65.00000

 Normal termination of Gaussian 16 at Mon Dec 14 19:03:39 2020.
