 Gaussian 16, Revision A.03,

 -----------------------------------------------------------
 # opt freq B3LYP/6-31G(d) empiricaldispersion=gd3bj scf=xqc
 -----------------------------------------------------------

 --------------------------------
 CID_138436106_JID_10405_neutraal
 --------------------------------
 Symbolic Z-matrix:
 Charge =  0 Multiplicity = 1

 SCF Done:  E(RB3LYP) =  -931.193881580     A.U. after   16 cycles
 SCF Done:  E(RB3LYP) =  -931.201035102     A.U. after   14 cycles
 SCF Done:  E(RB3LYP) =  -931.199437676     A.U. after   15 cycles
 SCF Done:  E(RB3LYP) =  -931.200926915     A.U. after   15 cycles
 SCF Done:  E(RB3LYP) =  -931.202006687     A.U. after   11 cycles
 SCF Done:  E(RB3LYP) =  -931.202524569     A.U. after   14 cycles
 SCF Done:  E(RB3LYP) =  -931.202790687     A.U. after   15 cycles
 SCF Done:  E(RB3LYP) =  -931.203301349     A.U. after   13 cycles
 SCF Done:  E(RB3LYP) =  -931.203344547     A.U. after   13 cycles
 SCF Done:  E(RB3LYP) =  -931.203382099     A.U. after   13 cycles
 SCF Done:  E(RB3LYP) =  -931.203413029     A.U. after   12 cycles
 SCF Done:  E(RB3LYP) =  -931.203426063     A.U. after   11 cycles
 SCF Done:  E(RB3LYP) =  -931.203430882     A.U. after   11 cycles
 SCF Done:  E(RB3LYP) =  -931.203432195     A.U. after   10 cycles
 SCF Done:  E(RB3LYP) =  -931.203432555     A.U. after    9 cycles
 SCF Done:  E(RB3LYP) =  -931.203432613     A.U. after    8 cycles
 Optimization completed.
    -- Stationary point found.
 Normal termination of Gaussian 16 at Sat Dec 12 15:40:59 2020.

 --------------------------------------------------------------------
 #N Geom=AllCheck Guess=TCheck SCRF=Check GenChk RB3LYP/6-31G(d) Freq
 --------------------------------------------------------------------

 Structure from the checkpoint file:  "JID_10405.chk"
 --------------------------------
 CID_138436106_JID_10405_neutraal
 --------------------------------
 Charge =  0 Multiplicity = 1

 SCF Done:  E(RB3LYP) =  -931.203432613     A.U. after    1 cycles

  Exact polarizability: 233.004  14.590 167.933 -18.268 -22.950 125.958
 Approx polarizability: 372.039  15.549 275.823 -43.923 -52.915 211.014

                      1                      2                      3
                      A                      A                      A
 Frequencies --     25.3562                41.7594                46.4622
 Red. masses --      5.0882                 6.9448                 7.2485
 Frc consts  --      0.0019                 0.0071                 0.0092
 IR Inten    --      0.9561                 0.7067                 1.1755

                      4                      5                      6
                      A                      A                      A
 Frequencies --     51.4071                61.7331                71.7057
 Red. masses --      6.3787                 6.0161                 5.7155
 Frc consts  --      0.0099                 0.0135                 0.0173
 IR Inten    --      4.8381                 1.0858                 0.4682

                      7                      8                      9
                      A                      A                      A
 Frequencies --     90.3909               174.2907               178.9961
 Red. masses --      5.1240                 4.8274                 5.0514
 Frc consts  --      0.0247                 0.0864                 0.0954
 IR Inten    --      0.9616                 0.5240                 0.6178

                     10                     11                     12
                      A                      A                      A
 Frequencies --    182.0989               193.4119               247.7496
 Red. masses --      1.0518                 4.0203                 4.4265
 Frc consts  --      0.0205                 0.0886                 0.1601
 IR Inten    --      0.1891                 7.7958                 0.7839

                     13                     14                     15
                      A                      A                      A
 Frequencies --    276.2563               296.8473               336.1359
 Red. masses --      5.5113                 4.8209                 4.8256
 Frc consts  --      0.2478                 0.2503                 0.3212
 IR Inten    --      2.5472                 1.3996                 0.5044

                     16                     17                     18
                      A                      A                      A
 Frequencies --    365.9084               386.1377               423.9964
 Red. masses --      3.3349                 5.2015                 3.8299
 Frc consts  --      0.2631                 0.4569                 0.4057
 IR Inten    --      1.2478                 0.9845                 4.9975

                     19                     20                     21
                      A                      A                      A
 Frequencies --    428.8749               443.6278               448.4156
 Red. masses --      6.1133                 3.2812                 2.6778
 Frc consts  --      0.6625                 0.3805                 0.3172
 IR Inten    --      1.1610                 1.6410                 3.7641

                     22                     23                     24
                      A                      A                      A
 Frequencies --    513.5738               535.1647               541.9725
 Red. masses --      3.5145                 5.1506                 4.0865
 Frc consts  --      0.5462                 0.8691                 0.7072
 IR Inten    --      9.1875                 3.9239                 8.6467

                     25                     26                     27
                      A                      A                      A
 Frequencies --    559.1872               617.7491               631.8233
 Red. masses --      5.2636                 5.9913                 5.8961
 Frc consts  --      0.9697                 1.3471                 1.3868
 IR Inten    --      1.4154                 1.3910                 2.5296

                     28                     29                     30
                      A                      A                      A
 Frequencies --    648.2977               693.0183               707.2781
 Red. masses --      5.5382                 5.6636                 2.5702
 Frc consts  --      1.3714                 1.6026                 0.7575
 IR Inten    --     11.0945                 8.5617                29.7262

                     31                     32                     33
                      A                      A                      A
 Frequencies --    727.1924               752.0271               762.4181
 Red. masses --      2.2709                 4.9459                 3.9475
 Frc consts  --      0.7075                 1.6480                 1.3519
 IR Inten    --     19.6223                22.6558                 4.1552

                     34                     35                     36
                      A                      A                      A
 Frequencies --    791.7285               817.7614               820.9076
 Red. masses --      4.8084                 1.6389                 1.6525
 Frc consts  --      1.7758                 0.6457                 0.6561
 IR Inten    --      6.6593                34.2002                 3.6081

                     37                     38                     39
                      A                      A                      A
 Frequencies --    841.5128               894.7710               919.3010
 Red. masses --      3.0762                 2.3539                 1.4710
 Frc consts  --      1.2835                 1.1104                 0.7325
 IR Inten    --     30.2575                11.8874                 4.3312

                     40                     41                     42
                      A                      A                      A
 Frequencies --    926.6839               940.8922               948.6309
 Red. masses --      1.3950                 1.4134                 1.4385
 Frc consts  --      0.7058                 0.7372                 0.7627
 IR Inten    --      2.0733                 5.3734                 1.0081

                     43                     44                     45
                      A                      A                      A
 Frequencies --    962.6066               984.0962               989.7825
 Red. masses --      3.0216                 1.3272                 1.2933
 Frc consts  --      1.6496                 0.7573                 0.7465
 IR Inten    --     11.0985                 0.2679                 0.3768

                     46                     47                     48
                      A                      A                      A
 Frequencies --   1012.6215              1023.1239              1030.6623
 Red. masses --      1.8413                 5.6286                 4.2006
 Frc consts  --      1.1124                 3.4714                 2.6290
 IR Inten    --      2.5006                 0.3644                 6.3197

                     49                     50                     51
                      A                      A                      A
 Frequencies --   1079.9511              1098.8307              1117.4782
 Red. masses --      2.7943                 1.9733                 1.7644
 Frc consts  --      1.9202                 1.4038                 1.2981
 IR Inten    --      8.3780                12.4910                13.6523

                     52                     53                     54
                      A                      A                      A
 Frequencies --   1120.8003              1134.7505              1176.0173
 Red. masses --      1.6002                 4.2118                 1.5306
 Frc consts  --      1.1843                 3.1953                 1.2472
 IR Inten    --     24.4293                 8.7765                 5.7626

                     55                     56                     57
                      A                      A                      A
 Frequencies --   1201.0003              1230.8361              1242.0566
 Red. masses --      1.1394                 2.8285                 1.5367
 Frc consts  --      0.9683                 2.5247                 1.3968
 IR Inten    --      1.5999                72.0241                 6.5277

                     58                     59                     60
                      A                      A                      A
 Frequencies --   1264.1201              1300.5334              1302.8204
 Red. masses --      1.5357                 3.4982                 2.7021
 Frc consts  --      1.4459                 3.4860                 2.7022
 IR Inten    --    101.6817                68.7901                26.1401

                     61                     62                     63
                      A                      A                      A
 Frequencies --   1321.9545              1364.6571              1368.6696
 Red. masses --      1.9334                 1.3398                 5.3828
 Frc consts  --      1.9907                 1.4701                 5.9410
 IR Inten    --     12.4306                28.1671                19.5105

                     64                     65                     66
                      A                      A                      A
 Frequencies --   1392.9828              1400.7670              1411.1454
 Red. masses --      1.3838                10.2332                 1.8376
 Frc consts  --      1.5820                11.8302                 2.1560
 IR Inten    --     17.8328               269.0254                77.6093

                     67                     68                     69
                      A                      A                      A
 Frequencies --   1414.8624              1474.9384              1483.6816
 Red. masses --      1.5080                 2.5566                 1.1110
 Frc consts  --      1.7786                 3.2769                 1.4409
 IR Inten    --     69.7617                19.8560                 5.5575

                     70                     71                     72
                      A                      A                      A
 Frequencies --   1490.6590              1498.0858              1503.0195
 Red. masses --      1.1418                 2.5592                 1.0629
 Frc consts  --      1.4948                 3.3840                 1.4148
 IR Inten    --     18.7865                11.6786                17.7788

                     73                     74                     75
                      A                      A                      A
 Frequencies --   1530.5624              1535.2913              1622.1726
 Red. masses --      2.3159                 2.5103                 5.1614
 Frc consts  --      3.1965                 3.4863                 8.0022
 IR Inten    --     25.0077               162.9077                64.7815

                     76                     77                     78
                      A                      A                      A
 Frequencies --   1629.7213              1638.4008              1646.6448
 Red. masses --      7.3169                 6.7073                 6.1046
 Frc consts  --     11.4500                10.6081                 9.7523
 IR Inten    --    145.5225               182.6210                12.1960

                     79                     80                     81
                      A                      A                      A
 Frequencies --   1681.7859              1821.8688              3059.7668
 Red. masses --      8.2325                10.7034                 1.0373
 Frc consts  --     13.7190                20.9317                 5.7218
 IR Inten    --      3.5201               164.3621                 1.8827

                     82                     83                     84
                      A                      A                      A
 Frequencies --   3080.8394              3120.1814              3130.6504
 Red. masses --      1.0588                 1.0987                 1.1054
 Frc consts  --      5.9214                 6.3023                 6.3833
 IR Inten    --     14.7913                 4.4489                 7.1594

                     85                     86                     87
                      A                      A                      A
 Frequencies --   3174.7438              3186.1439              3189.6758
 Red. masses --      1.1031                 1.0872                 1.0908
 Frc consts  --      6.5509                 6.5025                 6.5386
 IR Inten    --      9.6113                23.7652                13.7980

                     88                     89                     90
                      A                      A                      A
 Frequencies --   3203.8354              3209.5940              3218.8834
 Red. masses --      1.0879                 1.0926                 1.0943
 Frc consts  --      6.5794                 6.6318                 6.6803
 IR Inten    --      9.0257                23.8652                 9.0548

                     91                     92                     93
                      A                      A                      A
 Frequencies --   3229.0435              3260.2867              3262.2952
 Red. masses --      1.0937                 1.0910                 1.0928
 Frc consts  --      6.7187                 6.8327                 6.8524
 IR Inten    --      4.8795                 4.6739                 3.5280

 - Thermochemistry -
 -------------------
 Temperature   298.150 Kelvin.  Pressure   1.00000 Atm.
 Atom     1 has atomic number  6 and mass  12.00000

 Molecular mass:   271.09569 amu.
 Principal axes and moments of inertia in atomic units:
                           1         2         3
     Eigenvalues --  3954.257547334.270629080.33735
           X            0.99972   0.01997  -0.01308
           Y           -0.02004   0.99978  -0.00575
           Z            0.01296   0.00601   0.99990
 This molecule is an asymmetric top.
 Rotational symmetry number  1.
 Warning -- assumption of classical behavior for rotation
           may cause significant error
 Rotational temperatures (Kelvin)      0.02190     0.01181     0.00954
 Rotational constants (GHZ):           0.45640     0.24607     0.19875
 Zero-point vibrational energy     671065.3 (Joules/Mol)
                                  160.38845 (Kcal/Mol)
 Warning -- explicit consideration of  26 degrees of freedom as
           vibrations may cause significant error
 Vibrational temperatures:     36.48    60.08    66.85    73.96    88.82
          (Kelvin)            103.17   130.05   250.77   257.54   262.00
                              278.28   356.46   397.47   427.10   483.62
                              526.46   555.57   610.04   617.06   638.28
                              645.17   738.92   769.98   779.78   804.55
                              888.80   909.05   932.76   997.10  1017.62
                             1046.27  1082.00  1096.95  1139.12  1176.58
                             1181.10  1210.75  1287.38  1322.67  1333.29
                             1353.73  1364.87  1384.98  1415.89  1424.08
                             1456.94  1472.05  1482.89  1553.81  1580.97
                             1607.80  1612.58  1632.65  1692.03  1727.97
                             1770.90  1787.04  1818.79  1871.18  1874.47
                             1902.00  1963.44  1969.21  2004.19  2015.39
                             2030.32  2035.67  2122.11  2134.69  2144.73
                             2155.41  2162.51  2202.14  2208.94  2333.94
                             2344.81  2357.29  2369.15  2419.71  2621.26
                             4402.32  4432.64  4489.25  4504.31  4567.75
                             4584.15  4589.23  4609.60  4617.89  4631.26
                             4645.87  4690.83  4693.72

 Zero-point correction=                           0.255595 (Hartree/Particle)
 Thermal correction to Energy=                    0.272882
 Thermal correction to Enthalpy=                  0.273827
 Thermal correction to Gibbs Free Energy=         0.208196
 Sum of electronic and zero-point Energies=           -930.947837
 Sum of electronic and thermal Energies=              -930.930550
 Sum of electronic and thermal Enthalpies=            -930.929606
 Sum of electronic and thermal Free Energies=         -930.995237

                     E (Thermal)             CV                S
                      KCal/Mol        Cal/Mol-Kelvin    Cal/Mol-Kelvin
 Total                  171.236             65.305            138.131
 Electronic               0.000              0.000              0.000
 Translational            0.889              2.981             42.691
 Rotational               0.889              2.981             33.931
 Vibrational            169.459             59.343             61.509
 Vibration     1          0.593              1.985              6.163
 Vibration     2          0.594              1.980              5.174
 Vibration     3          0.595              1.979              4.963
 Vibration     4          0.596              1.977              4.763
 Vibration     5          0.597              1.973              4.401
 Vibration     6          0.598              1.967              4.106
 Vibration     7          0.602              1.956              3.652
 Vibration     8          0.627              1.874              2.389
 Vibration     9          0.629              1.868              2.339
 Vibration    10          0.630              1.864              2.307
 Vibration    11          0.635              1.849              2.195
 Vibration    12          0.661              1.767              1.747
 Vibration    13          0.678              1.717              1.557
 Vibration    14          0.690              1.680              1.435
 Vibration    15          0.717              1.603              1.230
 Vibration    16          0.739              1.542              1.097
 Vibration    17          0.755              1.500              1.015
 Vibration    18          0.786              1.418              0.878
 Vibration    19          0.790              1.407              0.862
 Vibration    20          0.803              1.375              0.815
 Vibration    21          0.807              1.364              0.801
 Vibration    22          0.869              1.220              0.625
 Vibration    23          0.890              1.172              0.576
 Vibration    24          0.897              1.157              0.561
 Vibration    25          0.915              1.120              0.525
 Vibration    26          0.978              0.994              0.420

                           ! Non-Optimized Parameters !
 Normal termination of Gaussian 16 at Sat Dec 12 15:58:09 2020.

 ----------------------------------------------------------------------
 # B3LYP/6-311++G(d,p) empiricaldispersion=gd3bj scf=xqc pop=npa geom=c
 heck
 ----------------------------------------------------------------------

 ----------------------------------------
 CID_138436106_JID_10405_Energie_neutraal
 ----------------------------------------
 Structure from the checkpoint file:  "JID_10405.chk"
 Charge =  0 Multiplicity = 1

 SCF Done:  E(RB3LYP) =  -931.457953454     A.U. after   16 cycles
 Normal termination of Gaussian 16 at Sat Dec 12 16:05:55 2020.

 ----------------------------------------------------------------------
 # B3LYP/6-311++G(d,p) empiricaldispersion=gd3bj scf=xqc pop=npa geom=c
 heck
 ----------------------------------------------------------------------

 --------------------------------------
 CID_138436106_JID_10405_Energie_kation
 --------------------------------------
 Structure from the checkpoint file:  "JID_10405.chk"
 Charge =  1 Multiplicity = 2

 SCF Done:  E(UB3LYP) =  -931.172656246     A.U. after   26 cycles
 Normal termination of Gaussian 16 at Sat Dec 12 16:23:30 2020.
 Gaussian 16:  ES64L-G16RevA.03 25-Dec-2016

 ----------------------------------------------------------------------
 # B3LYP/6-311++G(d,p) empiricaldispersion=gd3bj scf=xqc pop=npa geom=c
 heck
 ----------------------------------------------------------------------

 -------------------------------------
 CID_138436106_JID_10405_Energie_anion
 -------------------------------------
 Structure from the checkpoint file:  "JID_10405.chk"
 Charge = -1 Multiplicity = 2

                         Standard orientation:
 ---------------------------------------------------------------------
 Center     Atomic      Atomic             Coordinates (Angstroms)
 Number     Number       Type             X           Y           Z
 ---------------------------------------------------------------------
      1          6           0        0.990126   -1.923048   -1.910442
      2          6           0        1.932979   -2.345316   -0.806178
      3          8           0        2.893208   -3.065181   -0.991609
      4          6           0        1.627126   -1.852777    0.622892
      5          7           0        0.928153   -0.580021    0.715824
      6          6           0       -0.484856   -0.578789    0.794815
      7          6           0       -1.253364    0.165125   -0.109970
      8          6           0       -2.638102    0.121285   -0.013440
      9          6           0       -3.305866   -0.648458    0.935399
     10          6           0       -2.534125   -1.392385    1.824675
     11          6           0       -1.141904   -1.351463    1.765945
     12          7           0       -3.429912    0.906011   -0.977826
     13          8           0       -2.818090    1.558676   -1.821775
     14          8           0       -4.654769    0.857098   -0.880021
     15          6           0        1.648815    0.602284    0.477408
     16          6           0        1.142712    1.854445    0.887157
     17          7           0        1.783387    3.007472    0.718959
     18          6           0        2.990875    2.982196    0.137076
     19          6           0        3.594725    1.801123   -0.283428
     20          6           0        2.921310    0.593091   -0.113961
     21          1           0        1.246647   -2.452167   -2.829556
     22          1           0        1.073812   -0.842298   -2.075993
     23          1           0       -0.052122   -2.120888   -1.636674
     24          1           0        1.007360   -2.625668    1.087487
     25          1           0        2.569456   -1.818657    1.177525
     26          1           0       -0.790972    0.771287   -0.877311
     27          1           0       -4.387287   -0.649887    0.965259
     28          1           0       -3.020453   -1.994993    2.585104
     29          1           0       -0.555009   -1.908495    2.489309
     30          1           0        0.174741    1.910665    1.378359
     31          1           0        3.489357    3.940937    0.016366
     32          1           0        4.578984    1.817091   -0.741205
     33          1           0        3.388593   -0.329771   -0.437815
 ---------------------------------------------------------------------

 SCF Done:  E(UB3LYP) =  -931.507772362     A.U. after   23 cycles

 The electronic state is 2-A.
 Alpha  occ. eigenvalues --  -19.04032 -18.95709 -18.95706 -14.33627 -14.25399
 Alpha  occ. eigenvalues --  -14.21912 -10.18641 -10.13645 -10.13270 -10.11054
 Alpha  occ. eigenvalues --  -10.10981 -10.10360 -10.09854 -10.09725 -10.08996
 Alpha  occ. eigenvalues --  -10.07448 -10.06162 -10.05319 -10.05148 -10.04821
 Alpha  occ. eigenvalues --   -1.03803  -0.97392  -0.87935  -0.86704  -0.84709
 Alpha  occ. eigenvalues --   -0.74566  -0.71436  -0.68909  -0.66891  -0.65036
 Alpha  occ. eigenvalues --   -0.64560  -0.60561  -0.55129  -0.54847  -0.53633
 Alpha  occ. eigenvalues --   -0.49316  -0.47332  -0.45918  -0.43705  -0.41587
 Alpha  occ. eigenvalues --   -0.41059  -0.39703  -0.38901  -0.37716  -0.36731
 Alpha  occ. eigenvalues --   -0.36039  -0.35742  -0.35570  -0.35109  -0.34373
 Alpha  occ. eigenvalues --   -0.32929  -0.32089  -0.31937  -0.31171  -0.31118
 Alpha  occ. eigenvalues --   -0.30658  -0.28946  -0.27934  -0.26319  -0.25613
 Alpha  occ. eigenvalues --   -0.24395  -0.23060  -0.19758  -0.18170  -0.16988
 Alpha  occ. eigenvalues --   -0.16284  -0.14889  -0.14432  -0.13427  -0.11455
 Alpha  occ. eigenvalues --   -0.10491   0.01329
 Alpha virt. eigenvalues --    0.04542   0.05878   0.06595   0.07039   0.07533
 Alpha virt. eigenvalues --    0.08477   0.09116   0.09624   0.10290   0.10742
 Alpha virt. eigenvalues --    0.11203   0.11822   0.12150   0.12340   0.12691

  Beta  occ. eigenvalues --  -19.04020 -18.95252 -18.95247 -14.33081 -14.25405
  Beta  occ. eigenvalues --  -14.21877 -10.18628 -10.13649 -10.13268 -10.11056
  Beta  occ. eigenvalues --  -10.10983 -10.10416 -10.09832 -10.09717 -10.08993
  Beta  occ. eigenvalues --  -10.07310 -10.06206 -10.05046 -10.05017 -10.04687
  Beta  occ. eigenvalues --   -1.02842  -0.97368  -0.87933  -0.85844  -0.84672
  Beta  occ. eigenvalues --   -0.74294  -0.71374  -0.68882  -0.66760  -0.64694
  Beta  occ. eigenvalues --   -0.64324  -0.60436  -0.54849  -0.54320  -0.53381
  Beta  occ. eigenvalues --   -0.49254  -0.47173  -0.45812  -0.43638  -0.41221
  Beta  occ. eigenvalues --   -0.41041  -0.39502  -0.38840  -0.37670  -0.36597
  Beta  occ. eigenvalues --   -0.35554  -0.35266  -0.34961  -0.34340  -0.33212
  Beta  occ. eigenvalues --   -0.32819  -0.31961  -0.31631  -0.31086  -0.31005
  Beta  occ. eigenvalues --   -0.30614  -0.28922  -0.27855  -0.26021  -0.25216
  Beta  occ. eigenvalues --   -0.24206  -0.22822  -0.19631  -0.18145  -0.16932
  Beta  occ. eigenvalues --   -0.15803  -0.13344  -0.12954  -0.11590  -0.10993
  Beta  occ. eigenvalues --   -0.09981
  Beta virt. eigenvalues --    0.04679   0.05787   0.06582   0.07131   0.07511
  Beta virt. eigenvalues --    0.08307   0.08457   0.09093   0.09600   0.10431
  Beta virt. eigenvalues --    0.10968   0.11219   0.11826   0.12170   0.12347

 Mulliken charges and spin densities:
               1          2
     1  C   -0.447665  -0.016895
     2  C   -0.012335   0.013982
     3  O   -0.234539   0.004179
     4  C   -0.277235   0.002492
     5  N    0.432447   0.006198
     6  C   -0.093896  -0.042575
     7  C   -0.474374   0.115147
     8  C   -0.328322   0.015657
     9  C   -0.088249   0.146891
    10  C   -0.234192  -0.027966
    11  C   -0.350499   0.230065
    12  N   -0.240922   0.183342
    13  O   -0.169145   0.175982
    14  O   -0.156749   0.173396
    15  C    0.259354  -0.001729
    16  C   -0.834580   0.004330
    17  N   -0.002160   0.013912
    18  C   -0.269974   0.000442
    19  C   -0.360862   0.001465
    20  C    0.548176   0.012326
    21  H    0.182588   0.002365
    22  H    0.160571   0.006096
    23  H    0.181089   0.002996
    24  H    0.169192   0.008291
    25  H    0.210035   0.000977
    26  H    0.225960  -0.006748
    27  H    0.209828  -0.008306
    28  H    0.139674   0.002137
    29  H    0.110849  -0.017971
    30  H    0.239852   0.000926
    31  H    0.157932  -0.000071
    32  H    0.158931  -0.000278
    33  H    0.189221  -0.001057
 Sum of Mulliken charges =  -1.00000   1.00000

 Dipole moment (field-independent basis, Debye):
    X=              9.3487    Y=             -4.3309    Z=              3.0882  Tot=             10.7561
 Quadrupole moment (field-independent basis, Debye-Ang):
   XX=           -184.2359   YY=           -148.5141   ZZ=           -132.4228
   XY=             20.7563   XZ=            -14.5883   YZ=              0.2754

 Summary of Natural Population Analysis:

                                       Natural Population
                Natural  -----------------------------------------------
    Atom  No    Charge         Core      Valence    Rydberg      Total
 -----------------------------------------------------------------------
      C    1   -0.34246      0.99961     2.33816    0.00470     3.34246
      C    2    0.29070      0.99970     1.68927    0.02034     2.70930
      O    3   -0.29033      0.99987     3.28206    0.00839     4.29033
      C    4   -0.12963      0.99956     2.11995    0.01012     3.12963
      N    5   -0.25108      0.99962     2.73933    0.01213     3.75108
      C    6    0.05659      0.99947     1.93138    0.01256     2.94341
      C    7   -0.08792      0.99947     2.07965    0.00879     3.08792
      C    8    0.06944      0.99940     1.91966    0.01150     2.93056
      C    9   -0.07628      0.99953     2.06683    0.00992     3.07628
      C   10   -0.11374      0.99958     2.10529    0.00887     3.11374
      C   11   -0.06687      0.99952     2.05940    0.00794     3.06687
      N   12    0.29670      0.99972     2.17606    0.02751     3.20330
      O   13   -0.19121      0.99990     3.18341    0.00791     4.19121
      O   14   -0.19136      0.99990     3.18355    0.00792     4.19136
      C   15    0.07474      0.99948     1.91357    0.01222     2.92526
      C   16    0.01756      0.99956     1.97007    0.01281     2.98244
      N   17   -0.21785      0.99972     2.70712    0.01101     3.71785
      C   18   -0.00159      0.99960     1.98735    0.01465     3.00159
      C   19   -0.11402      0.99957     2.10619    0.00826     3.11402
      C   20   -0.12022      0.99953     2.11303    0.00766     3.12022
      H   21    0.10753      0.00000     0.39132    0.00115     0.39247
      H   22    0.12041      0.00000     0.37874    0.00086     0.37959
      H   23    0.12134      0.00000     0.37787    0.00079     0.37866
      H   24    0.11926      0.00000     0.37975    0.00099     0.38074
      H   25    0.10647      0.00000     0.39223    0.00130     0.39353
      H   26    0.11906      0.00000     0.37933    0.00161     0.38094
      H   27    0.11393      0.00000     0.38486    0.00121     0.38607
      H   28    0.09399      0.00000     0.40502    0.00099     0.40601
      H   29    0.09148      0.00000     0.40721    0.00131     0.40852
      H   30    0.10321      0.00000     0.39548    0.00131     0.39679
      H   31    0.08721      0.00000     0.41166    0.00113     0.41279
      H   32    0.09968      0.00000     0.39931    0.00102     0.40032
      H   33    0.10527      0.00000     0.39340    0.00133     0.39473
 =======================================================================
   * Total *   -0.00000     19.99231    50.76751    0.24019    71.00000

 Normal termination of Gaussian 16 at Sat Dec 12 16:38:53 2020.
