 Gaussian 16, Revision A.03,

 -----------------------------------------------------------
 # opt freq B3LYP/6-31G(d) empiricaldispersion=gd3bj scf=xqc
 -----------------------------------------------------------

 -------------------------------
 CID_117402686_JID_9491_neutraal
 -------------------------------
 Symbolic Z-matrix:
 Charge =  0 Multiplicity = 1

 SCF Done:  E(RB3LYP) =  -823.753569657     A.U. after   14 cycles
 SCF Done:  E(RB3LYP) =  -823.760222081     A.U. after   12 cycles
 SCF Done:  E(RB3LYP) =  -823.759703483     A.U. after   13 cycles
 SCF Done:  E(RB3LYP) =  -823.761387275     A.U. after   12 cycles
 SCF Done:  E(RB3LYP) =  -823.761740530     A.U. after   12 cycles
 SCF Done:  E(RB3LYP) =  -823.761921816     A.U. after   12 cycles
 SCF Done:  E(RB3LYP) =  -823.762076308     A.U. after   10 cycles
 SCF Done:  E(RB3LYP) =  -823.762242055     A.U. after   11 cycles
 SCF Done:  E(RB3LYP) =  -823.762323192     A.U. after   11 cycles
 SCF Done:  E(RB3LYP) =  -823.762390869     A.U. after   11 cycles
 SCF Done:  E(RB3LYP) =  -823.762474404     A.U. after    7 cycles
 SCF Done:  E(RB3LYP) =  -823.762474598     A.U. after    6 cycles
 SCF Done:  E(RB3LYP) =  -823.762474846     A.U. after    7 cycles
 SCF Done:  E(RB3LYP) =  -823.762474979     A.U. after    7 cycles
 SCF Done:  E(RB3LYP) =  -823.762474995     A.U. after    7 cycles
 Optimization completed.
    -- Stationary point found.
 Normal termination of Gaussian 16 at Sat Dec 12 09:53:45 2020.

 --------------------------------------------------------------------
 #N Geom=AllCheck Guess=TCheck SCRF=Check GenChk RB3LYP/6-31G(d) Freq
 --------------------------------------------------------------------

 Structure from the checkpoint file:  "JID_9491.chk"
 -------------------------------
 CID_117402686_JID_9491_neutraal
 -------------------------------
 Charge =  0 Multiplicity = 1

 SCF Done:  E(RB3LYP) =  -823.762474995     A.U. after    1 cycles

  Exact polarizability: 221.095  -5.670 186.244  21.409  12.142 125.152
 Approx polarizability: 316.669 -11.187 303.544  49.443  24.586 196.916

                      1                      2                      3
                      A                      A                      A
 Frequencies --     30.7822                33.7345                41.4293
 Red. masses --      2.9550                 3.9220                 4.1705
 Frc consts  --      0.0016                 0.0026                 0.0042
 IR Inten    --      2.2212                 0.2711                 3.1196

                      4                      5                      6
                      A                      A                      A
 Frequencies --     78.0058                90.9938               114.6170
 Red. masses --      2.1548                 1.7597                 2.6432
 Frc consts  --      0.0077                 0.0086                 0.0205
 IR Inten    --      0.4522                 0.1239                 0.9717

                      7                      8                      9
                      A                      A                      A
 Frequencies --    134.0017               171.8417               186.1802
 Red. masses --      3.6209                 4.0424                 3.1777
 Frc consts  --      0.0383                 0.0703                 0.0649
 IR Inten    --      0.7078                 6.7354                 1.5038

                     10                     11                     12
                      A                      A                      A
 Frequencies --    212.7520               234.6676               257.7436
 Red. masses --      3.0639                 3.3379                 2.4805
 Frc consts  --      0.0817                 0.1083                 0.0971
 IR Inten    --      0.0587                 1.2388                 0.7861

                     13                     14                     15
                      A                      A                      A
 Frequencies --    269.1958               291.0510               299.9220
 Red. masses --      3.1477                 1.2055                 2.5588
 Frc consts  --      0.1344                 0.0602                 0.1356
 IR Inten    --      0.3436                 0.0193                 1.9071

                     16                     17                     18
                      A                      A                      A
 Frequencies --    312.2302               367.1465               402.2385
 Red. masses --      2.8860                 3.3953                 2.9330
 Frc consts  --      0.1658                 0.2697                 0.2796
 IR Inten    --      7.5157                 2.4881                 4.4610

                     19                     20                     21
                      A                      A                      A
 Frequencies --    431.3405               442.0885               449.4973
 Red. masses --      5.7645                 1.9946                 2.4085
 Frc consts  --      0.6319                 0.2297                 0.2867
 IR Inten    --      2.5999                 1.9720                 3.9034

                     22                     23                     24
                      A                      A                      A
 Frequencies --    479.9452               520.0305               525.5841
 Red. masses --      2.5984                 3.7649                 4.3949
 Frc consts  --      0.3526                 0.5999                 0.7153
 IR Inten    --      0.0490                 6.9102                11.0669

                     25                     26                     27
                      A                      A                      A
 Frequencies --    548.0044               582.0551               601.9409
 Red. masses --      3.8647                 2.9832                 2.1627
 Frc consts  --      0.6838                 0.5955                 0.4617
 IR Inten    --      2.6786                 1.0583                 5.4582

                     28                     29                     30
                      A                      A                      A
 Frequencies --    618.8087               665.2680               683.2360
 Red. masses --      4.0858                 4.0924                 5.4246
 Frc consts  --      0.9218                 1.0671                 1.4920
 IR Inten    --      3.6067                 2.2181                 1.1346

                     31                     32                     33
                      A                      A                      A
 Frequencies --    702.2752               716.7589               762.4081
 Red. masses --      1.8087                 2.1256                 2.8328
 Frc consts  --      0.5256                 0.6434                 0.9702
 IR Inten    --     21.9716                48.0843                 8.8943

                     34                     35                     36
                      A                      A                      A
 Frequencies --    786.0537               801.4589               827.2923
 Red. masses --      3.4903                 2.3659                 2.1696
 Frc consts  --      1.2706                 0.8954                 0.8749
 IR Inten    --      6.3434                12.0412                 1.7059

                     37                     38                     39
                      A                      A                      A
 Frequencies --    828.3176               831.6031               837.7309
 Red. masses --      2.6343                 1.8504                 1.6390
 Frc consts  --      1.0649                 0.7540                 0.6777
 IR Inten    --    107.2802                 4.5476                 0.6755

                     40                     41                     42
                      A                      A                      A
 Frequencies --    881.7917               901.1170               922.9914
 Red. masses --      2.4222                 1.5029                 1.2946
 Frc consts  --      1.1097                 0.7190                 0.6498
 IR Inten    --      4.1403                63.8874                 1.1116

                     43                     44                     45
                      A                      A                      A
 Frequencies --    953.9453               979.5327              1000.2159
 Red. masses --      2.4369                 4.4670                 2.5935
 Frc consts  --      1.3066                 2.5253                 1.5287
 IR Inten    --      2.9142                14.0467                 6.1532

                     46                     47                     48
                      A                      A                      A
 Frequencies --   1016.1521              1040.3552              1050.1546
 Red. masses --      2.7282                 1.6015                 2.4970
 Frc consts  --      1.6598                 1.0213                 1.6224
 IR Inten    --     11.3245                12.2012                26.6916

                     49                     50                     51
                      A                      A                      A
 Frequencies --   1052.5257              1098.0739              1112.3557
 Red. masses --      2.0719                 2.2448                 3.7719
 Frc consts  --      1.3523                 1.5948                 2.7498
 IR Inten    --      5.5407                19.6320                53.6597

                     52                     53                     54
                      A                      A                      A
 Frequencies --   1129.5441              1137.3154              1162.0542
 Red. masses --      1.2287                 4.4578                 1.2909
 Frc consts  --      0.9236                 3.3973                 1.0270
 IR Inten    --     14.2443                19.0324                 0.1682

                     55                     56                     57
                      A                      A                      A
 Frequencies --   1168.1099              1184.9299              1186.6534
 Red. masses --      2.2366                 1.3740                 1.3058
 Frc consts  --      1.7981                 1.1367                 1.0834
 IR Inten    --     13.5461                 1.5457                 2.1833

                     58                     59                     60
                      A                      A                      A
 Frequencies --   1209.3017              1211.4687              1220.6281
 Red. masses --      1.8640                 1.9837                 1.1122
 Frc consts  --      1.6060                 1.7153                 0.9763
 IR Inten    --     11.1394                32.3287                 1.0782

                     61                     62                     63
                      A                      A                      A
 Frequencies --   1239.3278              1257.4338              1271.8299
 Red. masses --      2.0637                 2.1642                 1.3298
 Frc consts  --      1.8675                 2.0161                 1.2673
 IR Inten    --      0.9565                14.7718                14.9384

                     64                     65                     66
                      A                      A                      A
 Frequencies --   1292.6864              1331.6572              1354.0476
 Red. masses --      2.3867                 2.8241                 1.3198
 Frc consts  --      2.3498                 2.9506                 1.4257
 IR Inten    --     95.7956               190.1649                 2.3879

                     67                     68                     69
                      A                      A                      A
 Frequencies --   1363.7344              1366.6153              1388.8550
 Red. masses --      3.3295                 1.2721                 1.6812
 Frc consts  --      3.6483                 1.3998                 1.9107
 IR Inten    --     31.0430                 1.0912                 2.3978

                     70                     71                     72
                      A                      A                      A
 Frequencies --   1391.3745              1394.1231              1398.8542
 Red. masses --      1.4893                 1.5289                 1.3527
 Frc consts  --      1.6987                 1.7508                 1.5595
 IR Inten    --     10.8460                55.6314                 4.3350

                     73                     74                     75
                      A                      A                      A
 Frequencies --   1415.7401              1418.7055              1429.7818
 Red. masses --      2.1778                 1.2761                 1.4797
 Frc consts  --      2.5717                 1.5133                 1.7822
 IR Inten    --     28.8488                18.1366                14.6841

                     76                     77                     78
                      A                      A                      A
 Frequencies --   1437.4345              1474.6881              1478.9021
 Red. masses --      3.3914                 2.0181                 1.6947
 Frc consts  --      4.1287                 2.5859                 2.1838
 IR Inten    --      5.6677                16.9679                49.6507

                     79                     80                     81
                      A                      A                      A
 Frequencies --   1489.9765              1495.8492              1503.1060
 Red. masses --      1.0978                 1.0932                 1.3595
 Frc consts  --      1.4359                 1.4412                 1.8098
 IR Inten    --     10.9855                 7.2059                 1.6883

                     82                     83                     84
                      A                      A                      A
 Frequencies --   1506.3685              1506.7976              1508.5086
 Red. masses --      1.2115                 1.1198                 1.0417
 Frc consts  --      1.6197                 1.4979                 1.3966
 IR Inten    --     17.0944                 2.1736                 6.6968

                     85                     86                     87
                      A                      A                      A
 Frequencies --   1511.2013              1516.9996              1522.3318
 Red. masses --      1.1800                 1.0992                 1.0594
 Frc consts  --      1.5877                 1.4903                 1.4466
 IR Inten    --      4.2004                 0.4977                 8.7454

                     88                     89                     90
                      A                      A                      A
 Frequencies --   1534.9254              1542.1483              1548.0503
 Red. masses --      2.2251                 1.0502                 1.1080
 Frc consts  --      3.0887                 1.4715                 1.5644
 IR Inten    --     83.3368                17.2486                20.3139

                     91                     92                     93
                      A                      A                      A
 Frequencies --   1582.0615              1629.1061              1663.7538
 Red. masses --      4.3856                 5.8598                 7.6939
 Frc consts  --      6.4673                 9.1629                12.5480
 IR Inten    --     16.7116                28.4894                33.7211

                     94                     95                     96
                      A                      A                      A
 Frequencies --   2969.5578              2977.1251              3036.0499
 Red. masses --      1.0720                 1.0723                 1.0684
 Frc consts  --      5.5696                 5.5996                 5.8026
 IR Inten    --     37.2594               150.0795                60.1293

                     97                     98                     99
                      A                      A                      A
 Frequencies --   3040.7500              3045.3607              3045.9805
 Red. masses --      1.0324                 1.0362                 1.0636
 Frc consts  --      5.6244                 5.6620                 5.8142
 IR Inten    --     35.9145                56.4460                96.1986

                    100                    101                    102
                      A                      A                      A
 Frequencies --   3047.3163              3073.7681              3098.6863
 Red. masses --      1.0676                 1.0907                 1.1056
 Frc consts  --      5.8410                 6.0714                 6.2547
 IR Inten    --     35.3456                43.5931                24.2742

                    103                    104                    105
                      A                      A                      A
 Frequencies --   3107.0630              3107.4799              3109.4559
 Red. masses --      1.0925                 1.1007                 1.1068
 Frc consts  --      6.2140                 6.2625                 6.3053
 IR Inten    --      4.2836                24.3449                40.6982

                    106                    107                    108
                      A                      A                      A
 Frequencies --   3111.5151              3117.0336              3147.7384
 Red. masses --      1.0945                 1.0960                 1.1027
 Frc consts  --      6.2433                 6.2742                 6.4370
 IR Inten    --     38.9666                45.9184                29.1316

                    109                    110                    111
                      A                      A                      A
 Frequencies --   3154.7891              3178.3177              3209.6597
 Red. masses --      1.1007                 1.0877                 1.0933
 Frc consts  --      6.4544                 6.4735                 6.6361
 IR Inten    --     10.6391                12.8333                15.0077

                    112                    113                    114
                      A                      A                      A
 Frequencies --   3264.1329              3307.5445              3432.3603
 Red. masses --      1.0938                 1.0978                 1.0731
 Frc consts  --      6.8666                 7.0759                 7.4486
 IR Inten    --      1.2541                 6.3621                11.0333

 - Thermochemistry -
 -------------------
 Temperature   298.150 Kelvin.  Pressure   1.00000 Atm.
 Atom     1 has atomic number  6 and mass  12.00000

 Molecular mass:   259.16846 amu.
 Principal axes and moments of inertia in atomic units:
                           1         2         3
     Eigenvalues --  2808.998216564.110757503.03657
           X            0.99997  -0.00671   0.00240
           Y            0.00667   0.99983   0.01738
           Z           -0.00251  -0.01736   0.99985
 This molecule is an asymmetric top.
 Rotational symmetry number  1.
 Warning -- assumption of classical behavior for rotation
           may cause significant error
 Rotational temperatures (Kelvin)      0.03083     0.01320     0.01154
 Rotational constants (GHZ):           0.64249     0.27494     0.24053
 Zero-point vibrational energy     915969.3 (Joules/Mol)
                                  218.92192 (Kcal/Mol)
 Warning -- explicit consideration of  28 degrees of freedom as
           vibrations may cause significant error
 Vibrational temperatures:     44.29    48.54    59.61   112.23   130.92
          (Kelvin)            164.91   192.80   247.24   267.87   306.10
                              337.63   370.84   387.31   418.76   431.52
                              449.23   528.24   578.73   620.60   636.07
                              646.73   690.53   748.21   756.20   788.46
                              837.45   866.06   890.33   957.17   983.02
                             1010.42  1031.26  1096.94  1130.96  1153.12
                             1190.29  1191.76  1196.49  1205.31  1268.70
                             1296.51  1327.98  1372.51  1409.33  1439.09
                             1462.02  1496.84  1510.94  1514.35  1579.88
                             1600.43  1625.16  1636.34  1671.94  1680.65
                             1704.85  1707.33  1739.92  1743.03  1756.21
                             1783.12  1809.17  1829.88  1859.89  1915.96
                             1948.17  1962.11  1966.25  1998.25  2001.88
                             2005.83  2012.64  2036.93  2041.20  2057.14
                             2068.15  2121.75  2127.81  2143.74  2152.19
                             2162.63  2167.33  2167.95  2170.41  2174.28
                             2182.62  2190.30  2208.42  2218.81  2227.30
                             2276.23  2343.92  2393.77  4272.53  4283.42
                             4368.20  4374.96  4381.59  4382.49  4384.41
                             4422.47  4458.32  4470.37  4470.97  4473.81
                             4476.78  4484.72  4528.89  4539.04  4572.89
                             4617.98  4696.36  4758.82  4938.40

 Zero-point correction=                           0.348874 (Hartree/Particle)
 Thermal correction to Energy=                    0.366271
 Thermal correction to Enthalpy=                  0.367215
 Thermal correction to Gibbs Free Energy=         0.302964
 Sum of electronic and zero-point Energies=           -823.413601
 Sum of electronic and thermal Energies=              -823.396204
 Sum of electronic and thermal Enthalpies=            -823.395260
 Sum of electronic and thermal Free Energies=         -823.459511

                     E (Thermal)             CV                S
                      KCal/Mol        Cal/Mol-Kelvin    Cal/Mol-Kelvin
 Total                  229.839             68.140            135.229
 Electronic               0.000              0.000              0.000
 Translational            0.889              2.981             42.557
 Rotational               0.889              2.981             33.292
 Vibrational            228.061             62.178             59.380
 Vibration     1          0.594              1.984              5.778
 Vibration     2          0.594              1.983              5.597
 Vibration     3          0.594              1.981              5.190
 Vibration     4          0.599              1.964              3.940
 Vibration     5          0.602              1.956              3.639
 Vibration     6          0.608              1.937              3.189
 Vibration     7          0.613              1.919              2.888
 Vibration     8          0.626              1.877              2.415
 Vibration     9          0.632              1.859              2.266
 Vibration    10          0.644              1.821              2.020
 Vibration    11          0.654              1.788              1.843
 Vibration    12          0.667              1.750              1.677
 Vibration    13          0.674              1.730              1.601
 Vibration    14          0.687              1.690              1.468
 Vibration    15          0.692              1.674              1.417
 Vibration    16          0.701              1.650              1.350
 Vibration    17          0.740              1.540              1.092
 Vibration    18          0.768              1.465              0.954
 Vibration    19          0.792              1.402              0.854
 Vibration    20          0.802              1.378              0.820
 Vibration    21          0.808              1.362              0.797
 Vibration    22          0.836              1.295              0.710
 Vibration    23          0.875              1.206              0.610
 Vibration    24          0.881              1.193              0.597
 Vibration    25          0.903              1.144              0.548
 Vibration    26          0.939              1.070              0.482
 Vibration    27          0.960              1.028              0.446
 Vibration    28          0.979              0.992              0.418

                           ! Non-Optimized Parameters !
 Normal termination of Gaussian 16 at Sat Dec 12 10:18:42 2020.

 ----------------------------------------------------------------------
 # B3LYP/6-311++G(d,p) empiricaldispersion=gd3bj scf=xqc pop=npa geom=c
 heck
 ----------------------------------------------------------------------

 ---------------------------------------
 CID_117402686_JID_9491_Energie_neutraal
 ---------------------------------------
 Structure from the checkpoint file:  "JID_9491.chk"
 Charge =  0 Multiplicity = 1

 SCF Done:  E(RB3LYP) =  -823.981981526     A.U. after   16 cycles
 Normal termination of Gaussian 16 at Sat Dec 12 10:30:17 2020.

 ----------------------------------------------------------------------
 # B3LYP/6-311++G(d,p) empiricaldispersion=gd3bj scf=xqc pop=npa geom=c
 heck
 ----------------------------------------------------------------------

 -------------------------------------
 CID_117402686_JID_9491_Energie_kation
 -------------------------------------
 Structure from the checkpoint file:  "JID_9491.chk"
 Charge =  1 Multiplicity = 2

 SCF Done:  E(UB3LYP) =  -823.744151211     A.U. after   23 cycles
 Normal termination of Gaussian 16 at Sat Dec 12 10:53:37 2020.
 Gaussian 16:  ES64L-G16RevA.03 25-Dec-2016

 ----------------------------------------------------------------------
 # B3LYP/6-311++G(d,p) empiricaldispersion=gd3bj scf=xqc pop=npa geom=c
 heck
 ----------------------------------------------------------------------

 ------------------------------------
 CID_117402686_JID_9491_Energie_anion
 ------------------------------------
 Structure from the checkpoint file:  "JID_9491.chk"
 Charge = -1 Multiplicity = 2

                         Standard orientation:
 ---------------------------------------------------------------------
 Center     Atomic      Atomic             Coordinates (Angstroms)
 Number     Number       Type             X           Y           Z
 ---------------------------------------------------------------------
      1          6           0        4.370663   -1.670195    0.536431
      2          7           0        3.469015   -0.550541    0.382951
      3          6           0        3.710348    0.756060    0.762097
      4          6           0        2.632620    1.540812    0.455529
      5          6           0        1.637905    0.686520   -0.154212
      6          6           0        2.211665   -0.622627   -0.182245
      7          6           0        1.565699   -1.735296   -0.725334
      8          6           0        0.296314   -1.527493   -1.244274
      9          6           0       -0.338175   -0.272025   -1.219306
     10          6           0        0.338202    0.837132   -0.691192
     11          8           0       -0.359498    2.016535   -0.752692
     12          6           0        0.099033    3.162817   -0.059288
     13          6           0       -1.761606   -0.143776   -1.748175
     14          7           0       -2.875943   -0.302435   -0.813488
     15          6           0       -3.004880   -1.600900   -0.158976
     16          6           0       -2.286014   -1.692986    1.199370
     17          7           0       -2.655251   -0.599685    2.109720
     18          6           0       -2.452656    0.699817    1.454224
     19          6           0       -3.167390    0.802860    0.095364
     20          1           0        3.918190   -2.454046    1.154940
     21          1           0        4.631112   -2.100558   -0.437856
     22          1           0        5.285680   -1.325809    1.022500
     23          1           0        4.648997    1.019798    1.229421
     24          1           0        2.573993    2.597964    0.653109
     25          1           0        2.035955   -2.712856   -0.749035
     26          1           0       -0.243097   -2.363567   -1.682413
     27          1           0        0.291720    2.943529    0.996850
     28          1           0        1.002235    3.578514   -0.520641
     29          1           0       -0.707672    3.895234   -0.133749
     30          1           0       -1.886919    0.829519   -2.230444
     31          1           0       -1.895089   -0.907664   -2.525414
     32          1           0       -4.079110   -1.787815    0.012132
     33          1           0       -2.650086   -2.379673   -0.844972
     34          1           0       -1.201502   -1.651693    1.053462
     35          1           0       -2.519473   -2.648071    1.687396
     36          1           0       -3.648976   -0.692259    2.331330
     37          1           0       -1.374794    0.835009    1.321763
     38          1           0       -2.805363    1.490872    2.128815
     39          1           0       -2.920021    1.743176   -0.405597
     40          1           0       -4.254913    0.802430    0.285576
 ---------------------------------------------------------------------

 SCF Done:  E(UB3LYP) =  -823.969783381     A.U. after   33 cycles
 SCF Done:  E(UB3LYP) =  -823.969783381     a.u. after    1 cycles

 The electronic state is 2-A.
 Alpha  occ. eigenvalues --  -19.06295 -14.26700 -14.21058 -14.20890 -10.14351
 Alpha  occ. eigenvalues --  -10.13395 -10.11270 -10.11200 -10.10800 -10.10527
 Alpha  occ. eigenvalues --  -10.10428 -10.09944 -10.09711 -10.09567 -10.08644
 Alpha  occ. eigenvalues --  -10.07876 -10.07591 -10.07441 -10.07050  -0.97853
 Alpha  occ. eigenvalues --   -0.89661  -0.84802  -0.79881  -0.75570  -0.71053
 Alpha  occ. eigenvalues --   -0.67664  -0.66935  -0.64795  -0.61728  -0.61340
 Alpha  occ. eigenvalues --   -0.58383  -0.55066  -0.54973  -0.51684  -0.50067
 Alpha  occ. eigenvalues --   -0.48358  -0.47638  -0.43886  -0.41341  -0.40815
 Alpha  occ. eigenvalues --   -0.39005  -0.38625  -0.38281  -0.37262  -0.37105
 Alpha  occ. eigenvalues --   -0.36870  -0.36455  -0.35346  -0.34992  -0.33413
 Alpha  occ. eigenvalues --   -0.32776  -0.31218  -0.30663  -0.30272  -0.29987
 Alpha  occ. eigenvalues --   -0.29469  -0.29013  -0.28268  -0.26857  -0.26547
 Alpha  occ. eigenvalues --   -0.25784  -0.25072  -0.24698  -0.23837  -0.21810
 Alpha  occ. eigenvalues --   -0.17150  -0.16152  -0.13413  -0.10726  -0.09932
 Alpha  occ. eigenvalues --    0.04010
 Alpha virt. eigenvalues --    0.05402   0.05927   0.06964   0.07316   0.07442
 Alpha virt. eigenvalues --    0.07906   0.08685   0.08976   0.09544   0.09682
 Alpha virt. eigenvalues --    0.09853   0.10241   0.10668   0.11306   0.11559

  Beta  occ. eigenvalues --  -19.06291 -14.26698 -14.21056 -14.20886 -10.14350
  Beta  occ. eigenvalues --  -10.13367 -10.11207 -10.11197 -10.10778 -10.10524
  Beta  occ. eigenvalues --  -10.10422 -10.09937 -10.09707 -10.09559 -10.08644
  Beta  occ. eigenvalues --  -10.07873 -10.07580 -10.07440 -10.07043  -0.97844
  Beta  occ. eigenvalues --   -0.89651  -0.84795  -0.79872  -0.75561  -0.71030
  Beta  occ. eigenvalues --   -0.67647  -0.66923  -0.64775  -0.61700  -0.61293
  Beta  occ. eigenvalues --   -0.58347  -0.55047  -0.54955  -0.51653  -0.50051
  Beta  occ. eigenvalues --   -0.48322  -0.47620  -0.43834  -0.41312  -0.40801
  Beta  occ. eigenvalues --   -0.38975  -0.38608  -0.38264  -0.37244  -0.37070
  Beta  occ. eigenvalues --   -0.36840  -0.36437  -0.35332  -0.34977  -0.33366
  Beta  occ. eigenvalues --   -0.32749  -0.31178  -0.30650  -0.30245  -0.29969
  Beta  occ. eigenvalues --   -0.29441  -0.28994  -0.28254  -0.26839  -0.26532
  Beta  occ. eigenvalues --   -0.25772  -0.25061  -0.24687  -0.23821  -0.21798
  Beta  occ. eigenvalues --   -0.17140  -0.16137  -0.13405  -0.10712  -0.09915
  Beta virt. eigenvalues --    0.05686   0.06463   0.06671   0.07342   0.07469
  Beta virt. eigenvalues --    0.07885   0.08203   0.08906   0.09470   0.09596
  Beta virt. eigenvalues --    0.09860   0.10184   0.10551   0.11126   0.11422

 Mulliken charges and spin densities:
               1          2
     1  C    1.277852  -1.569015
     2  N   -0.181215   0.329430
     3  C    0.981517  -1.024575
     4  C   -0.483529   0.505058
     5  C   -0.207181   0.154670
     6  C    0.494632  -0.777510
     7  C    0.245840  -0.601408
     8  C   -0.229193  -0.091787
     9  C    0.702862  -0.085878
    10  C   -0.483007   0.298323
    11  O   -0.179963   0.013494
    12  C    0.168369  -0.490080
    13  C   -0.333164  -0.627369
    14  N    0.182859  -0.002098
    15  C   -0.284996   0.080772
    16  C   -0.211177  -0.257031
    17  N   -0.080431   0.003149
    18  C   -0.179819  -0.162547
    19  C   -0.384203   0.022791
    20  H   -0.310426   0.485516
    21  H   -0.319825   0.493166
    22  H   -0.750347   0.914318
    23  H   -0.819006   1.010049
    24  H   -0.253281   0.402666
    25  H   -0.311455   0.480539
    26  H   -0.015872   0.135791
    27  H    0.029898   0.137096
    28  H   -0.013914   0.165509
    29  H   -0.493224   0.665282
    30  H    0.118876   0.056753
    31  H    0.113213   0.058629
    32  H    0.080487   0.069226
    33  H    0.098329   0.025223
    34  H    0.303903  -0.078592
    35  H    0.027431   0.123099
    36  H    0.183930   0.028273
    37  H    0.384618  -0.230277
    38  H   -0.093023   0.260894
    39  H    0.238701  -0.094740
    40  H   -0.015066   0.173193
 Sum of Mulliken charges =  -1.00000   1.00000

 Dipole moment (field-independent basis, Debye):
    X=             -9.2866    Y=             -0.0347    Z=             -2.7647  Tot=              9.6894
 Quadrupole moment (field-independent basis, Debye-Ang):
   XX=           -218.9959   YY=           -166.1385   ZZ=           -154.7074
   XY=             14.0461   XZ=            -10.4645   YZ=              0.9382

 Summary of Natural Population Analysis:

                                       Natural Population
                Natural  -----------------------------------------------
    Atom  No    Charge         Core      Valence    Rydberg      Total
 -----------------------------------------------------------------------
      C    1   -0.17316      0.99964     2.16508    0.00844     3.17316
      N    2   -0.20699      0.99962     2.69660    0.01076     3.70699
      C    3    0.01255      0.99954     1.97559    0.01232     2.98745
      C    4   -0.14914      0.99954     2.14035    0.00925     3.14914
      C    5   -0.07346      0.99946     2.06535    0.00865     3.07346
      C    6    0.09171      0.99950     1.89703    0.01176     2.90829
      C    7   -0.13040      0.99952     2.12144    0.00944     3.13040
      C    8   -0.09730      0.99954     2.08779    0.00996     3.09730
      C    9   -0.06851      0.99947     2.05918    0.00986     3.06851
      C   10    0.17010      0.99929     1.81786    0.01274     2.82990
      O   11   -0.28007      0.99986     3.27038    0.00983     4.28007
      C   12   -0.09931      0.99960     2.09038    0.00933     3.09931
      C   13   -0.08420      0.99957     2.07276    0.01187     3.08420
      N   14   -0.28190      0.99973     2.76784    0.01433     3.78190
      C   15   -0.09166      0.99962     2.08228    0.00977     3.09166
      C   16   -0.10209      0.99962     2.09217    0.01030     3.10209
      N   17   -0.33355      0.99977     2.82191    0.01187     3.83355
      C   18   -0.10183      0.99962     2.09067    0.01153     3.10183
      C   19   -0.09314      0.99961     2.08143    0.01210     3.09314
      H   20    0.09976      0.00000     0.39840    0.00184     0.40024
      H   21    0.09904      0.00000     0.39903    0.00193     0.40096
      H   22    0.10751      0.00000     0.38891    0.00358     0.39249
      H   23    0.10448      0.00000     0.39365    0.00187     0.39552
      H   24    0.10764      0.00000     0.39124    0.00112     0.39236
      H   25    0.10657      0.00000     0.39236    0.00107     0.39343
      H   26    0.09622      0.00000     0.40216    0.00162     0.40378
      H   27    0.08763      0.00000     0.41109    0.00128     0.41237
      H   28    0.08562      0.00000     0.41318    0.00121     0.41438
      H   29    0.09237      0.00000     0.40642    0.00121     0.40763
      H   30    0.10373      0.00000     0.39498    0.00129     0.39627
      H   31    0.09278      0.00000     0.40612    0.00110     0.40722
      H   32    0.08554      0.00000     0.41299    0.00147     0.41446
      H   33    0.09588      0.00000     0.40302    0.00110     0.40412
      H   34    0.10021      0.00000     0.39805    0.00173     0.39979
      H   35    0.09052      0.00000     0.40848    0.00101     0.40948
      H   36    0.16211      0.00000     0.33522    0.00268     0.33789
      H   37    0.09586      0.00000     0.40218    0.00196     0.40414
      H   38    0.09180      0.00000     0.40713    0.00107     0.40820
      H   39    0.10320      0.00000     0.39564    0.00116     0.39680
      H   40    0.08390      0.00000     0.41474    0.00136     0.41610
 =======================================================================
   * Total *   -0.00000     18.99213    50.77108    0.23679    70.00000

 Normal termination of Gaussian 16 at Sat Dec 12 11:27:13 2020.
