 Gaussian 16, Revision A.03,

 -----------------------------------------------------------
 # opt freq B3LYP/6-31G(d) empiricaldispersion=gd3bj scf=xqc
 -----------------------------------------------------------

 -------------------------------
 CID_104318652_JID_2006_neutraal
 -------------------------------
 Symbolic Z-matrix:
 Charge =  0 Multiplicity = 1

 SCF Done:  E(RB3LYP) =  -878.985205838     A.U. after   14 cycles
 SCF Done:  E(RB3LYP) =  -878.975618383     A.U. after   15 cycles
 SCF Done:  E(RB3LYP) =  -878.986117013     A.U. after   12 cycles
 SCF Done:  E(RB3LYP) =  -878.983625508     A.U. after   13 cycles
 SCF Done:  E(RB3LYP) =  -878.987926782     A.U. after   13 cycles
 SCF Done:  E(RB3LYP) =  -878.988864451     A.U. after   12 cycles
 SCF Done:  E(RB3LYP) =  -878.990009377     A.U. after   14 cycles
 SCF Done:  E(RB3LYP) =  -878.991719183     A.U. after   12 cycles
 SCF Done:  E(RB3LYP) =  -878.992505683     A.U. after   14 cycles
 SCF Done:  E(RB3LYP) =  -878.990991595     A.U. after   12 cycles
 SCF Done:  E(RB3LYP) =  -878.993451756     A.U. after   11 cycles
 SCF Done:  E(RB3LYP) =  -878.993460459     A.U. after   10 cycles
 SCF Done:  E(RB3LYP) =  -878.993462408     A.U. after    8 cycles
 SCF Done:  E(RB3LYP) =  -878.993462996     A.U. after    8 cycles
 SCF Done:  E(RB3LYP) =  -878.993463075     A.U. after    7 cycles
 Optimization completed.
    -- Stationary point found.
 Normal termination of Gaussian 16 at Wed Dec  9 16:48:59 2020.

 --------------------------------------------------------------------
 #N Geom=AllCheck Guess=TCheck SCRF=Check GenChk RB3LYP/6-31G(d) Freq
 --------------------------------------------------------------------

 Structure from the checkpoint file:  "JID_2006.chk"
 -------------------------------
 CID_104318652_JID_2006_neutraal
 -------------------------------
 Charge =  0 Multiplicity = 1

 SCF Done:  E(RB3LYP) =  -878.993463075     A.U. after    1 cycles

  Exact polarizability: 162.322 -12.780 127.713  -7.003  -6.327  71.791
 Approx polarizability: 229.721 -22.186 208.587 -12.744 -15.229 114.246

                      1                      2                      3
                      A                      A                      A
 Frequencies --     40.8365                58.0846                68.9995
 Red. masses --      4.5036                 3.7920                 4.2287
 Frc consts  --      0.0044                 0.0075                 0.0119
 IR Inten    --      4.0287                 0.8590                 0.6014

                      4                      5                      6
                      A                      A                      A
 Frequencies --    144.7573               150.3652               194.6120
 Red. masses --      4.6694                 3.5744                 4.9523
 Frc consts  --      0.0576                 0.0476                 0.1105
 IR Inten    --      0.6980                 0.4331                 0.9466

                      7                      8                      9
                      A                      A                      A
 Frequencies --    241.9121               261.0945               283.5778
 Red. masses --      1.8025                 1.5831                 3.1724
 Frc consts  --      0.0622                 0.0636                 0.1503
 IR Inten    --      1.0642                 1.3385                 4.8990

                     10                     11                     12
                      A                      A                      A
 Frequencies --    351.7302               386.1404               415.7956
 Red. masses --      3.6219                 2.1211                 3.5651
 Frc consts  --      0.2640                 0.1863                 0.3631
 IR Inten    --      0.8215                 0.1340                 4.4632

                     13                     14                     15
                      A                      A                      A
 Frequencies --    424.6249               441.8877               488.6838
 Red. masses --      3.3569                 5.1404                 3.1347
 Frc consts  --      0.3566                 0.5914                 0.4411
 IR Inten    --      1.4110                 4.8697                 3.7906

                     16                     17                     18
                      A                      A                      A
 Frequencies --    586.7611               632.9516               649.4287
 Red. masses --      2.2203                 5.6724                 3.9502
 Frc consts  --      0.4504                 1.3389                 0.9816
 IR Inten    --      0.2208                 1.0877                 2.4838

                     19                     20                     21
                      A                      A                      A
 Frequencies --    693.1592               742.9063               748.5955
 Red. masses --      1.1426                 6.4539                 4.8349
 Frc consts  --      0.3234                 2.0986                 1.5964
 IR Inten    --    105.0319                20.2953                 2.4587

                     22                     23                     24
                      A                      A                      A
 Frequencies --    771.4931               781.7405               876.5771
 Red. masses --      1.3127                 2.6799                 1.9780
 Frc consts  --      0.4603                 0.9649                 0.8955
 IR Inten    --     41.6085                 1.0016                 7.3000

                     25                     26                     27
                      A                      A                      A
 Frequencies --    890.0806               913.2734               968.4241
 Red. masses --      1.3254                 1.9666                 1.8200
 Frc consts  --      0.6187                 0.9664                 1.0057
 IR Inten    --      0.5109                 6.6521                 3.5139

                     28                     29                     30
                      A                      A                      A
 Frequencies --    971.9264              1003.3546              1007.1854
 Red. masses --      1.3764                 1.2964                 2.0090
 Frc consts  --      0.7661                 0.7690                 1.2008
 IR Inten    --      0.0890                 0.0954                 4.3135

                     31                     32                     33
                      A                      A                      A
 Frequencies --   1011.2875              1075.7062              1083.7397
 Red. masses --      5.6642                 2.5081                 2.1638
 Frc consts  --      3.4130                 1.7100                 1.4974
 IR Inten    --      8.8920                 6.8926                49.3150

                     34                     35                     36
                      A                      A                      A
 Frequencies --   1108.6271              1124.0462              1160.0719
 Red. masses --      1.7816                 1.7378                 2.6675
 Frc consts  --      1.2901                 1.2936                 2.1151
 IR Inten    --      1.1366                 5.9727                36.4365

                     37                     38                     39
                      A                      A                      A
 Frequencies --   1170.9154              1190.3325              1221.9737
 Red. masses --      1.9774                 1.1377                 1.2118
 Frc consts  --      1.5974                 0.9497                 1.0661
 IR Inten    --     82.0201                 3.0062                 3.6885

                     40                     41                     42
                      A                      A                      A
 Frequencies --   1271.5435              1317.6086              1321.5970
 Red. masses --      1.1523                 3.1747                 1.9891
 Frc consts  --      1.0977                 3.2473                 2.0470
 IR Inten    --     14.6753                 2.2041                 1.7091

                     43                     44                     45
                      A                      A                      A
 Frequencies --   1335.3072              1366.9279              1382.9343
 Red. masses --      1.2474                 1.4169                 1.4091
 Frc consts  --      1.3104                 1.5598                 1.5878
 IR Inten    --     34.4229                 0.6276                 5.3580

                     46                     47                     48
                      A                      A                      A
 Frequencies --   1411.4544              1433.8832              1463.6632
 Red. masses --      1.3375                 1.2868                 2.0059
 Frc consts  --      1.5699                 1.5588                 2.5318
 IR Inten    --      0.7984                13.6843                58.4752

                     49                     50                     51
                      A                      A                      A
 Frequencies --   1475.9189              1484.7150              1500.5327
 Red. masses --      1.1694                 1.1043                 1.0850
 Frc consts  --      1.5009                 1.4342                 1.4394
 IR Inten    --     41.3079                 6.4668                 4.9306

                     52                     53                     54
                      A                      A                      A
 Frequencies --   1508.1328              1524.7587              1539.1655
 Red. masses --      1.9875                 1.0705                 1.0530
 Frc consts  --      2.6634                 1.4664                 1.4698
 IR Inten    --     54.8413                 5.0817                 2.1132

                     55                     56                     57
                      A                      A                      A
 Frequencies --   1615.9824              1645.5631              3028.9422
 Red. masses --      5.7853                 5.0579                 1.0684
 Frc consts  --      8.9012                 8.0696                 5.7751
 IR Inten    --     28.2130               100.4837                16.4338

                     58                     59                     60
                      A                      A                      A
 Frequencies --   3045.0854              3049.3296              3087.3572
 Red. masses --      1.0783                 1.0425                 1.0681
 Frc consts  --      5.8910                 5.7115                 5.9982
 IR Inten    --     65.3816                28.3046                12.0594

                     61                     62                     63
                      A                      A                      A
 Frequencies --   3094.9538              3115.0880              3128.3266
 Red. masses --      1.0903                 1.1014                 1.1020
 Frc consts  --      6.1530                 6.2973                 6.3539
 IR Inten    --     25.0850                49.4848                30.6845

                     64                     65                     66
                      A                      A                      A
 Frequencies --   3147.6681              3187.5956              3199.2791
 Red. masses --      1.1020                 1.0892                 1.0885
 Frc consts  --      6.4331                 6.5203                 6.5643
 IR Inten    --      4.8255                13.7554                 8.4805

                     67                     68                     69
                      A                      A                      A
 Frequencies --   3217.8590              3226.7498              3554.9075
 Red. masses --      1.0933                 1.0974                 1.0667
 Frc consts  --      6.6698                 6.7320                 7.9424
 IR Inten    --      8.3078                13.6653               396.1533

 - Thermochemistry -
 -------------------
 Temperature   298.150 Kelvin.  Pressure   1.00000 Atm.
 Atom     1 has atomic number  6 and mass  12.00000

 Molecular mass:   183.07179 amu.
 Principal axes and moments of inertia in atomic units:
                           1         2         3
     Eigenvalues --  1318.349783172.510764055.90419
           X            0.99993   0.00520  -0.01071
           Y           -0.00532   0.99992  -0.01183
           Z            0.01064   0.01189   0.99987
 This molecule is an asymmetric top.
 Rotational symmetry number  1.
 Warning -- assumption of classical behavior for rotation
           may cause significant error
 Rotational temperatures (Kelvin)      0.06570     0.02730     0.02136
 Rotational constants (GHZ):           1.36894     0.56887     0.44497
 Zero-point vibrational energy     550404.8 (Joules/Mol)
                                  131.54990 (Kcal/Mol)
 Warning -- explicit consideration of  16 degrees of freedom as
           vibrations may cause significant error
 Vibrational temperatures:     58.75    83.57    99.27   208.27   216.34
          (Kelvin)            280.00   348.06   375.66   408.01   506.06
                              555.57   598.24   610.94   635.78   703.11
                              844.22   910.68   934.38   997.30  1068.88
                             1077.06  1110.01  1124.75  1261.20  1280.63
                             1314.00  1393.35  1398.39  1443.60  1449.12
                             1455.02  1547.70  1559.26  1595.07  1617.25
                             1669.08  1684.69  1712.62  1758.15  1829.47
                             1895.74  1901.48  1921.21  1966.70  1989.73
                             2030.77  2063.04  2105.88  2123.52  2136.17
                             2158.93  2169.87  2193.79  2214.52  2325.04
                             2367.60  4357.97  4381.20  4387.31  4442.02
                             4452.95  4481.92  4500.96  4528.79  4586.24
                             4603.05  4629.78  4642.57  5114.72

 Zero-point correction=                           0.209638 (Hartree/Particle)
 Thermal correction to Energy=                    0.221544
 Thermal correction to Enthalpy=                  0.222488
 Thermal correction to Gibbs Free Energy=         0.170795
 Sum of electronic and zero-point Energies=           -878.783825
 Sum of electronic and thermal Energies=              -878.771919
 Sum of electronic and thermal Enthalpies=            -878.770975
 Sum of electronic and thermal Free Energies=         -878.822668

                     E (Thermal)             CV                S
                      KCal/Mol        Cal/Mol-Kelvin    Cal/Mol-Kelvin
 Total                  139.021             45.076            108.798
 Electronic               0.000              0.000              0.000
 Translational            0.889              2.981             41.521
 Rotational               0.889              2.981             31.207
 Vibrational            137.243             39.114             36.070
 Vibration     1          0.594              1.981              5.218
 Vibration     2          0.596              1.974              4.521
 Vibration     3          0.598              1.969              4.182
 Vibration     4          0.616              1.908              2.740
 Vibration     5          0.618              1.902              2.668
 Vibration     6          0.635              1.847              2.183
 Vibration     7          0.658              1.776              1.789
 Vibration     8          0.669              1.744              1.654
 Vibration     9          0.682              1.704              1.512
 Vibration    10          0.728              1.572              1.158
 Vibration    11          0.755              1.500              1.015
 Vibration    12          0.779              1.436              0.906
 Vibration    13          0.787              1.417              0.876
 Vibration    14          0.802              1.379              0.821
 Vibration    15          0.845              1.275              0.687
 Vibration    16          0.944              1.060              0.473

 Optimization completed.
    -- Stationary point found.
 Normal termination of Gaussian 16 at Wed Dec  9 16:54:35 2020.

 ----------------------------------------------------------------------
 # B3LYP/6-311++G(d,p) empiricaldispersion=gd3bj scf=xqc pop=npa geom=c
 heck
 ----------------------------------------------------------------------

 ---------------------------------------
 CID_104318652_JID_2006_Energie_neutraal
 ---------------------------------------
 Structure from the checkpoint file:  "JID_2006.chk"
 Charge =  0 Multiplicity = 1

 SCF Done:  E(RB3LYP) =  -879.160057037     A.U. after   16 cycles
 Normal termination of Gaussian 16 at Wed Dec  9 16:56:56 2020.

 ----------------------------------------------------------------------
 # B3LYP/6-311++G(d,p) empiricaldispersion=gd3bj scf=xqc pop=npa geom=c
 heck
 ----------------------------------------------------------------------

 -------------------------------------
 CID_104318652_JID_2006_Energie_kation
 -------------------------------------
 Structure from the checkpoint file:  "JID_2006.chk"
 Charge =  1 Multiplicity = 2

 SCF Done:  E(UB3LYP) =  -878.865287768     A.U. after   23 cycles
 Normal termination of Gaussian 16 at Wed Dec  9 17:01:28 2020.
 Gaussian 16:  ES64L-G16RevA.03 25-Dec-2016

 ----------------------------------------------------------------------
 # B3LYP/6-311++G(d,p) empiricaldispersion=gd3bj scf=xqc pop=npa geom=c
 heck
 ----------------------------------------------------------------------

 ------------------------------------
 CID_104318652_JID_2006_Energie_anion
 ------------------------------------
 Structure from the checkpoint file:  "JID_2006.chk"
 Charge = -1 Multiplicity = 2

                         Standard orientation:
 ---------------------------------------------------------------------
 Center     Atomic      Atomic             Coordinates (Angstroms)
 Number     Number       Type             X           Y           Z
 ---------------------------------------------------------------------
      1          6           0       -2.711318   -1.705153    0.654497
      2          6           0       -2.633500   -0.695152   -0.496256
      3          6           0       -2.646447    0.768048   -0.014892
      4          6           0       -1.454933    1.228521    0.840172
      5         16           0       -0.001317    1.888212   -0.083102
      6          6           0        1.199185    0.584676    0.013248
      7          6           0        2.546727    0.919001   -0.209444
      8          6           0        3.496196   -0.090361   -0.153530
      9          6           0        3.092000   -1.398772    0.135261
     10          6           0        1.738445   -1.629683    0.339720
     11          7           0        0.805108   -0.666036    0.273601
     12          8           0       -1.541787   -0.976909   -1.354476
     13          1           0       -1.822222   -1.646963    1.292671
     14          1           0       -2.762962   -2.719775    0.247324
     15          1           0       -3.594912   -1.536122    1.281555
     16          1           0       -3.528186   -0.821652   -1.119651
     17          1           0       -2.736062    1.422582   -0.888768
     18          1           0       -3.555462    0.916120    0.585583
     19          1           0       -1.757284    2.071043    1.468230
     20          1           0       -1.082917    0.441269    1.499442
     21          1           0        2.826914    1.948495   -0.406360
     22          1           0        4.544659    0.139235   -0.321031
     23          1           0        3.805801   -2.213209    0.194549
     24          1           0        1.365573   -2.628365    0.554632
     25          1           0       -0.741461   -0.993277   -0.790592
 ---------------------------------------------------------------------

 SCF Done:  E(UB3LYP) =  -879.152528507     A.U. after   33 cycles
 SCF Done:  E(UB3LYP) =  -879.152528507     a.u. after    1 cycles

 The electronic state is 2-A.
 Alpha  occ. eigenvalues --  -88.72063 -18.97429 -14.16310 -10.10035 -10.09938
 Alpha  occ. eigenvalues --  -10.07878 -10.06990 -10.05176 -10.04531 -10.04475
 Alpha  occ. eigenvalues --  -10.04414 -10.04001  -7.80715  -5.77101  -5.76701
 Alpha  occ. eigenvalues --   -5.76138  -0.88452  -0.81352  -0.69002  -0.66877
 Alpha  occ. eigenvalues --   -0.65342  -0.61789  -0.57432  -0.52431  -0.50040
 Alpha  occ. eigenvalues --   -0.47205  -0.44994  -0.39072  -0.36797  -0.35518
 Alpha  occ. eigenvalues --   -0.34852  -0.33597  -0.31803  -0.30890  -0.29530
 Alpha  occ. eigenvalues --   -0.28527  -0.27674  -0.27491  -0.25822  -0.24682
 Alpha  occ. eigenvalues --   -0.23368  -0.22845  -0.19648  -0.19470  -0.16833
 Alpha  occ. eigenvalues --   -0.15939  -0.14049  -0.13386  -0.09278   0.05276
 Alpha virt. eigenvalues --    0.07156   0.08076   0.08867   0.09555   0.09914
 Alpha virt. eigenvalues --    0.10524   0.10702   0.11658   0.12186   0.12408
 Alpha virt. eigenvalues --    0.12649   0.14522   0.14804   0.15482   0.16061

  Beta  occ. eigenvalues --  -88.72060 -18.97407 -14.15889 -10.09966 -10.09934
  Beta  occ. eigenvalues --  -10.07852 -10.06865 -10.05155 -10.04518 -10.04517
  Beta  occ. eigenvalues --  -10.04400 -10.03621  -7.80712  -5.77099  -5.76699
  Beta  occ. eigenvalues --   -5.76129  -0.88402  -0.80779  -0.68906  -0.66329
  Beta  occ. eigenvalues --   -0.65177  -0.61660  -0.57335  -0.52262  -0.49692
  Beta  occ. eigenvalues --   -0.46932  -0.44834  -0.38958  -0.36726  -0.35320
  Beta  occ. eigenvalues --   -0.34782  -0.33398  -0.31748  -0.30795  -0.29486
  Beta  occ. eigenvalues --   -0.28297  -0.27420  -0.26729  -0.25638  -0.24647
  Beta  occ. eigenvalues --   -0.23293  -0.22692  -0.19565  -0.19368  -0.16087
  Beta  occ. eigenvalues --   -0.14329  -0.13919  -0.12952  -0.08882
  Beta virt. eigenvalues --    0.07694   0.08101   0.09129   0.09712   0.09974
  Beta virt. eigenvalues --    0.10640   0.10713   0.10905   0.11826   0.12269
  Beta virt. eigenvalues --    0.12553   0.12662   0.14484   0.14924   0.15553

 Mulliken charges and spin densities:
               1          2
     1  C    0.058983  -0.641467
     2  C   -0.266890   0.299882
     3  C    0.026186  -0.492349
     4  C    0.258012  -0.268693
     5  S    0.272899  -0.552075
     6  C   -0.674605   0.391664
     7  C    0.084044  -0.002572
     8  C   -0.575349   0.169541
     9  C    0.264708  -0.342540
    10  C   -0.272007   0.222696
    11  N    0.069761   0.186145
    12  O   -0.251636  -0.010090
    13  H    0.094535   0.049700
    14  H    0.083429   0.050158
    15  H   -0.205282   0.324294
    16  H    0.047248   0.107651
    17  H    0.017892   0.139617
    18  H   -0.334047   0.454666
    19  H   -0.328618   0.586691
    20  H    0.140637   0.017354
    21  H    0.132641   0.020034
    22  H    0.039685   0.058156
    23  H    0.013125   0.117150
    24  H    0.062332   0.056404
    25  H    0.242319   0.057985
 Sum of Mulliken charges =  -1.00000   1.00000

 Dipole moment (field-independent basis, Debye):
    X=              1.8666    Y=             -0.5321    Z=             -0.3369  Tot=              1.9700
 Quadrupole moment (field-independent basis, Debye-Ang):
   XX=           -126.5980   YY=           -104.0345   ZZ=           -105.0205
   XY=              4.3232   XZ=              4.3749   YZ=             -3.6568

 Summary of Natural Population Analysis:

                                       Natural Population
                Natural  -----------------------------------------------
    Atom  No    Charge         Core      Valence    Rydberg      Total
 -----------------------------------------------------------------------
      C    1   -0.30166      0.99964     2.29644    0.00558     3.30166
      C    2    0.06460      0.99958     1.92094    0.01488     2.93540
      C    3   -0.20557      0.99959     2.19502    0.01095     3.20557
      C    4   -0.25453      0.99958     2.24222    0.01273     3.25453
      S    5    0.10984      4.99951     2.87087    0.01977     7.89016
      C    6    0.05555      0.99947     1.92968    0.01530     2.94445
      C    7   -0.13377      0.99950     2.12487    0.00940     3.13377
      C    8   -0.01819      0.99957     2.00819    0.01043     3.01819
      C    9   -0.14796      0.99956     2.13863    0.00977     3.14796
      C   10    0.05423      0.99958     1.93230    0.01388     2.94577
      N   11   -0.23682      0.99963     2.72452    0.01267     3.73682
      O   12   -0.38985      0.99989     3.38286    0.00709     4.38985
      H   13    0.10223      0.00000     0.39647    0.00129     0.39777
      H   14    0.09876      0.00000     0.40038    0.00087     0.40124
      H   15    0.09613      0.00000     0.40276    0.00111     0.40387
      H   16    0.07703      0.00000     0.42094    0.00203     0.42297
      H   17    0.10176      0.00000     0.39692    0.00132     0.39824
      H   18    0.09815      0.00000     0.39984    0.00201     0.40185
      H   19    0.10478      0.00000     0.39355    0.00167     0.39522
      H   20    0.11379      0.00000     0.38417    0.00204     0.38621
      H   21    0.09878      0.00000     0.40023    0.00099     0.40122
      H   22    0.08945      0.00000     0.40970    0.00085     0.41055
      H   23    0.09604      0.00000     0.40305    0.00091     0.40396
      H   24    0.08352      0.00000     0.41550    0.00099     0.41648
      H   25    0.24372      0.00000     0.25230    0.00397     0.25628
 =======================================================================
   * Total *   -0.00000     15.99513    32.84238    0.16250    49.00000

 Normal termination of Gaussian 16 at Wed Dec  9 17:08:23 2020.
