 Gaussian 16, Revision A.03,

 -----------------------------------------------------------
 # opt freq B3LYP/6-31G(d) empiricaldispersion=gd3bj scf=xqc
 -----------------------------------------------------------

 ------------------------------
 CID_62344578_JID_9756_neutraal
 ------------------------------
 Symbolic Z-matrix:
 Charge =  0 Multiplicity = 1

 SCF Done:  E(RB3LYP) =  -846.024705306     A.U. after   14 cycles
 SCF Done:  E(RB3LYP) =  -846.030505986     A.U. after   12 cycles
 SCF Done:  E(RB3LYP) =  -846.031258336     A.U. after   12 cycles
 SCF Done:  E(RB3LYP) =  -846.030701872     A.U. after   11 cycles
 SCF Done:  E(RB3LYP) =  -846.031153563     A.U. after   12 cycles
 SCF Done:  E(RB3LYP) =  -846.031711145     A.U. after    9 cycles
 SCF Done:  E(RB3LYP) =  -846.031805204     A.U. after   11 cycles
 SCF Done:  E(RB3LYP) =  -846.032056896     A.U. after   11 cycles
 SCF Done:  E(RB3LYP) =  -846.032149613     A.U. after   11 cycles
 SCF Done:  E(RB3LYP) =  -846.032182659     A.U. after   11 cycles
 SCF Done:  E(RB3LYP) =  -846.032208044     A.U. after    9 cycles
 SCF Done:  E(RB3LYP) =  -846.032210578     A.U. after    9 cycles
 SCF Done:  E(RB3LYP) =  -846.032212145     A.U. after    9 cycles
 SCF Done:  E(RB3LYP) =  -846.032212484     A.U. after    7 cycles
 SCF Done:  E(RB3LYP) =  -846.032212551     A.U. after    6 cycles
 Optimization completed.
    -- Stationary point found.
 Normal termination of Gaussian 16 at Mon Dec 14 13:38:57 2020.

 --------------------------------------------------------------------
 #N Geom=AllCheck Guess=TCheck SCRF=Check GenChk RB3LYP/6-31G(d) Freq
 --------------------------------------------------------------------

 Structure from the checkpoint file:  "JID_9756.chk"
 ------------------------------
 CID_62344578_JID_9756_neutraal
 ------------------------------
 Charge =  0 Multiplicity = 1

 SCF Done:  E(RB3LYP) =  -846.032212551     A.U. after    1 cycles

  Exact polarizability: 180.209  14.925 169.908  -5.248  11.228 153.512
 Approx polarizability: 240.272  25.461 236.493 -12.295  18.302 248.388

                      1                      2                      3
                      A                      A                      A
 Frequencies --     21.5113                45.8738                53.0287
 Red. masses --      3.6408                 2.9235                 3.8649
 Frc consts  --      0.0010                 0.0036                 0.0064
 IR Inten    --      0.0391                 0.0915                 0.0930

                      4                      5                      6
                      A                      A                      A
 Frequencies --     72.1458                92.4960               105.2458
 Red. masses --      3.2333                 2.4756                 2.7178
 Frc consts  --      0.0099                 0.0125                 0.0177
 IR Inten    --      0.1952                 0.0914                 0.1819

                      7                      8                      9
                      A                      A                      A
 Frequencies --    128.1123               140.9048               163.5439
 Red. masses --      3.4270                 2.6233                 3.1840
 Frc consts  --      0.0331                 0.0307                 0.0502
 IR Inten    --      0.8550                 1.4648                 1.0255

                     10                     11                     12
                      A                      A                      A
 Frequencies --    180.3763               193.5754               220.5537
 Red. masses --      2.8211                 2.8003                 1.5383
 Frc consts  --      0.0541                 0.0618                 0.0441
 IR Inten    --      0.3966                 0.6227                 0.5411

                     13                     14                     15
                      A                      A                      A
 Frequencies --    233.9558               275.9922               277.9282
 Red. masses --      2.6137                 2.4395                 3.0278
 Frc consts  --      0.0843                 0.1095                 0.1378
 IR Inten    --      1.2954                 5.9540                 2.4493

                     16                     17                     18
                      A                      A                      A
 Frequencies --    307.0182               365.2005               383.9007
 Red. masses --      2.8935                 2.8218                 2.3386
 Frc consts  --      0.1607                 0.2217                 0.2031
 IR Inten    --      1.8904                 1.9414                 0.9422

                     19                     20                     21
                      A                      A                      A
 Frequencies --    384.9971               401.3637               421.9047
 Red. masses --      1.2663                 3.4672                 3.1580
 Frc consts  --      0.1106                 0.3291                 0.3312
 IR Inten    --     37.6124                 3.7767                 0.9796

                     22                     23                     24
                      A                      A                      A
 Frequencies --    431.8761               482.7364               494.2761
 Red. masses --      3.4958                 3.7312                 3.9000
 Frc consts  --      0.3842                 0.5123                 0.5614
 IR Inten    --      3.4604                 1.2137                 1.2912

                     25                     26                     27
                      A                      A                      A
 Frequencies --    545.9966               586.5250               619.0669
 Red. masses --      4.4103                 3.3334                 2.4910
 Frc consts  --      0.7746                 0.6756                 0.5625
 IR Inten    --      5.2218                 7.5068                 1.9928

                     28                     29                     30
                      A                      A                      A
 Frequencies --    632.6128               653.9290               684.7779
 Red. masses --      3.0156                 3.1606                 3.3486
 Frc consts  --      0.7111                 0.7963                 0.9251
 IR Inten    --      2.0730                 1.0876                 2.2436

                     31                     32                     33
                      A                      A                      A
 Frequencies --    720.4849               780.8745               782.6774
 Red. masses --      4.9151                 1.4786                 1.7171
 Frc consts  --      1.5033                 0.5312                 0.6198
 IR Inten    --      1.8486                10.7957                 7.1100

                     34                     35                     36
                      A                      A                      A
 Frequencies --    799.7531               806.4874               825.6463
 Red. masses --      1.4546                 1.2932                 2.0780
 Frc consts  --      0.5482                 0.4956                 0.8346
 IR Inten    --     17.0241                27.2383                 0.3047

                     37                     38                     39
                      A                      A                      A
 Frequencies --    849.2253               852.7743               902.2080
 Red. masses --      1.5357                 2.0023                 2.0984
 Frc consts  --      0.6525                 0.8579                 1.0063
 IR Inten    --      3.1745                 8.8713               141.5627

                     40                     41                     42
                      A                      A                      A
 Frequencies --    916.0985               928.2817               936.7151
 Red. masses --      2.8438                 1.6687                 2.3252
 Frc consts  --      1.4062                 0.8472                 1.2021
 IR Inten    --      3.6242                14.0116                 2.8095

                     43                     44                     45
                      A                      A                      A
 Frequencies --    950.3328               957.7441               972.2570
 Red. masses --      2.6343                 2.7478                 2.2952
 Frc consts  --      1.4017                 1.4850                 1.2783
 IR Inten    --     73.7327                 1.6224                41.4248

                     46                     47                     48
                      A                      A                      A
 Frequencies --    987.7567               993.6017              1005.8138
 Red. masses --      2.5390                 1.7924                 1.9641
 Frc consts  --      1.4595                 1.0426                 1.1707
 IR Inten    --     39.8414                10.0899                29.5977

                     49                     50                     51
                      A                      A                      A
 Frequencies --   1011.3256              1033.7205              1044.9863
 Red. masses --      3.5487                 2.2342                 1.4096
 Frc consts  --      2.1385                 1.4066                 0.9069
 IR Inten    --     10.3394                28.6206                12.9219

                     52                     53                     54
                      A                      A                      A
 Frequencies --   1063.7045              1086.5080              1091.0396
 Red. masses --      2.8705                 1.9297                 2.7971
 Frc consts  --      1.9136                 1.3421                 1.9617
 IR Inten    --     33.4520                 9.1760                18.8015

                     55                     56                     57
                      A                      A                      A
 Frequencies --   1102.2458              1118.6439              1144.8900
 Red. masses --      1.5914                 1.9860                 3.0109
 Frc consts  --      1.1391                 1.4642                 2.3252
 IR Inten    --      0.0287                 0.9213                 8.8860

                     58                     59                     60
                      A                      A                      A
 Frequencies --   1157.6707              1163.5381              1167.7533
 Red. masses --      2.7141                 2.8627                 4.1063
 Frc consts  --      2.1431                 2.2834                 3.2992
 IR Inten    --      7.3126                40.2956               107.8908

                     61                     62                     63
                      A                      A                      A
 Frequencies --   1177.7685              1201.2641              1216.8654
 Red. masses --      2.3266                 1.7533                 1.5838
 Frc consts  --      1.9015                 1.4907                 1.3818
 IR Inten    --      5.6551                 3.1483                 3.8366

                     64                     65                     66
                      A                      A                      A
 Frequencies --   1220.1050              1226.3962              1243.8702
 Red. masses --      1.7066                 1.4941                 3.2548
 Frc consts  --      1.4968                 1.3240                 2.9671
 IR Inten    --      4.1885                 2.6593                 7.0333

                     67                     68                     69
                      A                      A                      A
 Frequencies --   1269.0961              1278.0899              1293.0747
 Red. masses --      1.2210                 2.5690                 1.1902
 Frc consts  --      1.1587                 2.4725                 1.1725
 IR Inten    --      2.4242                 6.5977                 4.0986

                     70                     71                     72
                      A                      A                      A
 Frequencies --   1298.4354              1302.3924              1316.4640
 Red. masses --      1.3862                 1.3400                 1.2288
 Frc consts  --      1.3769                 1.3392                 1.2548
 IR Inten    --      1.6356                 5.2472                 5.8780

                     73                     74                     75
                      A                      A                      A
 Frequencies --   1333.1870              1336.4904              1338.2992
 Red. masses --      1.2654                 1.4696                 1.4061
 Frc consts  --      1.3252                 1.5466                 1.4838
 IR Inten    --      1.9865                 7.7930                 9.8272

                     76                     77                     78
                      A                      A                      A
 Frequencies --   1350.6821              1376.4457              1377.7192
 Red. masses --      1.3858                 1.5281                 1.4535
 Frc consts  --      1.4895                 1.7058                 1.6255
 IR Inten    --      1.4250                 9.6841                 1.6536

                     79                     80                     81
                      A                      A                      A
 Frequencies --   1391.1101              1410.2180              1414.7080
 Red. masses --      1.3695                 1.4296                 1.5781
 Frc consts  --      1.5615                 1.6751                 1.8608
 IR Inten    --     15.9246                10.5471                 4.0237

                     82                     83                     84
                      A                      A                      A
 Frequencies --   1420.3449              1430.3648              1430.8142
 Red. masses --      1.3699                 1.3038                 1.2160
 Frc consts  --      1.6282                 1.5716                 1.4668
 IR Inten    --     35.3873                 1.9865                 9.4801

                     85                     86                     87
                      A                      A                      A
 Frequencies --   1436.1715              1452.4216              1456.9533
 Red. masses --      1.2895                 1.3664                 1.3380
 Frc consts  --      1.5670                 1.6983                 1.6734
 IR Inten    --      1.1476                 1.7887                 7.7230

                     88                     89                     90
                      A                      A                      A
 Frequencies --   1500.6522              1505.0742              1517.1792
 Red. masses --      1.1002                 1.0780                 1.0979
 Frc consts  --      1.4598                 1.4387                 1.4890
 IR Inten    --      3.7803                 1.8445                 5.7324

                     91                     92                     93
                      A                      A                      A
 Frequencies --   1519.1859              1523.8882              1524.7613
 Red. masses --      1.0815                 1.1025                 1.0507
 Frc consts  --      1.4706                 1.5085                 1.4393
 IR Inten    --      1.9027                 0.5642                 2.1553

                     94                     95                     96
                      A                      A                      A
 Frequencies --   1532.4216              1534.7590              1548.8756
 Red. masses --      1.0756                 1.0748                 1.1009
 Frc consts  --      1.4882                 1.4916                 1.5560
 IR Inten    --     12.3550                 3.3816                 2.2691

                     97                     98                     99
                      A                      A                      A
 Frequencies --   1602.4120              1665.1463              1711.7751
 Red. masses --      7.6433                 6.4480                 1.0865
 Frc consts  --     11.5633                10.5336                 1.8757
 IR Inten    --     14.8637                 4.0982                24.5610

                    100                    101                    102
                      A                      A                      A
 Frequencies --   2935.6754              2952.9447              2962.5684
 Red. masses --      1.0790                 1.0712                 1.0834
 Frc consts  --      5.4788                 5.5035                 5.6026
 IR Inten    --     13.4846                33.8723                46.8962

                    103                    104                    105
                      A                      A                      A
 Frequencies --   2999.4028              3037.5496              3038.0556
 Red. masses --      1.0698                 1.0667                 1.0670
 Frc consts  --      5.6707                 5.7986                 5.8023
 IR Inten    --     73.7423                26.5486                31.7930

                    106                    107                    108
                      A                      A                      A
 Frequencies --   3052.0896              3054.5641              3057.4752
 Red. masses --      1.0727                 1.0810                 1.0349
 Frc consts  --      5.8877                 5.9425                 5.6999
 IR Inten    --     39.4666                28.1083                23.5872

                    109                    110                    111
                      A                      A                      A
 Frequencies --   3070.0517              3078.0696              3080.2805
 Red. masses --      1.0614                 1.0896                 1.0623
 Frc consts  --      5.8942                 6.0824                 5.9383
 IR Inten    --     25.2281                59.9832                31.3160

                    112                    113                    114
                      A                      A                      A
 Frequencies --   3093.7591              3094.5283              3106.9844
 Red. masses --      1.0960                 1.1017                 1.1046
 Frc consts  --      6.1808                 6.2158                 6.2824
 IR Inten    --     10.6535                30.7749                 7.8335

                    115                    116                    117
                      A                      A                      A
 Frequencies --   3112.8346              3126.5529              3128.1944
 Red. masses --      1.0944                 1.1035                 1.1046
 Frc consts  --      6.2478                 6.3555                 6.3686
 IR Inten    --     43.9893                42.1082                51.0686

                    118                    119                    120
                      A                      A                      A
 Frequencies --   3135.8368              3173.0978              3260.5493
 Red. masses --      1.1023                 1.0926                 1.0930
 Frc consts  --      6.3864                 6.4817                 6.8460
 IR Inten    --     31.5125                16.1039                 7.9470

                    121                    122                    123
                      A                      A                      A
 Frequencies --   3273.4406              3505.4294              3595.7657
 Red. masses --      1.1009                 1.0494                 1.0912
 Frc consts  --      6.9502                 7.5973                 8.3125
 IR Inten    --      1.6147                 2.6475                 1.6603

 - Thermochemistry -
 -------------------
 Temperature   298.150 Kelvin.  Pressure   1.00000 Atm.
 Atom     1 has atomic number  6 and mass  12.00000

 Molecular mass:   264.18378 amu.
 Principal axes and moments of inertia in atomic units:
                           1         2         3
     Eigenvalues --  3629.457785906.891456844.51464
           X            0.99948   0.03231  -0.00244
           Y           -0.03225   0.99927   0.02066
           Z            0.00310  -0.02057   0.99978
 This molecule is an asymmetric top.
 Rotational symmetry number  1.
 Warning -- assumption of classical behavior for rotation
           may cause significant error
 Rotational temperatures (Kelvin)      0.02386     0.01466     0.01265
 Rotational constants (GHZ):           0.49725     0.30553     0.26368
 Zero-point vibrational energy    1007062.9 (Joules/Mol)
                                  240.69381 (Kcal/Mol)
 Warning -- explicit consideration of  27 degrees of freedom as
           vibrations may cause significant error
 Vibrational temperatures:     30.95    66.00    76.30   103.80   133.08
          (Kelvin)            151.43   184.33   202.73   235.30   259.52
                              278.51   317.33   336.61   397.09   399.88
                              441.73   525.44   552.35   553.92   577.47
                              607.03   621.37   694.55   711.15   785.57
                              843.88   890.70   910.19   940.86   985.24
                             1036.62  1123.50  1126.10  1150.67  1160.36
                             1187.92  1221.85  1226.95  1298.08  1318.06
                             1335.59  1347.72  1367.32  1377.98  1398.86
                             1421.16  1429.57  1447.14  1455.07  1487.29
                             1503.50  1530.43  1563.24  1569.76  1585.89
                             1609.48  1647.24  1665.63  1674.07  1680.14
                             1694.55  1728.35  1750.80  1755.46  1764.51
                             1789.65  1825.95  1838.89  1860.45  1868.16
                             1873.85  1894.10  1918.16  1922.91  1925.51
                             1943.33  1980.40  1982.23  2001.50  2028.99
                             2035.45  2043.56  2057.98  2058.62  2066.33
                             2089.71  2096.23  2159.10  2165.47  2182.88
                             2185.77  2192.54  2193.79  2204.81  2208.18
                             2228.49  2305.51  2395.77  2462.86  4223.78
                             4248.63  4262.48  4315.47  4370.36  4371.08
                             4391.28  4394.84  4399.02  4417.12  4428.66
                             4431.84  4451.23  4452.34  4470.26  4478.67
                             4498.41  4500.77  4511.77  4565.38  4691.20
                             4709.75  5043.53  5173.50

 Zero-point correction=                           0.383570 (Hartree/Particle)
 Thermal correction to Energy=                    0.401651
 Thermal correction to Enthalpy=                  0.402595
 Thermal correction to Gibbs Free Energy=         0.336847
 Sum of electronic and zero-point Energies=           -845.648643
 Sum of electronic and thermal Energies=              -845.630561
 Sum of electronic and thermal Enthalpies=            -845.629617
 Sum of electronic and thermal Free Energies=         -845.695365

                     E (Thermal)             CV                S
                      KCal/Mol        Cal/Mol-Kelvin    Cal/Mol-Kelvin
 Total                  252.040             70.601            138.378
 Electronic               0.000              0.000              0.000
 Translational            0.889              2.981             42.614
 Rotational               0.889              2.981             33.350
 Vibrational            250.262             64.639             62.414
 Vibration     1          0.593              1.985              6.490
 Vibration     2          0.595              1.979              4.988
 Vibration     3          0.596              1.976              4.701
 Vibration     4          0.598              1.967              4.094
 Vibration     5          0.602              1.955              3.607
 Vibration     6          0.605              1.945              3.355
 Vibration     7          0.611              1.925              2.974
 Vibration     8          0.615              1.912              2.792
 Vibration     9          0.623              1.887              2.508
 Vibration    10          0.629              1.866              2.325
 Vibration    11          0.635              1.849              2.193
 Vibration    12          0.647              1.810              1.955
 Vibration    13          0.654              1.789              1.848
 Vibration    14          0.678              1.718              1.558
 Vibration    15          0.679              1.714              1.546
 Vibration    16          0.697              1.660              1.378
 Vibration    17          0.738              1.544              1.100
 Vibration    18          0.753              1.505              1.024
 Vibration    19          0.754              1.502              1.019
 Vibration    20          0.767              1.467              0.958
 Vibration    21          0.784              1.423              0.886
 Vibration    22          0.793              1.401              0.853
 Vibration    23          0.839              1.288              0.703
 Vibration    24          0.850              1.263              0.673
 Vibration    25          0.901              1.148              0.553
 Vibration    26          0.944              1.061              0.473
 Vibration    27          0.979              0.992              0.418

                           ! Non-Optimized Parameters !
 Normal termination of Gaussian 16 at Mon Dec 14 14:08:17 2020.

 ----------------------------------------------------------------------
 # B3LYP/6-311++G(d,p) empiricaldispersion=gd3bj scf=xqc pop=npa geom=c
 heck
 ----------------------------------------------------------------------

 --------------------------------------
 CID_62344578_JID_9756_Energie_neutraal
 --------------------------------------
 Structure from the checkpoint file:  "JID_9756.chk"
 Charge =  0 Multiplicity = 1

 SCF Done:  E(RB3LYP) =  -846.267893970     A.U. after   15 cycles
 Normal termination of Gaussian 16 at Mon Dec 14 14:21:39 2020.

 ----------------------------------------------------------------------
 # B3LYP/6-311++G(d,p) empiricaldispersion=gd3bj scf=xqc pop=npa geom=c
 heck
 ----------------------------------------------------------------------

 ------------------------------------
 CID_62344578_JID_9756_Energie_kation
 ------------------------------------
 Structure from the checkpoint file:  "JID_9756.chk"
 Charge =  1 Multiplicity = 2

 SCF Done:  E(UB3LYP) =  -845.986750429     A.U. after   24 cycles
 Normal termination of Gaussian 16 at Mon Dec 14 14:52:59 2020.
 Gaussian 16:  ES64L-G16RevA.03 25-Dec-2016

 ----------------------------------------------------------------------
 # B3LYP/6-311++G(d,p) empiricaldispersion=gd3bj scf=xqc pop=npa geom=c
 heck
 ----------------------------------------------------------------------

 -----------------------------------
 CID_62344578_JID_9756_Energie_anion
 -----------------------------------
 Structure from the checkpoint file:  "JID_9756.chk"
 Charge = -1 Multiplicity = 2

                         Standard orientation:
 ---------------------------------------------------------------------
 Center     Atomic      Atomic             Coordinates (Angstroms)
 Number     Number       Type             X           Y           Z
 ---------------------------------------------------------------------
      1          6           0        3.035287    2.484340   -0.165183
      2          6           0        3.763080    1.141684   -0.352530
      3          6           0        2.849781    0.031407   -0.742609
      4          6           0        2.704173   -0.730475   -1.862747
      5          6           0        1.595401   -1.610004   -1.624218
      6          6           0        1.125800   -1.333324   -0.373522
      7          8           0        1.893139   -0.327796    0.176222
      8          6           0       -0.035626   -1.864923    0.409008
      9          6           0        0.295380   -2.252524    1.873745
     10          7           0        0.747654   -1.248422    2.826200
     11          7           0       -1.297784   -1.075192    0.268872
     12          6           0       -2.044104   -1.569940   -0.905044
     13          6           0       -3.386701   -0.866325   -1.079919
     14          8           0       -3.231336    0.539577   -1.216371
     15          6           0       -2.548661    1.016438   -0.075975
     16          6           0       -1.163874    0.378545    0.112808
     17          6           0       -0.633927    1.234020    1.265899
     18          6           0       -1.042925    2.673984    0.847416
     19          6           0       -2.252830    2.511905   -0.120808
     20          1           0        2.525499    2.780513   -1.088106
     21          1           0        3.742720    3.274585    0.107738
     22          1           0        2.283041    2.413362    0.626576
     23          1           0        4.527996    1.235155   -1.131171
     24          1           0        4.289191    0.880053    0.575841
     25          1           0        3.314802   -0.672973   -2.753061
     26          1           0        1.199092   -2.358701   -2.295986
     27          1           0       -0.258104   -2.828368   -0.064710
     28          1           0       -0.608404   -2.719251    2.280964
     29          1           0        1.065961   -3.033218    1.821236
     30          1           0        0.011950   -0.566473    2.983761
     31          1           0        1.537946   -0.738713    2.438664
     32          1           0       -2.229914   -2.642194   -0.773321
     33          1           0       -1.456802   -1.439376   -1.833264
     34          1           0       -3.878879   -1.221277   -1.990104
     35          1           0       -4.034314   -1.090008   -0.216455
     36          1           0       -3.142217    0.773082    0.823633
     37          1           0       -0.574122    0.615413   -0.793493
     38          1           0        0.437722    1.133483    1.428496
     39          1           0       -1.152386    0.949639    2.189905
     40          1           0       -0.210564    3.172879    0.340959
     41          1           0       -1.292851    3.283150    1.720850
     42          1           0       -1.984132    2.785838   -1.146471
     43          1           0       -3.118279    3.115594    0.165280
 ---------------------------------------------------------------------

 SCF Done:  E(UB3LYP) =  -846.255483729     A.U. after   33 cycles
 SCF Done:  E(UB3LYP) =  -846.255483729     a.u. after    1 cycles

 The electronic state is 2-A.
 Alpha  occ. eigenvalues --  -19.09204 -19.04086 -14.22350 -14.19791 -10.13170
 Alpha  occ. eigenvalues --  -10.13039 -10.12967 -10.12902 -10.11979 -10.10712
 Alpha  occ. eigenvalues --  -10.10475 -10.10300 -10.08917 -10.08549 -10.08287
 Alpha  occ. eigenvalues --  -10.08041 -10.07668 -10.07415 -10.07147  -1.01554
 Alpha  occ. eigenvalues --   -0.96080  -0.84018  -0.79000  -0.75236  -0.71201
 Alpha  occ. eigenvalues --   -0.70740  -0.67222  -0.64992  -0.62916  -0.61451
 Alpha  occ. eigenvalues --   -0.58067  -0.54789  -0.53438  -0.51640  -0.50785
 Alpha  occ. eigenvalues --   -0.48535  -0.48336  -0.45821  -0.42711  -0.41583
 Alpha  occ. eigenvalues --   -0.40308  -0.39602  -0.38925  -0.37234  -0.36634
 Alpha  occ. eigenvalues --   -0.36140  -0.35725  -0.35071  -0.34839  -0.33891
 Alpha  occ. eigenvalues --   -0.32278  -0.32228  -0.31686  -0.31135  -0.29631
 Alpha  occ. eigenvalues --   -0.29620  -0.28552  -0.28105  -0.27047  -0.26936
 Alpha  occ. eigenvalues --   -0.26094  -0.25890  -0.25743  -0.25379  -0.25041
 Alpha  occ. eigenvalues --   -0.24022  -0.22141  -0.19016  -0.17506  -0.15963
 Alpha  occ. eigenvalues --   -0.13659  -0.12655   0.04013
 Alpha virt. eigenvalues --    0.05579   0.06091   0.07231   0.07412   0.07709
 Alpha virt. eigenvalues --    0.08397   0.08773   0.09060   0.09287   0.09669
 Alpha virt. eigenvalues --    0.10153   0.10401   0.11050   0.11552   0.12049

  Beta  occ. eigenvalues --  -19.09186 -19.04083 -14.22345 -14.19784 -10.13166
  Beta  occ. eigenvalues --  -10.13036 -10.12956 -10.12882 -10.11974 -10.10707
  Beta  occ. eigenvalues --  -10.10454 -10.10293 -10.08892 -10.08539 -10.08283
  Beta  occ. eigenvalues --  -10.08035 -10.07661 -10.07396 -10.07111  -1.01521
  Beta  occ. eigenvalues --   -0.96072  -0.84002  -0.78986  -0.75224  -0.71162
  Beta  occ. eigenvalues --   -0.70706  -0.67190  -0.64966  -0.62900  -0.61419
  Beta  occ. eigenvalues --   -0.58045  -0.54723  -0.53404  -0.51604  -0.50753
  Beta  occ. eigenvalues --   -0.48513  -0.48309  -0.45777  -0.42683  -0.41566
  Beta  occ. eigenvalues --   -0.40287  -0.39577  -0.38898  -0.37208  -0.36601
  Beta  occ. eigenvalues --   -0.36103  -0.35693  -0.35045  -0.34806  -0.33865
  Beta  occ. eigenvalues --   -0.32257  -0.32187  -0.31661  -0.31114  -0.29603
  Beta  occ. eigenvalues --   -0.29597  -0.28510  -0.28064  -0.27014  -0.26914
  Beta  occ. eigenvalues --   -0.26071  -0.25866  -0.25720  -0.25356  -0.25022
  Beta  occ. eigenvalues --   -0.24007  -0.22128  -0.18973  -0.17488  -0.15941
  Beta  occ. eigenvalues --   -0.13632  -0.12603
  Beta virt. eigenvalues --    0.05953   0.06613   0.06623   0.07478   0.07949
  Beta virt. eigenvalues --    0.08154   0.08708   0.08874   0.09210   0.09606
  Beta virt. eigenvalues --    0.10195   0.10403   0.10686   0.11202   0.11648

 Mulliken charges and spin densities:
               1          2
     1  C    0.650822  -1.118684
     2  C    0.435190  -0.957216
     3  C    0.187296   0.356963
     4  C   -0.511589   0.106606
     5  C   -0.171263  -0.108023
     6  C    0.511175  -0.527811
     7  O    0.041649   0.017759
     8  C    0.102996  -0.229203
     9  C   -0.309795  -0.268282
    10  N   -0.288111   0.010133
    11  N    0.452185   0.043785
    12  C    0.377294  -0.360011
    13  C    0.107773  -0.501488
    14  O   -0.037100   0.014773
    15  C   -0.553760   0.090070
    16  C   -0.702761   0.074081
    17  C    0.238793  -0.043201
    18  C   -0.234680  -0.465756
    19  C   -0.148187  -0.360417
    20  H    0.038641   0.094611
    21  H   -0.521338   0.675652
    22  H    0.013038   0.141530
    23  H   -0.372049   0.555859
    24  H   -0.075056   0.224928
    25  H   -0.652871   0.829917
    26  H   -0.651243   0.814218
    27  H    0.095270   0.114514
    28  H    0.083570   0.098294
    29  H    0.038570   0.130636
    30  H    0.144492   0.071539
    31  H    0.191874   0.044114
    32  H   -0.663330   0.828939
    33  H    0.370571  -0.213539
    34  H   -0.303412   0.496164
    35  H    0.166662  -0.049580
    36  H   -0.000077   0.156388
    37  H    0.314715  -0.094571
    38  H    0.182065  -0.019068
    39  H    0.188912  -0.032191
    40  H    0.125260  -0.020018
    41  H   -0.078530   0.244977
    42  H    0.091996   0.093291
    43  H    0.124344   0.039319
 Sum of Mulliken charges =  -1.00000   1.00000

 Dipole moment (field-independent basis, Debye):
    X=             -4.6820    Y=              1.3687    Z=              2.7106  Tot=              5.5805
 Quadrupole moment (field-independent basis, Debye-Ang):
   XX=           -194.8241   YY=           -177.2045   ZZ=           -167.3137
   XY=            -15.1188   XZ=              0.2100   YZ=             -3.9603

 Summary of Natural Population Analysis:

                                       Natural Population
                Natural  -----------------------------------------------
    Atom  No    Charge         Core      Valence    Rydberg      Total
 -----------------------------------------------------------------------
      C    1   -0.28030      0.99966     2.27517    0.00547     3.28030
      C    2   -0.21216      0.99960     2.20361    0.00896     3.21216
      C    3    0.15710      0.99945     1.82838    0.01506     2.84290
      C    4   -0.14608      0.99948     2.13794    0.00866     3.14608
      C    5   -0.13926      0.99948     2.13111    0.00867     3.13926
      C    6    0.14046      0.99942     1.84454    0.01558     2.85954
      O    7   -0.25438      0.99985     3.24508    0.00946     4.25438
      C    8   -0.03769      0.99951     2.02305    0.01513     3.03769
      C    9   -0.08412      0.99961     2.07279    0.01173     3.08412
      N   10   -0.42063      0.99978     2.91204    0.00881     3.92063
      N   11   -0.27982      0.99969     2.76703    0.01310     3.77982
      C   12   -0.10021      0.99960     2.08893    0.01167     3.10021
      C   13   -0.01425      0.99956     2.00134    0.01335     3.01425
      O   14   -0.29735      0.99988     3.28864    0.00884     4.29735
      C   15    0.06776      0.99947     1.91897    0.01380     2.93224
      C   16   -0.02291      0.99952     2.01015    0.01324     3.02291
      C   17   -0.19975      0.99960     2.19037    0.00978     3.19975
      C   18   -0.19117      0.99965     2.18421    0.00731     3.19117
      C   19   -0.19607      0.99961     2.18870    0.00776     3.19607
      H   20    0.09824      0.00000     0.40046    0.00130     0.40176
      H   21    0.10078      0.00000     0.39750    0.00172     0.39922
      H   22    0.09728      0.00000     0.40124    0.00148     0.40272
      H   23    0.10828      0.00000     0.39002    0.00170     0.39172
      H   24    0.10395      0.00000     0.39474    0.00131     0.39605
      H   25    0.11057      0.00000     0.38820    0.00124     0.38943
      H   26    0.11106      0.00000     0.38750    0.00144     0.38894
      H   27    0.10910      0.00000     0.38844    0.00246     0.39090
      H   28    0.09398      0.00000     0.40484    0.00118     0.40602
      H   29    0.09058      0.00000     0.40848    0.00094     0.40942
      H   30    0.17237      0.00000     0.32506    0.00256     0.32763
      H   31    0.17798      0.00000     0.31932    0.00270     0.32202
      H   32    0.10135      0.00000     0.39656    0.00209     0.39865
      H   33    0.08800      0.00000     0.41024    0.00176     0.41200
      H   34    0.09411      0.00000     0.40477    0.00113     0.40589
      H   35    0.07888      0.00000     0.41967    0.00145     0.42112
      H   36    0.07948      0.00000     0.41866    0.00185     0.42052
      H   37    0.08987      0.00000     0.40757    0.00256     0.41013
      H   38    0.11075      0.00000     0.38776    0.00149     0.38925
      H   39    0.09256      0.00000     0.40604    0.00140     0.40744
      H   40    0.10115      0.00000     0.39773    0.00112     0.39885
      H   41    0.09834      0.00000     0.40077    0.00090     0.40166
      H   42    0.10299      0.00000     0.39560    0.00141     0.39701
      H   43    0.09921      0.00000     0.39979    0.00101     0.40079
 =======================================================================
   * Total *    0.00000     18.99243    52.76301    0.24456    72.00000

 Normal termination of Gaussian 16 at Mon Dec 14 15:33:47 2020.
