 Gaussian 16, Revision A.03,

 -----------------------------------------------------------
 # opt freq B3LYP/6-31G(d) empiricaldispersion=gd3bj scf=xqc
 -----------------------------------------------------------

 ------------------------------
 CID_83482477_JID_3449_neutraal
 ------------------------------
 Symbolic Z-matrix:
 Charge =  0 Multiplicity = 1

 SCF Done:  E(RB3LYP) =  -591.481522044     A.U. after   14 cycles
 SCF Done:  E(RB3LYP) =  -591.485692385     A.U. after   12 cycles
 SCF Done:  E(RB3LYP) =  -591.486261004     A.U. after   11 cycles
 SCF Done:  E(RB3LYP) =  -591.486416945     A.U. after   11 cycles
 SCF Done:  E(RB3LYP) =  -591.486453812     A.U. after    9 cycles
 SCF Done:  E(RB3LYP) =  -591.486475303     A.U. after   10 cycles
 SCF Done:  E(RB3LYP) =  -591.486483008     A.U. after    9 cycles
 SCF Done:  E(RB3LYP) =  -591.486485392     A.U. after    8 cycles
 SCF Done:  E(RB3LYP) =  -591.486486320     A.U. after    8 cycles
 SCF Done:  E(RB3LYP) =  -591.486486497     A.U. after    7 cycles
 SCF Done:  E(RB3LYP) =  -591.486791526     A.U. after   10 cycles
 SCF Done:  E(RB3LYP) =  -591.486812577     A.U. after    9 cycles
 SCF Done:  E(RB3LYP) =  -591.486815157     A.U. after    9 cycles
 SCF Done:  E(RB3LYP) =  -591.486815297     A.U. after    8 cycles
 SCF Done:  E(RB3LYP) =  -591.486815386     A.U. after    7 cycles
 SCF Done:  E(RB3LYP) =  -591.486815484     A.U. after    7 cycles
 Optimization completed.
    -- Stationary point found.
 Normal termination of Gaussian 16 at Wed Dec  9 23:35:57 2020.

 --------------------------------------------------------------------
 #N Geom=AllCheck Guess=TCheck SCRF=Check GenChk RB3LYP/6-31G(d) Freq
 --------------------------------------------------------------------

 Structure from the checkpoint file:  "JID_3449.chk"
 ------------------------------
 CID_83482477_JID_3449_neutraal
 ------------------------------
 Charge =  0 Multiplicity = 1

 SCF Done:  E(RB3LYP) =  -591.486815484     A.U. after    1 cycles

  Exact polarizability: 140.294   5.002 114.652  -3.903   0.331  84.633
 Approx polarizability: 180.264   1.374 183.992  -9.140  -0.063 127.769

                      1                      2                      3
                      A                      A                      A
 Frequencies --     46.8828                65.4454                75.1847
 Red. masses --      2.8919                 2.2489                 1.4799
 Frc consts  --      0.0037                 0.0057                 0.0049
 IR Inten    --      0.4183                 0.8985                 0.1218

                      4                      5                      6
                      A                      A                      A
 Frequencies --    108.9325               133.6790               156.5109
 Red. masses --      2.6763                 2.5195                 3.0375
 Frc consts  --      0.0187                 0.0265                 0.0438
 IR Inten    --      1.3848                 2.6043                 3.9622

                      7                      8                      9
                      A                      A                      A
 Frequencies --    228.0989               240.4634               246.6328
 Red. masses --      3.0195                 2.3250                 1.5496
 Frc consts  --      0.0926                 0.0792                 0.0555
 IR Inten    --      3.4975                 1.3870                 1.2901

                     10                     11                     12
                      A                      A                      A
 Frequencies --    263.3467               304.3017               331.8737
 Red. masses --      2.5993                 2.5457                 1.8340
 Frc consts  --      0.1062                 0.1389                 0.1190
 IR Inten    --      3.7876                 8.7944                 4.0823

                     13                     14                     15
                      A                      A                      A
 Frequencies --    371.7070               416.0756               485.6180
 Red. masses --      3.0460                 3.3931                 3.3298
 Frc consts  --      0.2480                 0.3461                 0.4626
 IR Inten    --      3.2550                 0.8579                 0.5167

                     16                     17                     18
                      A                      A                      A
 Frequencies --    501.8689               540.4007               631.1434
 Red. masses --      3.2528                 4.1601                 4.2884
 Frc consts  --      0.4827                 0.7158                 1.0065
 IR Inten    --      2.1109                 3.8804                 8.4084

                     19                     20                     21
                      A                      A                      A
 Frequencies --    638.8847               688.6550               740.3812
 Red. masses --      2.6937                 4.7287                 6.2688
 Frc consts  --      0.6478                 1.3213                 2.0246
 IR Inten    --      2.3753                 0.4509                 7.1675

                     22                     23                     24
                      A                      A                      A
 Frequencies --    762.6423               822.6472               851.0366
 Red. masses --      2.6554                 2.7466                 3.7342
 Frc consts  --      0.9100                 1.0952                 1.5935
 IR Inten    --     14.7887                94.9942                56.1426

                     25                     26                     27
                      A                      A                      A
 Frequencies --    879.4221               940.8418               951.7948
 Red. masses --      1.6124                 4.1485                 2.2282
 Frc consts  --      0.7347                 2.1636                 1.1893
 IR Inten    --     14.3771                52.4286                 3.4169

                     28                     29                     30
                      A                      A                      A
 Frequencies --    979.1674               989.0941              1007.8932
 Red. masses --      2.3047                 1.7923                 1.9382
 Frc consts  --      1.3019                 1.0331                 1.1600
 IR Inten    --      3.7278                 3.3517                 9.0255

                     31                     32                     33
                      A                      A                      A
 Frequencies --   1100.4975              1128.8801              1131.8841
 Red. masses --      2.3847                 1.7460                 5.1496
 Frc consts  --      1.7016                 1.3109                 3.8871
 IR Inten    --      5.9552                 3.1647                15.4877

                     34                     35                     36
                      A                      A                      A
 Frequencies --   1146.2926              1157.3389              1185.3274
 Red. masses --      4.5215                 1.3156                 2.0581
 Frc consts  --      3.5004                 1.0382                 1.7037
 IR Inten    --    131.9453                 3.9006                 8.1408

                     37                     38                     39
                      A                      A                      A
 Frequencies --   1192.9075              1199.6330              1218.4415
 Red. masses --      1.4675                 1.1276                 1.7591
 Frc consts  --      1.2304                 0.9561                 1.5387
 IR Inten    --      1.0167                 4.3131                22.0384

                     40                     41                     42
                      A                      A                      A
 Frequencies --   1237.0699              1259.5443              1304.2560
 Red. masses --      1.6921                 2.1795                 1.6967
 Frc consts  --      1.5257                 2.0372                 1.7005
 IR Inten    --      4.9567                 4.0597                17.9324

                     43                     44                     45
                      A                      A                      A
 Frequencies --   1324.6648              1347.2770              1361.3599
 Red. masses --      1.3759                 1.3694                 1.7602
 Frc consts  --      1.4225                 1.4646                 1.9220
 IR Inten    --      2.7474                 3.1501                10.5615

                     46                     47                     48
                      A                      A                      A
 Frequencies --   1386.3709              1405.7448              1411.1242
 Red. masses --      1.4949                 1.5770                 1.4999
 Frc consts  --      1.6929                 1.8360                 1.7597
 IR Inten    --      4.7105                 5.4787                32.5947

                     49                     50                     51
                      A                      A                      A
 Frequencies --   1440.1803              1467.1098              1498.6547
 Red. masses --      3.0321                 2.1559                 1.1907
 Frc consts  --      3.7053                 2.7340                 1.5757
 IR Inten    --     53.3676                16.5800                 4.1965

                     52                     53                     54
                      A                      A                      A
 Frequencies --   1500.8364              1504.3474              1509.9644
 Red. masses --      1.5266                 1.1301                 1.2410
 Frc consts  --      2.0261                 1.5069                 1.6671
 IR Inten    --     12.3869                 8.7196                 1.7901

                     55                     56                     57
                      A                      A                      A
 Frequencies --   1513.0989              1514.5966              1517.7302
 Red. masses --      1.0877                 1.1022                 1.1329
 Frc consts  --      1.4673                 1.4898                 1.5376
 IR Inten    --      4.1123                 5.5532                 2.9185

                     58                     59                     60
                      A                      A                      A
 Frequencies --   1519.6485              1522.9900              1533.3978
 Red. masses --      1.1723                 1.0578                 1.8441
 Frc consts  --      1.5950                 1.4456                 2.5547
 IR Inten    --      4.6781                11.3434                19.0036

                     61                     62                     63
                      A                      A                      A
 Frequencies --   1539.9931              1547.1921              1634.8291
 Red. masses --      1.2860                 1.3186                 7.1679
 Frc consts  --      1.7969                 1.8597                11.2872
 IR Inten    --      8.7108                 6.2701                12.0551

                     64                     65                     66
                      A                      A                      A
 Frequencies --   2980.0191              2993.5818              3003.1972
 Red. masses --      1.0467                 1.0697                 1.0682
 Frc consts  --      5.4767                 5.6481                 5.6762
 IR Inten    --     38.8530                76.3761                58.7917

                     67                     68                     69
                      A                      A                      A
 Frequencies --   3018.0157              3039.3619              3050.8173
 Red. masses --      1.0697                 1.0956                 1.0635
 Frc consts  --      5.7404                 5.9632                 5.8318
 IR Inten    --     39.5321                51.9690                34.7182

                     70                     71                     72
                      A                      A                      A
 Frequencies --   3054.5175              3059.6802              3075.2646
 Red. masses --      1.0874                 1.0459                 1.0907
 Frc consts  --      5.9774                 5.7691                 6.0772
 IR Inten    --     14.8926                64.1676                39.6093

                     73                     74                     75
                      A                      A                      A
 Frequencies --   3100.5245              3120.6244              3138.0416
 Red. masses --      1.1054                 1.1018                 1.0958
 Frc consts  --      6.2607                 6.3216                 6.3575
 IR Inten    --     46.4365                20.9544                35.3732

                     76                     77                     78
                      A                      A                      A
 Frequencies --   3142.9116              3175.2334              3474.3951
 Red. masses --      1.0913                 1.0997                 1.0738
 Frc consts  --      6.3514                 6.5322                 7.6370
 IR Inten    --     11.7773                10.0468                 0.9321

 - Thermochemistry -
 -------------------
 Temperature   298.150 Kelvin.  Pressure   1.00000 Atm.
 Atom     1 has atomic number  6 and mass  12.00000

 Molecular mass:   181.12151 amu.
 Principal axes and moments of inertia in atomic units:
                           1         2         3
     Eigenvalues --  1060.574523657.943314252.35350
           X            0.99976   0.02165   0.00168
           Y           -0.02165   0.99976  -0.00345
           Z           -0.00175   0.00341   0.99999
 This molecule is an asymmetric top.
 Rotational symmetry number  1.
 Warning -- assumption of classical behavior for rotation
           may cause significant error
 Rotational temperatures (Kelvin)      0.08167     0.02368     0.02037
 Rotational constants (GHZ):           1.70166     0.49338     0.42441
 Zero-point vibrational energy     640540.4 (Joules/Mol)
                                  153.09284 (Kcal/Mol)
 Warning -- explicit consideration of  17 degrees of freedom as
           vibrations may cause significant error
 Vibrational temperatures:     67.45    94.16   108.17   156.73   192.33
          (Kelvin)            225.18   328.18   345.97   354.85   378.90
                              437.82   477.49   534.80   598.64   698.70
                              722.08   777.52   908.07   919.21   990.82
                             1065.24  1097.27  1183.61  1224.45  1265.29
                             1353.66  1369.42  1408.80  1423.09  1450.13
                             1583.37  1624.21  1628.53  1649.26  1665.15
                             1705.42  1716.33  1726.00  1753.07  1779.87
                             1812.20  1876.53  1905.90  1938.43  1958.69
                             1994.68  2022.55  2030.29  2072.10  2110.84
                             2156.23  2159.37  2164.42  2172.50  2177.01
                             2179.17  2183.68  2186.44  2191.24  2206.22
                             2215.71  2226.06  2352.15  4287.58  4307.10
                             4320.93  4342.25  4372.96  4389.45  4394.77
                             4402.20  4424.62  4460.96  4489.88  4514.94
                             4521.95  4568.45  4998.88

 Zero-point correction=                           0.243969 (Hartree/Particle)
 Thermal correction to Energy=                    0.256634
 Thermal correction to Enthalpy=                  0.257578
 Thermal correction to Gibbs Free Energy=         0.204473
 Sum of electronic and zero-point Energies=           -591.242847
 Sum of electronic and thermal Energies=              -591.230182
 Sum of electronic and thermal Enthalpies=            -591.229237
 Sum of electronic and thermal Free Energies=         -591.282342

                     E (Thermal)             CV                S
                      KCal/Mol        Cal/Mol-Kelvin    Cal/Mol-Kelvin
 Total                  161.040             46.992            111.768
 Electronic               0.000              0.000              0.000
 Translational            0.889              2.981             41.489
 Rotational               0.889              2.981             31.179
 Vibrational            159.263             41.031             39.101
 Vibration     1          0.595              1.979              4.945
 Vibration     2          0.597              1.971              4.286
 Vibration     3          0.599              1.966              4.013
 Vibration     4          0.606              1.942              3.288
 Vibration     5          0.613              1.920              2.892
 Vibration     6          0.620              1.895              2.592
 Vibration     7          0.651              1.798              1.894
 Vibration     8          0.658              1.778              1.799
 Vibration     9          0.661              1.768              1.755
 Vibration    10          0.670              1.740              1.639
 Vibration    11          0.695              1.666              1.393
 Vibration    12          0.714              1.612              1.251
 Vibration    13          0.743              1.530              1.073
 Vibration    14          0.779              1.435              0.905
 Vibration    15          0.842              1.282              0.695
 Vibration    16          0.857              1.246              0.653
 Vibration    17          0.895              1.161              0.564

 Optimization completed.
    -- Stationary point found.
 Normal termination of Gaussian 16 at Wed Dec  9 23:43:25 2020.

 ----------------------------------------------------------------------
 # B3LYP/6-311++G(d,p) empiricaldispersion=gd3bj scf=xqc pop=npa geom=c
 heck
 ----------------------------------------------------------------------

 --------------------------------------
 CID_83482477_JID_3449_Energie_neutraal
 --------------------------------------
 Structure from the checkpoint file:  "JID_3449.chk"
 Charge =  0 Multiplicity = 1

 SCF Done:  E(RB3LYP) =  -591.651736878     A.U. after   15 cycles
 Normal termination of Gaussian 16 at Wed Dec  9 23:46:51 2020.

 ----------------------------------------------------------------------
 # B3LYP/6-311++G(d,p) empiricaldispersion=gd3bj scf=xqc pop=npa geom=c
 heck
 ----------------------------------------------------------------------

 ------------------------------------
 CID_83482477_JID_3449_Energie_kation
 ------------------------------------
 Structure from the checkpoint file:  "JID_3449.chk"
 Charge =  1 Multiplicity = 2

 SCF Done:  E(UB3LYP) =  -591.365891134     A.U. after   23 cycles
 Normal termination of Gaussian 16 at Wed Dec  9 23:54:21 2020.
 Gaussian 16:  ES64L-G16RevA.03 25-Dec-2016

 ----------------------------------------------------------------------
 # B3LYP/6-311++G(d,p) empiricaldispersion=gd3bj scf=xqc pop=npa geom=c
 heck
 ----------------------------------------------------------------------

 -----------------------------------
 CID_83482477_JID_3449_Energie_anion
 -----------------------------------
 Structure from the checkpoint file:  "JID_3449.chk"
 Charge = -1 Multiplicity = 2

                         Standard orientation:
 ---------------------------------------------------------------------
 Center     Atomic      Atomic             Coordinates (Angstroms)
 Number     Number       Type             X           Y           Z
 ---------------------------------------------------------------------
      1          6           0        1.011117    2.073749   -0.559001
      2          7           0        0.452884    0.741463   -0.414577
      3          6           0       -0.869742    0.472770   -0.116166
      4          6           0       -0.975772   -0.895925   -0.073067
      5          6           0       -2.277916   -1.588876    0.182634
      6          6           0       -3.420093   -0.565085   -0.014198
      7          7           0       -3.185229    0.741893    0.621416
      8          6           0       -2.006177    1.432695    0.076719
      9          7           0        0.241670   -1.482169   -0.322267
     10          6           0        1.089420   -0.484977   -0.521906
     11          6           0        2.551660   -0.677684   -0.783999
     12          8           0        3.347117   -0.853212    0.383976
     13          6           0        3.396938    0.283697    1.215843
     14          1           0        1.980100    2.017404   -1.054894
     15          1           0        1.146045    2.557132    0.415239
     16          1           0        0.345306    2.690969   -1.169166
     17          1           0       -2.309408   -1.998038    1.203619
     18          1           0       -2.405949   -2.442268   -0.494746
     19          1           0       -4.364676   -0.963243    0.371449
     20          1           0       -3.560824   -0.380652   -1.086816
     21          1           0       -3.027392    0.586686    1.616798
     22          1           0       -2.291846    1.902415   -0.877467
     23          1           0       -1.746930    2.254285    0.757249
     24          1           0        2.665737   -1.604978   -1.347989
     25          1           0        2.957748    0.148249   -1.391064
     26          1           0        3.794843    1.164054    0.682507
     27          1           0        2.409424    0.541035    1.627271
     28          1           0        4.068989    0.042157    2.043043
 ---------------------------------------------------------------------

 SCF Done:  E(UB3LYP) =  -591.642594832     A.U. after   29 cycles

 The electronic state is 2-A.
 Alpha  occ. eigenvalues --  -19.02678 -14.26702 -14.20597 -14.18712 -10.12596
 Alpha  occ. eigenvalues --  -10.11999 -10.10843 -10.10428 -10.10398 -10.10159
 Alpha  occ. eigenvalues --  -10.08985 -10.07880 -10.07500  -0.93999  -0.91085
 Alpha  occ. eigenvalues --   -0.81745  -0.78363  -0.68113  -0.66177  -0.63084
 Alpha  occ. eigenvalues --   -0.61137  -0.56898  -0.53074  -0.52069  -0.47145
 Alpha  occ. eigenvalues --   -0.44962  -0.41389  -0.39540  -0.39281  -0.37153
 Alpha  occ. eigenvalues --   -0.36756  -0.35897  -0.35489  -0.32880  -0.32463
 Alpha  occ. eigenvalues --   -0.31416  -0.31038  -0.29949  -0.28638  -0.28137
 Alpha  occ. eigenvalues --   -0.26864  -0.26249  -0.25170  -0.22522  -0.17368
 Alpha  occ. eigenvalues --   -0.16549  -0.16055  -0.13955  -0.11351   0.04321
 Alpha virt. eigenvalues --    0.06711   0.07663   0.07968   0.08979   0.09347
 Alpha virt. eigenvalues --    0.09897   0.10181   0.10739   0.10807   0.11792
 Alpha virt. eigenvalues --    0.12253   0.12719   0.13526   0.14131   0.14340

  Beta  occ. eigenvalues --  -19.02670 -14.26697 -14.20583 -14.18708 -10.12582
  Beta  occ. eigenvalues --  -10.11998 -10.10807 -10.10393 -10.10315 -10.10150
  Beta  occ. eigenvalues --  -10.08982 -10.07879 -10.07494  -0.93984  -0.91069
  Beta  occ. eigenvalues --   -0.81718  -0.78345  -0.68095  -0.66145  -0.63042
  Beta  occ. eigenvalues --   -0.61049  -0.56842  -0.53033  -0.52017  -0.47114
  Beta  occ. eigenvalues --   -0.44919  -0.41321  -0.39506  -0.39236  -0.37120
  Beta  occ. eigenvalues --   -0.36723  -0.35851  -0.35457  -0.32835  -0.32430
  Beta  occ. eigenvalues --   -0.31382  -0.30996  -0.29888  -0.28606  -0.28113
  Beta  occ. eigenvalues --   -0.26831  -0.26218  -0.25146  -0.22480  -0.17344
  Beta  occ. eigenvalues --   -0.16519  -0.16031  -0.13936  -0.11333
  Beta virt. eigenvalues --    0.06676   0.07524   0.08313   0.08613   0.09366
  Beta virt. eigenvalues --    0.09779   0.09963   0.10730   0.11055   0.11223
  Beta virt. eigenvalues --    0.12193   0.12744   0.13242   0.13786   0.14331

 Mulliken charges and spin densities:
               1          2
     1  C    1.895663  -2.240292
     2  N   -0.281552   0.349904
     3  C   -1.496246   1.698272
     4  C    0.699553  -0.548371
     5  C   -0.736868   0.258173
     6  C    0.004989  -0.390596
     7  N   -0.152570   0.136520
     8  C    1.332346  -2.207856
     9  N   -0.102547   0.056224
    10  C   -0.761173   0.833500
    11  C    0.780915  -1.281678
    12  O   -0.142462   0.048532
    13  C    0.327204  -0.672284
    14  H   -0.589977   0.716680
    15  H   -0.641952   0.871766
    16  H   -0.579934   0.745990
    17  H    0.070176   0.087297
    18  H    0.104782   0.032892
    19  H    0.021380   0.168658
    20  H    0.043458   0.087207
    21  H    0.003697   0.223982
    22  H   -0.139917   0.368114
    23  H   -0.321515   0.509712
    24  H    0.169486   0.011709
    25  H   -0.105063   0.276452
    26  H   -0.206419   0.352239
    27  H   -0.090725   0.257604
    28  H   -0.104727   0.249649
 Sum of Mulliken charges =  -1.00000   1.00000

 Dipole moment (field-independent basis, Debye):
    X=             -2.7179    Y=             -6.1181    Z=             -0.6844  Tot=              6.7296
 Quadrupole moment (field-independent basis, Debye-Ang):
   XX=           -135.3894   YY=           -135.1502   ZZ=           -107.8502
   XY=             -0.3404   XZ=              0.7227   YZ=              1.5441

 Summary of Natural Population Analysis:

                                       Natural Population
                Natural  -----------------------------------------------
    Atom  No    Charge         Core      Valence    Rydberg      Total
 -----------------------------------------------------------------------
      C    1   -0.17761      0.99963     2.16914    0.00884     3.17761
      N    2   -0.20103      0.99960     2.69052    0.01091     3.70103
      C    3    0.05501      0.99941     1.93291    0.01267     2.94499
      C    4    0.04840      0.99944     1.93680    0.01536     2.95160
      C    5   -0.20653      0.99960     2.19946    0.00747     3.20653
      C    6   -0.08459      0.99964     2.07499    0.00997     3.08459
      N    7   -0.33241      0.99977     2.82043    0.01221     3.83241
      C    8   -0.10030      0.99960     2.08860    0.01210     3.10030
      N    9   -0.25299      0.99968     2.74449    0.00882     3.75299
      C   10    0.17169      0.99959     1.81137    0.01736     2.82831
      C   11   -0.03156      0.99953     2.01815    0.01389     3.03156
      O   12   -0.29321      0.99989     3.28383    0.00949     4.29321
      C   13   -0.10203      0.99962     2.09243    0.00999     3.10203
      H   14    0.10548      0.00000     0.39139    0.00314     0.39452
      H   15    0.10576      0.00000     0.38820    0.00603     0.39424
      H   16    0.10392      0.00000     0.39353    0.00255     0.39608
      H   17    0.09713      0.00000     0.40113    0.00174     0.40287
      H   18    0.10279      0.00000     0.39582    0.00139     0.39721
      H   19    0.09211      0.00000     0.40692    0.00098     0.40789
      H   20    0.08984      0.00000     0.40885    0.00130     0.41016
      H   21    0.17011      0.00000     0.32741    0.00248     0.32989
      H   22    0.09656      0.00000     0.40171    0.00174     0.40344
      H   23    0.10611      0.00000     0.39187    0.00202     0.39389
      H   24    0.10185      0.00000     0.39684    0.00131     0.39815
      H   25    0.08463      0.00000     0.41382    0.00155     0.41537
      H   26    0.07957      0.00000     0.41867    0.00177     0.42043
      H   27    0.08280      0.00000     0.41549    0.00171     0.41720
      H   28    0.08851      0.00000     0.41044    0.00105     0.41149
 =======================================================================
   * Total *    0.00000     12.99498    35.82519    0.17984    49.00000

 Normal termination of Gaussian 16 at Thu Dec 10 00:03:45 2020.
