 Gaussian 16, Revision A.03,

 -----------------------------------------------------------
 # opt freq B3LYP/6-31G(d) empiricaldispersion=gd3bj scf=xqc
 -----------------------------------------------------------

 -------------------------------
 CID_101028077_JID_9662_neutraal
 -------------------------------
 Symbolic Z-matrix:
 Charge =  0 Multiplicity = 1

 SCF Done:  E(RB3LYP) =  -896.882546368     A.U. after   18 cycles
 SCF Done:  E(RB3LYP) =  -896.890460362     A.U. after   15 cycles
 SCF Done:  E(RB3LYP) =  -896.884085475     A.U. after   16 cycles
 SCF Done:  E(RB3LYP) =  -896.892393019     A.U. after   15 cycles
 SCF Done:  E(RB3LYP) =  -896.892854091     A.U. after   14 cycles
 SCF Done:  E(RB3LYP) =  -896.893117958     A.U. after   13 cycles
 SCF Done:  E(RB3LYP) =  -896.893145224     A.U. after   12 cycles
 SCF Done:  E(RB3LYP) =  -896.893170148     A.U. after   11 cycles
 SCF Done:  E(RB3LYP) =  -896.893180687     A.U. after   10 cycles
 SCF Done:  E(RB3LYP) =  -896.893188658     A.U. after   10 cycles
 SCF Done:  E(RB3LYP) =  -896.893192139     A.U. after   10 cycles
 SCF Done:  E(RB3LYP) =  -896.893195834     A.U. after   10 cycles
 SCF Done:  E(RB3LYP) =  -896.893198052     A.U. after   10 cycles
 SCF Done:  E(RB3LYP) =  -896.893198352     A.U. after    8 cycles
 SCF Done:  E(RB3LYP) =  -896.893198418     A.U. after    7 cycles
 Optimization completed.
    -- Stationary point found.
 Normal termination of Gaussian 16 at Mon Dec 14 13:32:26 2020.

 --------------------------------------------------------------------
 #N Geom=AllCheck Guess=TCheck SCRF=Check GenChk RB3LYP/6-31G(d) Freq
 --------------------------------------------------------------------

 Structure from the checkpoint file:  "JID_9662.chk"
 -------------------------------
 CID_101028077_JID_9662_neutraal
 -------------------------------
 Charge =  0 Multiplicity = 1

 SCF Done:  E(RB3LYP) =  -896.893198418     A.U. after    1 cycles

  Exact polarizability: 191.803   5.324 170.628   6.894  -4.193 107.294
 Approx polarizability: 304.702  23.874 306.598  18.894 -11.490 163.696

                      1                      2                      3
                      A                      A                      A
 Frequencies --     45.9652                48.2050                63.9841
 Red. masses --      4.9583                 3.7465                 5.4226
 Frc consts  --      0.0062                 0.0051                 0.0131
 IR Inten    --      0.7128                 5.5315                 3.9236

                      4                      5                      6
                      A                      A                      A
 Frequencies --     73.8689               106.2885               150.5762
 Red. masses --     10.4061                 1.2118                 3.7997
 Frc consts  --      0.0335                 0.0081                 0.0508
 IR Inten    --      0.1666                 0.3523                 2.0187

                      7                      8                      9
                      A                      A                      A
 Frequencies --    156.6469               159.0330               194.0783
 Red. masses --      2.4372                 2.6605                 3.6528
 Frc consts  --      0.0352                 0.0396                 0.0811
 IR Inten    --      0.8731                 1.0675                 0.0886

                     10                     11                     12
                      A                      A                      A
 Frequencies --    208.8577               227.0505               237.0298
 Red. masses --      1.2927                 1.9878                 2.2755
 Frc consts  --      0.0332                 0.0604                 0.0753
 IR Inten    --      0.0825                 0.6090                 2.5325

                     13                     14                     15
                      A                      A                      A
 Frequencies --    257.6774               284.9850               313.1049
 Red. masses --      3.1134                 2.3947                 3.3737
 Frc consts  --      0.1218                 0.1146                 0.1949
 IR Inten    --      3.6106                 2.4941                 0.8807

                     16                     17                     18
                      A                      A                      A
 Frequencies --    333.3405               360.2019               390.1811
 Red. masses --      5.4074                 6.5380                 5.9868
 Frc consts  --      0.3540                 0.4998                 0.5370
 IR Inten    --      0.6620                 1.8152                 0.9236

                     19                     20                     21
                      A                      A                      A
 Frequencies --    418.9434               465.4827               477.6321
 Red. masses --      3.2854                 6.2591                 4.3839
 Frc consts  --      0.3397                 0.7990                 0.5892
 IR Inten    --      0.7580                 4.0919                 2.2148

                     22                     23                     24
                      A                      A                      A
 Frequencies --    510.8964               546.2101               580.5518
 Red. masses --      4.1608                 4.8658                 3.6947
 Frc consts  --      0.6399                 0.8553                 0.7337
 IR Inten    --      1.2407                 3.8568                 4.5318

                     25                     26                     27
                      A                      A                      A
 Frequencies --    590.8976               599.8351               618.2236
 Red. masses --      3.5894                 4.2084                 4.8104
 Frc consts  --      0.7384                 0.8921                 1.0832
 IR Inten    --     16.5352                13.3753                 6.1819

                     28                     29                     30
                      A                      A                      A
 Frequencies --    633.3892               675.5234               694.0849
 Red. masses --      3.7157                 4.5702                 4.9395
 Frc consts  --      0.8783                 1.2287                 1.4020
 IR Inten    --      6.6266                 4.9870                18.4700

                     31                     32                     33
                      A                      A                      A
 Frequencies --    738.3881               755.3262               764.0713
 Red. masses --      4.5201                 2.7321                 4.9706
 Frc consts  --      1.4520                 0.9184                 1.7097
 IR Inten    --     17.9066                28.4222                 7.0159

                     34                     35                     36
                      A                      A                      A
 Frequencies --    782.4861               823.8082               837.9266
 Red. masses --      3.6213                 3.1960                 2.9766
 Frc consts  --      1.3064                 1.2780                 1.2314
 IR Inten    --     10.3363                12.3755                 7.0016

                     37                     38                     39
                      A                      A                      A
 Frequencies --    854.9162               890.3652               891.7525
 Red. masses --      2.2071                 2.4135                 2.3360
 Frc consts  --      0.9504                 1.1273                 1.0945
 IR Inten    --     11.7020                 5.8315                29.0687

                     40                     41                     42
                      A                      A                      A
 Frequencies --    921.0260               931.6477               934.8698
 Red. masses --      3.3110                 2.0389                 3.1941
 Frc consts  --      1.6548                 1.0427                 1.6447
 IR Inten    --     32.1284                 4.7877                 9.4706

                     43                     44                     45
                      A                      A                      A
 Frequencies --    938.9354               980.4957              1042.7424
 Red. masses --      2.5018                 1.2926                 1.7741
 Frc consts  --      1.2995                 0.7322                 1.1365
 IR Inten    --     12.4945                 0.5049                 3.8269

                     46                     47                     48
                      A                      A                      A
 Frequencies --   1055.5703              1065.3163              1102.8968
 Red. masses --      1.8107                 3.6372                 1.9673
 Frc consts  --      1.1887                 2.4321                 1.4099
 IR Inten    --      3.4042                 8.5947                 3.3723

                     49                     50                     51
                      A                      A                      A
 Frequencies --   1137.0717              1144.3829              1164.5996
 Red. masses --      2.0414                 1.9972                 2.0277
 Frc consts  --      1.5551                 1.5410                 1.6204
 IR Inten    --      4.0761                12.8866                33.2630

                     52                     53                     54
                      A                      A                      A
 Frequencies --   1174.2740              1192.6570              1193.4049
 Red. masses --      3.3794                 1.3768                 2.2303
 Frc consts  --      2.7455                 1.1539                 1.8715
 IR Inten    --     16.3547                 4.9263                33.2425

                     55                     56                     57
                      A                      A                      A
 Frequencies --   1220.9701              1251.9167              1292.9215
 Red. masses --      2.2134                 1.9449                 4.4028
 Frc consts  --      1.9441                 1.7960                 4.3363
 IR Inten    --     18.2782                 6.9105                67.9708

                     58                     59                     60
                      A                      A                      A
 Frequencies --   1321.8922              1350.1358              1402.8555
 Red. masses --      3.4632                 3.4392                 5.2944
 Frc consts  --      3.5655                 3.6937                 6.1389
 IR Inten    --     55.2154                72.0801                72.5221

                     61                     62                     63
                      A                      A                      A
 Frequencies --   1409.6929              1414.5429              1438.4191
 Red. masses --      8.9584                 1.4423                 1.3583
 Frc consts  --     10.4889                 1.7003                 1.6559
 IR Inten    --    216.7838                43.4724                16.9125

                     64                     65                     66
                      A                      A                      A
 Frequencies --   1441.8803              1476.1895              1496.2844
 Red. masses --      1.4014                 3.5324                 2.2672
 Frc consts  --      1.7166                 4.5353                 2.9907
 IR Inten    --     10.5683                 8.1476                10.9005

                     67                     68                     69
                      A                      A                      A
 Frequencies --   1497.1688              1504.2407              1513.0727
 Red. masses --      1.0700                 1.0483                 1.0710
 Frc consts  --      1.4131                 1.3976                 1.4447
 IR Inten    --      5.9814                 9.3698                 4.5954

                     70                     71                     72
                      A                      A                      A
 Frequencies --   1517.0904              1524.7222              1526.0864
 Red. masses --      1.0557                 1.0497                 1.0463
 Frc consts  --      1.4315                 1.4378                 1.4358
 IR Inten    --     17.1715                 2.5594                 5.1385

                     73                     74                     75
                      A                      A                      A
 Frequencies --   1627.1683              1646.8971              1662.8550
 Red. masses --     10.9994                 7.0547                 8.6005
 Frc consts  --     17.1586                11.2735                14.0114
 IR Inten    --    180.4899                30.1587                46.0378

                     76                     77                     78
                      A                      A                      A
 Frequencies --   1675.3462              1760.4794              3057.6208
 Red. masses --      8.5969                10.5392                 1.0374
 Frc consts  --     14.2167                19.2451                 5.7143
 IR Inten    --     12.1672               155.6078                 2.1356

                     79                     80                     81
                      A                      A                      A
 Frequencies --   3075.9115              3078.8061              3118.2821
 Red. masses --      1.0365                 1.0386                 1.1000
 Frc consts  --      5.7777                 5.8003                 6.3017
 IR Inten    --     14.1237                15.2432                 7.2024

                     82                     83                     84
                      A                      A                      A
 Frequencies --   3143.4522              3144.8662              3171.0334
 Red. masses --      1.1032                 1.1035                 1.1022
 Frc consts  --      6.4226                 6.4305                 6.5301
 IR Inten    --     11.9934                16.3910                 9.5065

                     85                     86                     87
                      A                      A                      A
 Frequencies --   3173.4312              3192.7523              3204.3193
 Red. masses --      1.1012                 1.0993                 1.0880
 Frc consts  --      6.5339                 6.6025                 6.5818
 IR Inten    --      3.7936                 2.2724                 3.8414

                     88                     89                     90
                      A                      A                      A
 Frequencies --   3218.1498              3247.6397              3248.6614
 Red. masses --      1.0939                 1.0929                 1.0964
 Frc consts  --      6.6747                 6.7915                 6.8178
 IR Inten    --     11.2049                 0.9758                 2.0659

 - Thermochemistry -
 -------------------
 Temperature   298.150 Kelvin.  Pressure   1.00000 Atm.
 Atom     1 has atomic number  6 and mass  12.00000

 Molecular mass:   259.08446 amu.
 Principal axes and moments of inertia in atomic units:
                           1         2         3
     Eigenvalues --  2861.052635910.313536688.66056
           X            0.99988  -0.01277  -0.00866
           Y            0.01290   0.99981   0.01473
           Z            0.00847  -0.01483   0.99985
 This molecule is an asymmetric top.
 Rotational symmetry number  1.
 Warning -- assumption of classical behavior for rotation
           may cause significant error
 Rotational temperatures (Kelvin)      0.03027     0.01465     0.01295
 Rotational constants (GHZ):           0.63080     0.30535     0.26982
 Zero-point vibrational energy     650705.3 (Joules/Mol)
                                  155.52230 (Kcal/Mol)
 Warning -- explicit consideration of  27 degrees of freedom as
           vibrations may cause significant error
 Vibrational temperatures:     66.13    69.36    92.06   106.28   152.93
          (Kelvin)            216.65   225.38   228.81   279.24   300.50
                              326.68   341.03   370.74   410.03   450.49
                              479.60   518.25   561.38   602.77   669.73
                              687.21   735.07   785.87   835.28   850.17
                              863.03   889.49   911.31   971.93   998.63
                             1062.38  1086.75  1099.33  1125.82  1185.28
                             1205.59  1230.03  1281.04  1283.03  1325.15
                             1340.43  1345.07  1350.92  1410.71  1500.27
                             1518.73  1532.75  1586.82  1635.99  1646.51
                             1675.60  1689.52  1715.97  1717.04  1756.70
                             1801.23  1860.23  1901.91  1942.54  2018.40
                             2028.23  2035.21  2069.56  2074.54  2123.91
                             2152.82  2154.09  2164.27  2176.97  2182.75
                             2193.74  2195.70  2341.13  2369.52  2392.48
                             2410.45  2532.94  4399.23  4425.55  4429.72
                             4486.51  4522.73  4524.76  4562.41  4565.86
                             4593.66  4610.30  4630.20  4672.63  4674.10

 Zero-point correction=                           0.247841 (Hartree/Particle)
 Thermal correction to Energy=                    0.264584
 Thermal correction to Enthalpy=                  0.265528
 Thermal correction to Gibbs Free Energy=         0.203461
 Sum of electronic and zero-point Energies=           -896.645358
 Sum of electronic and thermal Energies=              -896.628615
 Sum of electronic and thermal Enthalpies=            -896.627671
 Sum of electronic and thermal Free Energies=         -896.689737

                     E (Thermal)             CV                S
                      KCal/Mol        Cal/Mol-Kelvin    Cal/Mol-Kelvin
 Total                  166.029             64.331            130.630
 Electronic               0.000              0.000              0.000
 Translational            0.889              2.981             42.556
 Rotational               0.889              2.981             33.092
 Vibrational            164.251             58.370             54.983
 Vibration     1          0.595              1.979              4.984
 Vibration     2          0.595              1.978              4.890
 Vibration     3          0.597              1.971              4.330
 Vibration     4          0.599              1.966              4.048
 Vibration     5          0.605              1.944              3.336
 Vibration     6          0.618              1.902              2.665
 Vibration     7          0.620              1.895              2.590
 Vibration     8          0.621              1.892              2.561
 Vibration     9          0.635              1.848              2.189
 Vibration    10          0.642              1.827              2.054
 Vibration    11          0.651              1.800              1.902
 Vibration    12          0.656              1.784              1.825
 Vibration    13          0.667              1.750              1.677
 Vibration    14          0.683              1.702              1.504
 Vibration    15          0.701              1.649              1.346
 Vibration    16          0.715              1.609              1.244
 Vibration    17          0.735              1.554              1.121
 Vibration    18          0.758              1.491              0.999
 Vibration    19          0.782              1.429              0.896
 Vibration    20          0.823              1.327              0.750
 Vibration    21          0.834              1.300              0.716
 Vibration    22          0.866              1.226              0.631
 Vibration    23          0.901              1.148              0.552
 Vibration    24          0.937              1.073              0.484
 Vibration    25          0.948              1.051              0.466
 Vibration    26          0.958              1.032              0.450
 Vibration    27          0.978              0.993              0.419

 Optimization completed.
    -- Stationary point found.
 Normal termination of Gaussian 16 at Mon Dec 14 13:51:16 2020.

 ----------------------------------------------------------------------
 # B3LYP/6-311++G(d,p) empiricaldispersion=gd3bj scf=xqc pop=npa geom=c
 heck
 ----------------------------------------------------------------------

 ---------------------------------------
 CID_101028077_JID_9662_Energie_neutraal
 ---------------------------------------
 Structure from the checkpoint file:  "JID_9662.chk"
 Charge =  0 Multiplicity = 1

 SCF Done:  E(RB3LYP) =  -897.139799081     A.U. after   20 cycles
 Normal termination of Gaussian 16 at Mon Dec 14 14:01:03 2020.

 ----------------------------------------------------------------------
 # B3LYP/6-311++G(d,p) empiricaldispersion=gd3bj scf=xqc pop=npa geom=c
 heck
 ----------------------------------------------------------------------

 -------------------------------------
 CID_101028077_JID_9662_Energie_kation
 -------------------------------------
 Structure from the checkpoint file:  "JID_9662.chk"
 Charge =  1 Multiplicity = 2

 SCF Done:  E(UB3LYP) =  -896.818184284     A.U. after   33 cycles
 SCF Done:  E(UB3LYP) =  -896.818184284     a.u. after    1 cycles
 Normal termination of Gaussian 16 at Mon Dec 14 14:24:27 2020.
 Gaussian 16:  ES64L-G16RevA.03 25-Dec-2016

 ----------------------------------------------------------------------
 # B3LYP/6-311++G(d,p) empiricaldispersion=gd3bj scf=xqc pop=npa geom=c
 heck
 ----------------------------------------------------------------------

 ------------------------------------
 CID_101028077_JID_9662_Energie_anion
 ------------------------------------
 Structure from the checkpoint file:  "JID_9662.chk"
 Charge = -1 Multiplicity = 2

                         Standard orientation:
 ---------------------------------------------------------------------
 Center     Atomic      Atomic             Coordinates (Angstroms)
 Number     Number       Type             X           Y           Z
 ---------------------------------------------------------------------
      1          6           0        3.420558   -1.411237   -1.939942
      2          6           0        2.973694   -0.281122   -1.032109
      3          8           0        3.509059    0.819829   -1.065551
      4          6           0        1.854309   -0.540602   -0.110351
      5          6           0        0.923660   -1.506575   -0.165535
      6          6           0       -0.139767   -1.143946    0.885874
      7          6           0       -0.836992    0.114933    0.291030
      8          6           0        0.126829    1.132158    0.404814
      9          6           0        1.365202    0.439476    0.996610
     10          8           0        0.696514   -0.495161    1.871145
     11          6           0        2.372911    1.280756    1.736588
     12          6           0       -0.119006    2.429384    0.007607
     13          6           0       -1.393135    2.741514   -0.505664
     14          6           0       -2.357445    1.755131   -0.645088
     15          6           0       -2.058041    0.431120   -0.275019
     16          7           0       -3.057457   -0.597024   -0.572435
     17          8           0       -2.642645   -1.734408   -0.808154
     18          8           0       -4.239271   -0.261288   -0.609858
     19          6           0       -0.933041   -2.249816    1.539848
     20          1           0        2.602404   -1.722077   -2.600203
     21          1           0        3.714627   -2.286768   -1.350031
     22          1           0        4.263763   -1.073318   -2.544647
     23          1           0        0.833315   -2.328429   -0.865164
     24          1           0        2.857645    1.975841    1.049254
     25          1           0        1.874706    1.834129    2.537947
     26          1           0        3.142880    0.641250    2.177077
     27          1           0        0.646818    3.194609    0.088934
     28          1           0       -1.620298    3.758383   -0.809586
     29          1           0       -3.336961    1.971973   -1.052735
     30          1           0       -1.458490   -2.854338    0.802084
     31          1           0       -0.241445   -2.881170    2.105184
     32          1           0       -1.664440   -1.829745    2.236294
 ---------------------------------------------------------------------

 SCF Done:  E(UB3LYP) =  -897.189597885     A.U. after   27 cycles

 The electronic state is 2-A.
 Alpha  occ. eigenvalues --  -19.00937 -18.98299 -18.98262 -18.97967 -14.36234
 Alpha  occ. eigenvalues --  -10.13260 -10.12896 -10.12653 -10.09250 -10.06741
 Alpha  occ. eigenvalues --  -10.06539 -10.06472 -10.06353 -10.06309 -10.06292
 Alpha  occ. eigenvalues --  -10.06274 -10.05595 -10.05549 -10.04748  -1.06135
 Alpha  occ. eigenvalues --   -0.94687  -0.91569  -0.88969  -0.75441  -0.69612
 Alpha  occ. eigenvalues --   -0.68472  -0.65615  -0.64940  -0.62543  -0.61205
 Alpha  occ. eigenvalues --   -0.56329  -0.53277  -0.50744  -0.48973  -0.46526
 Alpha  occ. eigenvalues --   -0.43446  -0.41903  -0.39077  -0.38460  -0.37548
 Alpha  occ. eigenvalues --   -0.37280  -0.36320  -0.35322  -0.34302  -0.33484
 Alpha  occ. eigenvalues --   -0.33280  -0.32109  -0.31309  -0.30621  -0.29375
 Alpha  occ. eigenvalues --   -0.28374  -0.28162  -0.27501  -0.26440  -0.25795
 Alpha  occ. eigenvalues --   -0.25263  -0.25234  -0.24317  -0.23009  -0.21857
 Alpha  occ. eigenvalues --   -0.16742  -0.16259  -0.15940  -0.15668  -0.15090
 Alpha  occ. eigenvalues --   -0.13478  -0.12881  -0.11883   0.00727
 Alpha virt. eigenvalues --    0.04424   0.07778   0.08476   0.09320   0.09724
 Alpha virt. eigenvalues --    0.09827   0.11072   0.11238   0.11461   0.11824
 Alpha virt. eigenvalues --    0.12509   0.12965   0.13349   0.13619   0.14184

  Beta  occ. eigenvalues --  -19.00909 -18.97986 -18.97876 -18.97686 -14.35742
  Beta  occ. eigenvalues --  -10.13145 -10.12925 -10.12657 -10.09205 -10.06752
  Beta  occ. eigenvalues --  -10.06579 -10.06460 -10.06345 -10.06191 -10.06132
  Beta  occ. eigenvalues --  -10.06103 -10.05550 -10.05506 -10.04730  -1.05338
  Beta  occ. eigenvalues --   -0.94623  -0.91078  -0.88306  -0.75261  -0.69351
  Beta  occ. eigenvalues --   -0.68323  -0.65286  -0.64751  -0.62417  -0.61177
  Beta  occ. eigenvalues --   -0.55785  -0.53091  -0.50447  -0.48701  -0.46341
  Beta  occ. eigenvalues --   -0.43188  -0.41600  -0.38858  -0.37863  -0.37020
  Beta  occ. eigenvalues --   -0.36327  -0.35725  -0.35175  -0.34049  -0.33104
  Beta  occ. eigenvalues --   -0.32927  -0.32009  -0.31160  -0.30559  -0.29273
  Beta  occ. eigenvalues --   -0.28316  -0.28107  -0.27139  -0.26330  -0.25719
  Beta  occ. eigenvalues --   -0.25207  -0.24750  -0.23692  -0.22754  -0.21717
  Beta  occ. eigenvalues --   -0.16005  -0.15637  -0.15126  -0.14714  -0.14086
  Beta  occ. eigenvalues --   -0.13198  -0.12414  -0.11213
  Beta virt. eigenvalues --    0.05755   0.07291   0.07763   0.08462   0.09359
  Beta virt. eigenvalues --    0.09720   0.10316   0.11091   0.11241   0.11505
  Beta virt. eigenvalues --    0.12186   0.12934   0.13335   0.13550   0.13769

 Mulliken charges and spin densities:
               1          2
     1  C   -0.670153  -0.003369
     2  C   -0.232824   0.061741
     3  O   -0.329418   0.092168
     4  C   -0.026288   0.053488
     5  C   -0.566309   0.144190
     6  C    0.326183  -0.002688
     7  C   -0.008222   0.115824
     8  C    0.416634  -0.030852
     9  C    0.359195  -0.017182
    10  O    0.004605   0.005783
    11  C   -0.203533   0.013942
    12  C   -0.413443   0.065649
    13  C   -0.641692   0.013353
    14  C   -0.025751   0.035169
    15  C   -0.348023   0.003117
    16  N   -0.298381   0.159685
    17  O   -0.124062   0.118737
    18  O   -0.130997   0.144359
    19  C   -0.148496  -0.007978
    20  H    0.146940   0.007999
    21  H    0.143639   0.004900
    22  H    0.165557  -0.000579
    23  H    0.169632  -0.005448
    24  H    0.185935   0.000135
    25  H    0.143109  -0.000100
    26  H    0.153934   0.000457
    27  H    0.134030  -0.004764
    28  H    0.139500  -0.001730
    29  H    0.209921   0.004393
    30  H    0.184589   0.006810
    31  H    0.135110   0.012338
    32  H    0.149080   0.010453
 Sum of Mulliken charges =  -1.00000   1.00000

 Dipole moment (field-independent basis, Debye):
    X=              4.2808    Y=              0.7782    Z=              1.2279  Tot=              4.5209
 Quadrupole moment (field-independent basis, Debye-Ang):
   XX=           -172.4001   YY=           -121.6560   ZZ=           -124.2634
   XY=            -13.7964   XZ=             -2.5691   YZ=              0.6020

 Summary of Natural Population Analysis:

                                       Natural Population
                Natural  -----------------------------------------------
    Atom  No    Charge         Core      Valence    Rydberg      Total
 -----------------------------------------------------------------------
      C    1   -0.32815      0.99964     2.32437    0.00414     3.32815
      C    2    0.27617      0.99960     1.70502    0.01921     2.72383
      O    3   -0.26916      0.99988     3.26284    0.00644     4.26916
      C    4   -0.04847      0.99939     2.03465    0.01443     3.04847
      C    5   -0.02759      0.99943     2.02024    0.00792     3.02759
      C    6    0.11659      0.99954     1.86456    0.01931     2.88341
      C    7    0.00773      0.99941     1.97345    0.01941     2.99227
      C    8   -0.01698      0.99942     2.00430    0.01326     3.01698
      C    9    0.12712      0.99949     1.85461    0.01878     2.87288
      O   10   -0.30266      0.99989     3.29478    0.00799     4.30266
      C   11   -0.29265      0.99961     2.28746    0.00558     3.29265
      C   12   -0.08938      0.99950     2.08091    0.00897     3.08938
      C   13   -0.10609      0.99958     2.09785    0.00866     3.10609
      C   14   -0.11904      0.99959     2.10227    0.01718     3.11904
      C   15    0.11123      0.99932     1.87507    0.01438     2.88877
      N   16    0.28230      0.99975     2.18847    0.02947     3.21770
      O   17   -0.20469      0.99990     3.19579    0.00900     4.20469
      O   18   -0.18844      0.99990     3.18086    0.00769     4.18844
      C   19   -0.29065      0.99960     2.28470    0.00635     3.29065
      H   20    0.10674      0.00000     0.39238    0.00088     0.39326
      H   21    0.10466      0.00000     0.39445    0.00089     0.39534
      H   22    0.10427      0.00000     0.39459    0.00114     0.39573
      H   23    0.10311      0.00000     0.39590    0.00099     0.39689
      H   24    0.11620      0.00000     0.38300    0.00080     0.38380
      H   25    0.10006      0.00000     0.39904    0.00091     0.39994
      H   26    0.10275      0.00000     0.39639    0.00086     0.39725
      H   27    0.09919      0.00000     0.39951    0.00130     0.40081
      H   28    0.09445      0.00000     0.40456    0.00100     0.40555
      H   29    0.11205      0.00000     0.38651    0.00145     0.38795
      H   30    0.11936      0.00000     0.37980    0.00084     0.38064
      H   31    0.09845      0.00000     0.40061    0.00094     0.40155
      H   32    0.10315      0.00000     0.39597    0.00088     0.39685
 =======================================================================
   * Total *    0.00161     18.99244    48.75493    0.25102    67.99839

 Normal termination of Gaussian 16 at Mon Dec 14 14:43:42 2020.
