 Gaussian 16, Revision A.03,

 -----------------------------------------------------------
 # opt freq B3LYP/6-31G(d) empiricaldispersion=gd3bj scf=xqc
 -----------------------------------------------------------

 -------------------------------
 CID_123821843_JID_3173_neutraal
 -------------------------------
 Symbolic Z-matrix:
 Charge =  0 Multiplicity = 1

 SCF Done:  E(RB3LYP) =  -926.857260367     A.U. after   15 cycles
 SCF Done:  E(RB3LYP) =  -926.865761108     A.U. after   13 cycles
 SCF Done:  E(RB3LYP) =  -926.866748648     A.U. after   12 cycles
 SCF Done:  E(RB3LYP) =  -926.866927378     A.U. after   11 cycles
 SCF Done:  E(RB3LYP) =  -926.866959383     A.U. after   11 cycles
 SCF Done:  E(RB3LYP) =  -926.866970720     A.U. after   10 cycles
 SCF Done:  E(RB3LYP) =  -926.866982662     A.U. after   10 cycles
 SCF Done:  E(RB3LYP) =  -926.867007795     A.U. after   11 cycles
 SCF Done:  E(RB3LYP) =  -926.867077827     A.U. after   12 cycles
 SCF Done:  E(RB3LYP) =  -926.867188837     A.U. after   12 cycles
 SCF Done:  E(RB3LYP) =  -926.869098122     A.U. after    9 cycles
 SCF Done:  E(RB3LYP) =  -926.869104313     A.U. after   10 cycles
 SCF Done:  E(RB3LYP) =  -926.869107582     A.U. after   10 cycles
 SCF Done:  E(RB3LYP) =  -926.869110075     A.U. after    9 cycles
 SCF Done:  E(RB3LYP) =  -926.869112924     A.U. after    9 cycles
 SCF Done:  E(RB3LYP) =  -926.869113133     A.U. after    7 cycles
 Optimization completed.
    -- Stationary point found.
 Normal termination of Gaussian 16 at Wed Dec  9 22:30:07 2020.

 --------------------------------------------------------------------
 #N Geom=AllCheck Guess=TCheck SCRF=Check GenChk RB3LYP/6-31G(d) Freq
 --------------------------------------------------------------------

 Structure from the checkpoint file:  "JID_3173.chk"
 -------------------------------
 CID_123821843_JID_3173_neutraal
 -------------------------------
 Charge =  0 Multiplicity = 1

 SCF Done:  E(RB3LYP) =  -926.869113133     A.U. after    1 cycles

  Exact polarizability: 255.083   2.057 106.084   5.557  -1.721  60.685
 Approx polarizability: 391.272   4.192 191.541  14.127  -4.870  96.961

                      1                      2                      3
                      A                      A                      A
 Frequencies --     44.7512                56.4040                73.4942
 Red. masses --      5.4229                 4.4364                 1.2223
 Frc consts  --      0.0064                 0.0083                 0.0039
 IR Inten    --      2.6578                 1.0235                 0.4143

                      4                      5                      6
                      A                      A                      A
 Frequencies --     84.6952               144.8900               246.9425
 Red. masses --      3.4564                 5.5600                 4.7721
 Frc consts  --      0.0146                 0.0688                 0.1715
 IR Inten    --      0.2126                 3.4403                 4.7548

                      7                      8                      9
                      A                      A                      A
 Frequencies --    269.4752               303.2974               314.3326
 Red. masses --      4.7561                 8.6722                 4.1859
 Frc consts  --      0.2035                 0.4700                 0.2437
 IR Inten    --      0.2918                 2.0771                 0.1288

                     10                     11                     12
                      A                      A                      A
 Frequencies --    373.1363               405.2801               461.0735
 Red. masses --      5.8575                 3.6405                 4.4888
 Frc consts  --      0.4805                 0.3523                 0.5622
 IR Inten    --      2.0930                 6.0082                 1.5727

                     13                     14                     15
                      A                      A                      A
 Frequencies --    528.5398               552.1974               621.2925
 Red. masses --      3.1339                 7.3618                 4.5937
 Frc consts  --      0.5158                 1.3226                 1.0447
 IR Inten    --      9.9896                32.6726                 5.3172

                     16                     17                     18
                      A                      A                      A
 Frequencies --    642.2643               667.4584               685.4940
 Red. masses --      4.5543                 5.9905                 4.8432
 Frc consts  --      1.1069                 1.5724                 1.3409
 IR Inten    --      8.3745                 7.9097                 4.1058

                     19                     20                     21
                      A                      A                      A
 Frequencies --    733.0890               755.3043               773.7784
 Red. masses --      3.9500                 1.4970                 1.3220
 Frc consts  --      1.2507                 0.5032                 0.4664
 IR Inten    --     11.8036                69.8050                17.1428

                     22                     23                     24
                      A                      A                      A
 Frequencies --    803.6403               862.4456               873.4063
 Red. masses --      7.2129                 1.4028                 1.2923
 Frc consts  --      2.7446                 0.6147                 0.5808
 IR Inten    --     19.3812                 3.0208                10.8532

                     25                     26                     27
                      A                      A                      A
 Frequencies --    957.3278               976.2644              1011.9675
 Red. masses --      1.3846                 7.1858                 1.4995
 Frc consts  --      0.7477                 4.0352                 0.9048
 IR Inten    --      2.5820                60.8089                 7.6764

                     28                     29                     30
                      A                      A                      A
 Frequencies --   1012.8945              1045.8414              1077.5839
 Red. masses --      3.3001                 2.6749                 3.5395
 Frc consts  --      1.9948                 1.7238                 2.4216
 IR Inten    --     49.1398                20.7221                37.2065

                     31                     32                     33
                      A                      A                      A
 Frequencies --   1079.1095              1174.0349              1187.8065
 Red. masses --      1.4781                 2.9328                 2.9720
 Frc consts  --      1.0141                 2.3818                 2.4705
 IR Inten    --      3.0627               168.4111                63.8477

                     34                     35                     36
                      A                      A                      A
 Frequencies --   1227.1925              1251.6659              1279.0079
 Red. masses --      1.5116                 2.0300                 2.9527
 Frc consts  --      1.3413                 1.8738                 2.8458
 IR Inten    --      7.0431                38.0773                54.0066

                     37                     38                     39
                      A                      A                      A
 Frequencies --   1308.9869              1351.1193              1411.0536
 Red. masses --      3.7803                 1.6506                 3.8095
 Frc consts  --      3.8163                 1.7753                 4.4689
 IR Inten    --     12.5637                21.4514                29.3809

                     40                     41                     42
                      A                      A                      A
 Frequencies --   1432.9593              1440.8922              1454.4647
 Red. masses --      2.2899                 3.0403                 1.6681
 Frc consts  --      2.7704                 3.7191                 2.0791
 IR Inten    --      8.4271                44.8283                20.0040

                     43                     44                     45
                      A                      A                      A
 Frequencies --   1467.5125              1506.9729              1514.8690
 Red. masses --      3.4779                 3.5475                 1.0430
 Frc consts  --      4.4129                 4.7466                 1.4102
 IR Inten    --     61.0488                59.1946                 5.4486

                     46                     47                     48
                      A                      A                      A
 Frequencies --   1532.3671              1602.5422              1637.5086
 Red. masses --      1.1707                 3.1581                 5.2899
 Frc consts  --      1.6197                 4.7786                 8.3573
 IR Inten    --      5.7401               359.5842                10.5175

                     49                     50                     51
                      A                      A                      A
 Frequencies --   1667.7568              3047.5682              3099.5083
 Red. masses --      6.4787                 1.0370                 1.1015
 Frc consts  --     10.6171                 5.6744                 6.2346
 IR Inten    --    130.7801                44.6111                18.9469

                     52                     53                     54
                      A                      A                      A
 Frequencies --   3125.2160              3211.6923              3251.3546
 Red. masses --      1.1012                 1.0924                 1.0959
 Frc consts  --      6.3368                 6.6388                 6.8257
 IR Inten    --     16.4409                 2.3090                 7.8863

                     55                     56                     57
                      A                      A                      A
 Frequencies --   3254.1364              3274.1230              3576.0145
 Red. masses --      1.0946                 1.0974                 1.0782
 Frc consts  --      6.8296                 6.9312                 8.1236
 IR Inten    --      6.7108                 0.2627                57.0958

 - Thermochemistry -
 -------------------
 Temperature   298.150 Kelvin.  Pressure   1.00000 Atm.
 Atom     1 has atomic number  6 and mass  12.00000

 Molecular mass:   192.04697 amu.
 Principal axes and moments of inertia in atomic units:
                           1         2         3
     Eigenvalues --   596.714716050.035486502.02778
           X            0.99996  -0.00835  -0.00314
           Y            0.00835   0.99996  -0.00217
           Z            0.00316   0.00215   0.99999
 This molecule is an asymmetric top.
 Rotational symmetry number  1.
 Warning -- assumption of classical behavior for rotation
           may cause significant error
 Rotational temperatures (Kelvin)      0.14515     0.01432     0.01332
 Rotational constants (GHZ):           3.02446     0.29830     0.27757
 Zero-point vibrational energy     417054.1 (Joules/Mol)
                                   99.67832 (Kcal/Mol)
 Warning -- explicit consideration of  14 degrees of freedom as
           vibrations may cause significant error
 Vibrational temperatures:     64.39    81.15   105.74   121.86   208.46
          (Kelvin)            355.30   387.71   436.38   452.25   536.86
                              583.11   663.38   760.45   794.49   893.90
                              924.08   960.32   986.27  1054.75  1086.71
                             1113.29  1156.26  1240.87  1256.64  1377.38
                             1404.63  1456.00  1457.33  1504.73  1550.40
                             1552.60  1689.17  1708.99  1765.66  1800.87
                             1840.21  1883.34  1943.96  2030.19  2061.71
                             2073.12  2092.65  2111.42  2168.20  2179.56
                             2204.73  2305.70  2356.01  2399.53  4384.77
                             4459.50  4496.49  4620.91  4677.97  4681.98
                             4710.73  5145.09

 Zero-point correction=                           0.158848 (Hartree/Particle)
 Thermal correction to Energy=                    0.170006
 Thermal correction to Enthalpy=                  0.170951
 Thermal correction to Gibbs Free Energy=         0.120072
 Sum of electronic and zero-point Energies=           -926.710266
 Sum of electronic and thermal Energies=              -926.699107
 Sum of electronic and thermal Enthalpies=            -926.698163
 Sum of electronic and thermal Free Energies=         -926.749042

                     E (Thermal)             CV                S
                      KCal/Mol        Cal/Mol-Kelvin    Cal/Mol-Kelvin
 Total                  106.681             41.332            107.084
 Electronic               0.000              0.000              0.000
 Translational            0.889              2.981             41.663
 Rotational               0.889              2.981             31.529
 Vibrational            104.903             35.370             33.892
 Vibration     1          0.595              1.979              5.037
 Vibration     2          0.596              1.975              4.579
 Vibration     3          0.599              1.967              4.058
 Vibration     4          0.601              1.960              3.779
 Vibration     5          0.616              1.908              2.738
 Vibration     6          0.661              1.768              1.752
 Vibration     7          0.674              1.729              1.600
 Vibration     8          0.695              1.667              1.399
 Vibration     9          0.702              1.646              1.339
 Vibration    10          0.745              1.527              1.067
 Vibration    11          0.770              1.459              0.943
 Vibration    12          0.819              1.336              0.763
 Vibration    13          0.883              1.187              0.590
 Vibration    14          0.908              1.135              0.540

 Optimization completed.
    -- Stationary point found.
 Normal termination of Gaussian 16 at Wed Dec  9 22:34:44 2020.

 ----------------------------------------------------------------------
 # B3LYP/6-311++G(d,p) empiricaldispersion=gd3bj scf=xqc pop=npa geom=c
 heck
 ----------------------------------------------------------------------

 ---------------------------------------
 CID_123821843_JID_3173_Energie_neutraal
 ---------------------------------------
 Structure from the checkpoint file:  "JID_3173.chk"
 Charge =  0 Multiplicity = 1

 SCF Done:  E(RB3LYP) =  -927.032810021     A.U. after   16 cycles
 Normal termination of Gaussian 16 at Wed Dec  9 22:36:52 2020.

 ----------------------------------------------------------------------
 # B3LYP/6-311++G(d,p) empiricaldispersion=gd3bj scf=xqc pop=npa geom=c
 heck
 ----------------------------------------------------------------------

 -------------------------------------
 CID_123821843_JID_3173_Energie_kation
 -------------------------------------
 Structure from the checkpoint file:  "JID_3173.chk"
 Charge =  1 Multiplicity = 2

 SCF Done:  E(UB3LYP) =  -926.747612336     A.U. after   26 cycles
 Normal termination of Gaussian 16 at Wed Dec  9 22:41:50 2020.
 Gaussian 16:  ES64L-G16RevA.03 25-Dec-2016

 ----------------------------------------------------------------------
 # B3LYP/6-311++G(d,p) empiricaldispersion=gd3bj scf=xqc pop=npa geom=c
 heck
 ----------------------------------------------------------------------

 ------------------------------------
 CID_123821843_JID_3173_Energie_anion
 ------------------------------------
 Structure from the checkpoint file:  "JID_3173.chk"
 Charge = -1 Multiplicity = 2

                         Standard orientation:
 ---------------------------------------------------------------------
 Center     Atomic      Atomic             Coordinates (Angstroms)
 Number     Number       Type             X           Y           Z
 ---------------------------------------------------------------------
      1          6           0        4.856255   -0.904990   -0.368370
      2          6           0        3.536740   -0.245230   -0.106556
      3          6           0        2.274692   -0.758270   -0.311004
      4          7           0        1.378206    0.216711    0.050791
      5          7           0        1.998056    1.345071    0.487603
      6          6           0        3.291471    1.065853    0.390075
      7          6           0       -0.024491    0.120773    0.059695
      8          6           0       -0.643724   -1.038884    0.437557
      9          7           0       -2.004935   -1.099240    0.362786
     10          6           0       -2.808085   -0.047902   -0.030622
     11         16           0       -4.469417   -0.172492   -0.107468
     12          6           0       -2.036539    1.136372   -0.355865
     13          7           0       -0.735362    1.218947   -0.328633
     14          1           0        4.721509   -1.915382   -0.766683
     15          1           0        5.453689   -0.986004    0.547660
     16          1           0        5.451417   -0.338459   -1.094230
     17          1           0        1.946850   -1.703758   -0.718542
     18          1           0        4.019120    1.813923    0.678851
     19          1           0       -0.124839   -1.914484    0.805198
     20          1           0       -2.490438   -1.950439    0.626517
     21          1           0       -2.596317    2.017722   -0.656569
 ---------------------------------------------------------------------

 SCF Done:  E(UB3LYP) =  -927.067906102     A.U. after   24 cycles

 The electronic state is 2-A.
 Alpha  occ. eigenvalues --  -88.63224 -14.28136 -14.22057 -14.21437 -14.14260
 Alpha  occ. eigenvalues --  -10.10220 -10.10012 -10.09181 -10.08487 -10.08339
 Alpha  occ. eigenvalues --  -10.07550 -10.07517 -10.03770  -7.72002  -5.68379
 Alpha  occ. eigenvalues --   -5.67850  -5.67587  -0.94193  -0.84812  -0.77686
 Alpha  occ. eigenvalues --   -0.72559  -0.70095  -0.64573  -0.61605  -0.56736
 Alpha  occ. eigenvalues --   -0.52896  -0.49196  -0.47962  -0.47092  -0.43688
 Alpha  occ. eigenvalues --   -0.39555  -0.36470  -0.34870  -0.34453  -0.33307
 Alpha  occ. eigenvalues --   -0.32707  -0.31513  -0.31224  -0.29132  -0.28352
 Alpha  occ. eigenvalues --   -0.26492  -0.21585  -0.20769  -0.18454  -0.17169
 Alpha  occ. eigenvalues --   -0.14834  -0.13534  -0.11574  -0.06003  -0.05922
 Alpha  occ. eigenvalues --    0.02901
 Alpha virt. eigenvalues --    0.06156   0.08372   0.08839   0.09331   0.09617
 Alpha virt. eigenvalues --    0.10702   0.12155   0.12587   0.13129   0.13195
 Alpha virt. eigenvalues --    0.14213   0.14760   0.15204   0.15514   0.16674

  Beta  occ. eigenvalues --  -88.63187 -14.28123 -14.22070 -14.20917 -14.13601
  Beta  occ. eigenvalues --  -10.10395 -10.10020 -10.09181 -10.08346 -10.08300
  Beta  occ. eigenvalues --  -10.07553 -10.07184 -10.03546  -7.71968  -5.68367
  Beta  occ. eigenvalues --   -5.67725  -5.67568  -0.94202  -0.83968  -0.76906
  Beta  occ. eigenvalues --   -0.72228  -0.70100  -0.64119  -0.61507  -0.56359
  Beta  occ. eigenvalues --   -0.52268  -0.48955  -0.47739  -0.46913  -0.43561
  Beta  occ. eigenvalues --   -0.39300  -0.36235  -0.34773  -0.34213  -0.33146
  Beta  occ. eigenvalues --   -0.32568  -0.31388  -0.31130  -0.28478  -0.27095
  Beta  occ. eigenvalues --   -0.26175  -0.21261  -0.18939  -0.18444  -0.15382
  Beta  occ. eigenvalues --   -0.14604  -0.12743  -0.10853  -0.05773  -0.04703
  Beta virt. eigenvalues --    0.06141   0.08361   0.08969   0.09424   0.09650
  Beta virt. eigenvalues --    0.10326   0.10752   0.12150   0.12629   0.13290
  Beta virt. eigenvalues --    0.13447   0.14319   0.14746   0.15179   0.15527

 Mulliken charges and spin densities:
               1          2
     1  C   -0.837091  -0.013585
     2  C    0.443356  -0.042220
     3  C   -0.279075   0.031305
     4  N    0.396923   0.026617
     5  N   -0.145340  -0.015965
     6  C   -0.174245   0.014323
     7  C   -0.670983  -0.151953
     8  C    0.111665   0.326190
     9  N   -0.056367   0.174550
    10  C   -0.095015   0.174493
    11  S   -1.041132   0.082873
    12  C    0.279488   0.138525
    13  N   -0.136153   0.303183
    14  H    0.137173  -0.000652
    15  H    0.132119   0.001008
    16  H    0.136874   0.001106
    17  H    0.154706   0.002764
    18  H    0.116093   0.000382
    19  H    0.136927  -0.021045
    20  H    0.209039  -0.013543
    21  H    0.181038  -0.018354
 Sum of Mulliken charges =  -1.00000   1.00000

 Dipole moment (field-independent basis, Debye):
    X=             11.2818    Y=             -4.4526    Z=              0.3932  Tot=             12.1350
 Quadrupole moment (field-independent basis, Debye-Ang):
   XX=           -149.5620   YY=            -91.8834   ZZ=            -92.7219
   XY=             -2.2503   XZ=             -3.3559   YZ=             -0.7479

 Summary of Natural Population Analysis:

                                       Natural Population
                Natural  -----------------------------------------------
    Atom  No    Charge         Core      Valence    Rydberg      Total
 -----------------------------------------------------------------------
      C    1   -0.29029      0.99964     2.28623    0.00442     3.29029
      C    2   -0.08303      0.99953     2.07541    0.00808     3.08303
      C    3   -0.01511      0.99951     2.00588    0.00972     3.01511
      N    4   -0.10110      0.99962     2.58614    0.01534     3.60110
      N    5   -0.12865      0.99973     2.61745    0.01147     3.62865
      C    6   -0.02488      0.99960     2.01056    0.01472     3.02488
      C    7    0.10698      0.99948     1.87969    0.01385     2.89302
      C    8    0.06213      0.99954     1.92892    0.00941     2.93787
      N    9   -0.19458      0.99964     2.68350    0.01143     3.69458
      C   10    0.04464      0.99960     1.93814    0.01762     2.95536
      S   11   -0.16311      4.99958     3.14616    0.01736     8.16311
      C   12    0.05515      0.99956     1.92990    0.01540     2.94485
      N   13   -0.12349      0.99966     2.61324    0.01060     3.62349
      H   14    0.09968      0.00000     0.39945    0.00087     0.40032
      H   15    0.09858      0.00000     0.40040    0.00101     0.40142
      H   16    0.09919      0.00000     0.39982    0.00099     0.40081
      H   17    0.10374      0.00000     0.39511    0.00115     0.39626
      H   18    0.09138      0.00000     0.40767    0.00095     0.40862
      H   19    0.08971      0.00000     0.40906    0.00124     0.41029
      H   20    0.18871      0.00000     0.30860    0.00269     0.31129
      H   21    0.08435      0.00000     0.41430    0.00135     0.41565
 =======================================================================
   * Total *   -0.00000     16.99469    32.83563    0.16969    50.00000

 Normal termination of Gaussian 16 at Wed Dec  9 22:46:43 2020.
