 Gaussian 16, Revision A.03,

 -----------------------------------------------------------
 # opt freq B3LYP/6-31G(d) empiricaldispersion=gd3bj scf=xqc
 -----------------------------------------------------------

 -------------------------------
 CID_103389362_JID_2071_neutraal
 -------------------------------
 Symbolic Z-matrix:
 Charge =  0 Multiplicity = 1

 SCF Done:  E(RB3LYP) =  -549.537005216     A.U. after   14 cycles
 SCF Done:  E(RB3LYP) =  -549.542122812     A.U. after   13 cycles
 SCF Done:  E(RB3LYP) =  -549.542904292     A.U. after   12 cycles
 SCF Done:  E(RB3LYP) =  -549.543787164     A.U. after   12 cycles
 SCF Done:  E(RB3LYP) =  -549.544169971     A.U. after   12 cycles
 SCF Done:  E(RB3LYP) =  -549.544439662     A.U. after   12 cycles
 SCF Done:  E(RB3LYP) =  -549.544486982     A.U. after   11 cycles
 SCF Done:  E(RB3LYP) =  -549.544502297     A.U. after   10 cycles
 SCF Done:  E(RB3LYP) =  -549.544514412     A.U. after   10 cycles
 SCF Done:  E(RB3LYP) =  -549.544519577     A.U. after   10 cycles
 SCF Done:  E(RB3LYP) =  -549.544520896     A.U. after    8 cycles
 SCF Done:  E(RB3LYP) =  -549.544521642     A.U. after    7 cycles
 SCF Done:  E(RB3LYP) =  -549.544522121     A.U. after    8 cycles
 SCF Done:  E(RB3LYP) =  -549.544522349     A.U. after    7 cycles
 SCF Done:  E(RB3LYP) =  -549.544522434     A.U. after    7 cycles
 Optimization completed.
    -- Stationary point found.

 1\1\GINC-NODE318\FOpt\RB3LYP\6-31G(d)\C7H15N5\VSC10255\09-Dec-2020\0\\
 # opt freq B3LYP/6-31G(d) empiricaldispersion=gd3bj scf=xqc\\CID_10338
 9362_JID_2071_neutraal\\0,1\C,1.0240459487,-0.1956378908,0.1266522821\
 C,0.5672287025,-0.9094529209,-1.1514647439\C,1.1614491147,-2.333961759
 ,-1.2373759211\N,0.5270464084,-3.2232051187,-0.2473602828\N,-0.8987753
 164,-0.8617616043,-1.2023400926\C,-1.5145554138,-0.9832098199,-2.52391
 97202\C,-1.2381805278,-2.2420476867,-3.2955735022\N,-0.4709708533,-2.3
 295953034,-4.3636935174\N,-0.3923974358,-3.6654842244,-4.7209421671\C,

 Normal termination of Gaussian 16 at Wed Dec  9 16:49:06 2020.

 --------------------------------------------------------------------
 #N Geom=AllCheck Guess=TCheck SCRF=Check GenChk RB3LYP/6-31G(d) Freq
 --------------------------------------------------------------------

 Structure from the checkpoint file:  "JID_2071.chk"
 -------------------------------
 CID_103389362_JID_2071_neutraal
 -------------------------------
 Charge =  0 Multiplicity = 1

 SCF Done:  E(RB3LYP) =  -549.544522434     A.U. after    1 cycles

  Exact polarizability: 111.224   8.329  96.695  -5.511   3.924  93.571
 Approx polarizability: 144.508  12.285 150.829 -16.115  14.857 150.558

                      1                      2                      3
                      A                      A                      A
 Frequencies --     34.5263                66.2354                92.1151
 Red. masses --      3.2444                 5.2782                 3.9166
 Frc consts  --      0.0023                 0.0136                 0.0196
 IR Inten    --      1.3161                 5.7076                 5.1806

                      4                      5                      6
                      A                      A                      A
 Frequencies --    127.1894               170.4944               195.1999
 Red. masses --      3.1585                 1.4961                 1.8762
 Frc consts  --      0.0301                 0.0256                 0.0421
 IR Inten    --      3.8626                 3.3640                 0.2926

                      7                      8                      9
                      A                      A                      A
 Frequencies --    215.1252               235.9474               257.4380
 Red. masses --      2.7442                 1.6390                 1.9053
 Frc consts  --      0.0748                 0.0538                 0.0744
 IR Inten    --      0.9941                 2.9763                 0.6093

                     10                     11                     12
                      A                      A                      A
 Frequencies --    274.7990               295.2286               317.5690
 Red. masses --      2.6635                 1.1789                 2.0365
 Frc consts  --      0.1185                 0.0605                 0.1210
 IR Inten    --      4.3370                32.8790                 6.5999

                     13                     14                     15
                      A                      A                      A
 Frequencies --    331.2405               395.4255               413.3558
 Red. masses --      3.4591                 2.1491                 2.3770
 Frc consts  --      0.2236                 0.1980                 0.2393
 IR Inten    --      8.0186                 1.8236                 5.6932

                     16                     17                     18
                      A                      A                      A
 Frequencies --    534.6358               616.9162               650.1535
 Red. masses --      3.3222                 2.3916                 3.9914
 Frc consts  --      0.5595                 0.5363                 0.9940
 IR Inten    --      4.3587                15.6331                 9.3223

                     19                     20                     21
                      A                      A                      A
 Frequencies --    680.0005               705.5813               730.0375
 Red. masses --      6.2255                 3.6704                 3.0205
 Frc consts  --      1.6961                 1.0766                 0.9485
 IR Inten    --      4.8904                 8.5420                42.2304

                     22                     23                     24
                      A                      A                      A
 Frequencies --    789.9785               809.8128               846.1336
 Red. masses --      3.1749                 1.3960                 2.2378
 Frc consts  --      1.1674                 0.5394                 0.9439
 IR Inten    --     11.5862                 8.3580                68.5534

                     25                     26                     27
                      A                      A                      A
 Frequencies --    881.3588               906.2917               959.3942
 Red. masses --      1.2858                 1.8262                 1.9432
 Frc consts  --      0.5885                 0.8838                 1.0538
 IR Inten    --     63.7422                 9.0670                21.6094

                     28                     29                     30
                      A                      A                      A
 Frequencies --    968.8406               993.0767              1035.1247
 Red. masses --      2.8757                 2.2577                 1.6532
 Frc consts  --      1.5904                 1.3118                 1.0437
 IR Inten    --     18.3804                 4.9160                13.0096

                     31                     32                     33
                      A                      A                      A
 Frequencies --   1050.6026              1084.6589              1089.7865
 Red. masses --      5.7143                 1.5179                 1.6171
 Frc consts  --      3.7161                 1.0521                 1.1315
 IR Inten    --      2.0342                15.5030                 8.3968

                     34                     35                     36
                      A                      A                      A
 Frequencies --   1118.5391              1141.4512              1169.4382
 Red. masses --      2.1920                 3.5918                 1.4532
 Frc consts  --      1.6158                 2.7573                 1.1709
 IR Inten    --     19.9967                34.6307                 6.6588

                     37                     38                     39
                      A                      A                      A
 Frequencies --   1173.0769              1229.8245              1233.2841
 Red. masses --      1.5320                 1.7004                 1.5419
 Frc consts  --      1.2421                 1.5153                 1.3817
 IR Inten    --      7.5952                13.2967                13.7491

                     40                     41                     42
                      A                      A                      A
 Frequencies --   1246.7167              1284.8859              1336.5954
 Red. masses --      2.9245                 1.4233                 1.3044
 Frc consts  --      2.6782                 1.3844                 1.3730
 IR Inten    --      6.2538                 2.1493                 7.1113

                     43                     44                     45
                      A                      A                      A
 Frequencies --   1364.6810              1381.8967              1388.4239
 Red. masses --      1.3966                 1.4687                 2.5953
 Frc consts  --      1.5324                 1.6525                 2.9477
 IR Inten    --      4.7571                12.4845                 0.8286

                     46                     47                     48
                      A                      A                      A
 Frequencies --   1402.9473              1426.5788              1433.5991
 Red. masses --      1.4120                 1.3692                 3.8507
 Frc consts  --      1.6374                 1.6417                 4.6628
 IR Inten    --      6.1780                 8.3236                13.7637

                     49                     50                     51
                      A                      A                      A
 Frequencies --   1443.7073              1471.6321              1492.5678
 Red. masses --      1.3626                 1.3817                 1.0877
 Frc consts  --      1.6733                 1.7631                 1.4277
 IR Inten    --     12.7959                 3.8011                 4.1427

                     52                     53                     54
                      A                      A                      A
 Frequencies --   1511.7571              1516.8988              1528.7240
 Red. masses --      1.0927                 1.0476                 1.0772
 Frc consts  --      1.4713                 1.4203                 1.4833
 IR Inten    --     16.9744                 4.4321                 6.8011

                     55                     56                     57
                      A                      A                      A
 Frequencies --   1539.3361              1540.0801              1549.3823
 Red. masses --      1.3780                 1.8208                 1.1403
 Frc consts  --      1.9238                 2.5444                 1.6128
 IR Inten    --      7.4243                 5.9313                 6.1046

                     58                     59                     60
                      A                      A                      A
 Frequencies --   1558.3544              1566.6197              1695.0294
 Red. masses --      2.4108                 1.6270                 1.0862
 Frc consts  --      3.4494                 2.3527                 1.8387
 IR Inten    --     57.7716                13.8366                40.0483

                     61                     62                     63
                      A                      A                      A
 Frequencies --   2984.7031              3042.6939              3045.7652
 Red. masses --      1.0748                 1.0407                 1.0662
 Frc consts  --      5.6413                 5.6767                 5.8273
 IR Inten    --     78.8212                32.1326                29.1905

                     64                     65                     66
                      A                      A                      A
 Frequencies --   3060.5088              3061.2101              3104.4312
 Red. masses --      1.0837                 1.0341                 1.1002
 Frc consts  --      5.9809                 5.7097                 6.2470
 IR Inten    --     15.7218                32.7703                44.0913

                     67                     68                     69
                      A                      A                      A
 Frequencies --   3116.1537              3136.3399              3140.1190
 Red. masses --      1.0968                 1.1060                 1.1000
 Frc consts  --      6.2750                 6.4100                 6.3907
 IR Inten    --     12.6803                 3.3487                22.8643

                     70                     71                     72
                      A                      A                      A
 Frequencies --   3144.3263              3155.4336              3269.8520
 Red. masses --      1.0886                 1.1043                 1.0978
 Frc consts  --      6.3411                 6.4785                 6.9155
 IR Inten    --      9.6422                 9.7307                 2.0578

                     73                     74                     75
                      A                      A                      A
 Frequencies --   3474.5973              3501.0356              3555.3876
 Red. masses --      1.0503                 1.0727                 1.0920
 Frc consts  --      7.4711                 7.7471                 8.1330
 IR Inten    --      0.4521                 2.2258                 0.2123

 - Thermochemistry -
 -------------------
 Temperature   298.150 Kelvin.  Pressure   1.00000 Atm.
 Atom     1 has atomic number  6 and mass  12.00000

 Molecular mass:   169.13275 amu.
 Principal axes and moments of inertia in atomic units:
                           1         2         3
     Eigenvalues --  1192.989112748.367132872.22237
           X            0.99951   0.01873   0.02502
           Y           -0.01794   0.99933  -0.03177
           Z           -0.02560   0.03131   0.99918
 This molecule is an asymmetric top.
 Rotational symmetry number  1.
 Warning -- assumption of classical behavior for rotation
           may cause significant error
 Rotational temperatures (Kelvin)      0.07260     0.03151     0.03016
 Rotational constants (GHZ):           1.51279     0.65666     0.62834
 Zero-point vibrational energy     623809.8 (Joules/Mol)
                                  149.09413 (Kcal/Mol)
 Warning -- explicit consideration of  17 degrees of freedom as
           vibrations may cause significant error
 Vibrational temperatures:     49.68    95.30   132.53   183.00   245.30
          (Kelvin)            280.85   309.52   339.48   370.40   395.37
                              424.77   456.91   476.58   568.93   594.73
                              769.22   887.60   935.43   978.37  1015.17
                             1050.36  1136.60  1165.14  1217.40  1268.08
                             1303.95  1380.35  1393.95  1428.82  1489.31
                             1511.58  1560.58  1567.96  1609.33  1642.29
                             1682.56  1687.80  1769.44  1774.42  1793.75
                             1848.66  1923.06  1963.47  1988.24  1997.63
                             2018.53  2052.53  2062.63  2077.17  2117.35
                             2147.47  2175.08  2182.48  2199.49  2214.76
                             2215.83  2229.22  2242.12  2254.02  2438.77
                             4294.32  4377.76  4382.18  4403.39  4404.40
                             4466.58  4483.45  4512.49  4517.93  4523.98
                             4539.97  4704.59  4999.17  5037.21  5115.41

 Zero-point correction=                           0.237597 (Hartree/Particle)
 Thermal correction to Energy=                    0.250132
 Thermal correction to Enthalpy=                  0.251076
 Thermal correction to Gibbs Free Energy=         0.198685
 Sum of electronic and zero-point Energies=           -549.306926
 Sum of electronic and thermal Energies=              -549.294391
 Sum of electronic and thermal Enthalpies=            -549.293446
 Sum of electronic and thermal Free Energies=         -549.345838

                     E (Thermal)             CV                S
                      KCal/Mol        Cal/Mol-Kelvin    Cal/Mol-Kelvin
 Total                  156.960             46.618            110.267
 Electronic               0.000              0.000              0.000
 Translational            0.889              2.981             41.284
 Rotational               0.889              2.981             30.622
 Vibrational            155.183             40.656             38.361
 Vibration     1          0.594              1.983              5.551
 Vibration     2          0.598              1.970              4.262
 Vibration     3          0.602              1.955              3.615
 Vibration     4          0.611              1.926              2.988
 Vibration     5          0.626              1.879              2.430
 Vibration     6          0.636              1.847              2.178
 Vibration     7          0.645              1.818              2.000
 Vibration     8          0.655              1.786              1.833
 Vibration     9          0.667              1.750              1.679
 Vibration    10          0.677              1.720              1.566
 Vibration    11          0.689              1.683              1.444
 Vibration    12          0.704              1.640              1.323
 Vibration    13          0.714              1.613              1.254
 Vibration    14          0.762              1.480              0.980
 Vibration    15          0.777              1.441              0.915
 Vibration    16          0.890              1.173              0.577
 Vibration    17          0.977              0.996              0.421

                           ! Non-Optimized Parameters !

 1\1\GINC-NODE318\Freq\RB3LYP\6-31G(d)\C7H15N5\VSC10255\09-Dec-2020\0\\
 #N Geom=AllCheck Guess=TCheck SCRF=Check GenChk RB3LYP/6-31G(d) Freq\\
 CID_103389362_JID_2071_neutraal\\0,1\C,1.0240459487,-0.1956378908,0.12
 66522821\C,0.5672287025,-0.9094529209,-1.1514647439\C,1.1614491147,-2.
 333961759,-1.2373759211\N,0.5270464084,-3.2232051187,-0.2473602828\N,-
 0.8987753164,-0.8617616043,-1.2023400926\C,-1.5145554138,-0.9832098199
 ,-2.5239197202\C,-1.2381805278,-2.2420476867,-3.2955735022\N,-0.470970
 8533,-2.3295953034,-4.3636935174\N,-0.3923974358,-3.6654842244,-4.7209

 Normal termination of Gaussian 16 at Wed Dec  9 16:55:55 2020.

 ----------------------------------------------------------------------
 # B3LYP/6-311++G(d,p) empiricaldispersion=gd3bj scf=xqc pop=npa geom=c
 heck
 ----------------------------------------------------------------------

 ---------------------------------------
 CID_103389362_JID_2071_Energie_neutraal
 ---------------------------------------
 Structure from the checkpoint file:  "JID_2071.chk"
 Charge =  0 Multiplicity = 1

 SCF Done:  E(RB3LYP) =  -549.706574850     A.U. after   15 cycles
 Normal termination of Gaussian 16 at Wed Dec  9 16:58:31 2020.

 ----------------------------------------------------------------------
 # B3LYP/6-311++G(d,p) empiricaldispersion=gd3bj scf=xqc pop=npa geom=c
 heck
 ----------------------------------------------------------------------

 -------------------------------------
 CID_103389362_JID_2071_Energie_kation
 -------------------------------------
 Structure from the checkpoint file:  "JID_2071.chk"
 Charge =  1 Multiplicity = 2

 SCF Done:  E(UB3LYP) =  -549.399996718     A.U. after   26 cycles
 Normal termination of Gaussian 16 at Wed Dec  9 17:04:32 2020.
 Gaussian 16:  ES64L-G16RevA.03 25-Dec-2016

 ------------------------------------
 CID_103389362_JID_2071_Energie_anion
 ------------------------------------
 Structure from the checkpoint file:  "JID_2071.chk"
 Charge = -1 Multiplicity = 2

                         Standard orientation:
 ---------------------------------------------------------------------
 Center     Atomic      Atomic             Coordinates (Angstroms)
 Number     Number       Type             X           Y           Z
 ---------------------------------------------------------------------
      1          6           0       -3.456088   -0.306796   -0.072671
      2          6           0       -1.954177   -0.523701   -0.294058
      3          6           0       -1.353141    0.595009   -1.175505
      4          7           0       -1.286774    1.865520   -0.430690
      5          7           0       -1.314912   -0.667954    1.019168
      6          6           0       -0.044595   -1.392864    1.055369
      7          6           0        1.087184   -0.833128    0.241566
      8          7           0        1.564561   -1.362193   -0.867198
      9          7           0        2.530215   -0.503238   -1.365304
     10          6           0        2.597045    0.512868   -0.539360
     11          7           0        1.717431    0.361515    0.498922
     12          6           0        1.434319    1.310556    1.564346
     13          1           0       -3.638712    0.601575    0.515902
     14          1           0       -3.880731   -1.145349    0.485399
     15          1           0       -3.988659   -0.208023   -1.025973
     16          1           0       -1.812776   -1.469754   -0.831366
     17          1           0       -0.336490    0.326265   -1.467501
     18          1           0       -1.943806    0.665460   -2.104204
     19          1           0       -0.731305    2.535864   -0.958144
     20          1           0       -2.217453    2.273417   -0.356322
     21          1           0       -1.201024    0.266004    1.409039
     22          1           0        0.255453   -1.473821    2.108258
     23          1           0       -0.211122   -2.410907    0.690998
     24          1           0        3.256501    1.365149   -0.631000
     25          1           0        0.511403    1.855025    1.340186
     26          1           0        1.332435    0.782064    2.516207
     27          1           0        2.269341    2.009818    1.646108
 ---------------------------------------------------------------------

 SCF Done:  E(UB3LYP) =  -549.699110087     A.U. after   28 cycles

 The electronic state is 2-A.
 Alpha  occ. eigenvalues --  -14.27967 -14.22009 -14.21809 -14.19906 -14.19203
 Alpha  occ. eigenvalues --  -10.12962 -10.12832 -10.11241 -10.10938 -10.10081
 Alpha  occ. eigenvalues --  -10.08673 -10.06178  -0.95959  -0.82549  -0.81654
 Alpha  occ. eigenvalues --   -0.77409  -0.71547  -0.66043  -0.62982  -0.58559
 Alpha  occ. eigenvalues --   -0.56985  -0.52615  -0.48302  -0.47427  -0.42471
 Alpha  occ. eigenvalues --   -0.41066  -0.38303  -0.37943  -0.37007  -0.35426
 Alpha  occ. eigenvalues --   -0.34635  -0.33102  -0.31670  -0.31431  -0.30948
 Alpha  occ. eigenvalues --   -0.30520  -0.28926  -0.26469  -0.24450  -0.24026
 Alpha  occ. eigenvalues --   -0.21358  -0.18783  -0.16304  -0.16033  -0.14947
 Alpha  occ. eigenvalues --   -0.13119   0.04150
 Alpha virt. eigenvalues --    0.06593   0.07559   0.08396   0.09066   0.09389
 Alpha virt. eigenvalues --    0.10180   0.10613   0.11424   0.11929   0.12070
 Alpha virt. eigenvalues --    0.12976   0.13341   0.13650   0.13964   0.14517

  Beta  occ. eigenvalues --  -14.27963 -14.22008 -14.21807 -14.19894 -14.19134
  Beta  occ. eigenvalues --  -10.12959 -10.12814 -10.11230 -10.10869 -10.10080
  Beta  occ. eigenvalues --  -10.08659 -10.06154  -0.95949  -0.82532  -0.81630
  Beta  occ. eigenvalues --   -0.77317  -0.71529  -0.66008  -0.62901  -0.58523
  Beta  occ. eigenvalues --   -0.56909  -0.52591  -0.48261  -0.47385  -0.42402
  Beta  occ. eigenvalues --   -0.41019  -0.38259  -0.37900  -0.36964  -0.35375
  Beta  occ. eigenvalues --   -0.34593  -0.33057  -0.31607  -0.31396  -0.30910
  Beta  occ. eigenvalues --   -0.30471  -0.28900  -0.26445  -0.24423  -0.23998
  Beta  occ. eigenvalues --   -0.21349  -0.18758  -0.16288  -0.16026  -0.14887
  Beta  occ. eigenvalues --   -0.13104
  Beta virt. eigenvalues --    0.06781   0.07640   0.08373   0.08970   0.09490
  Beta virt. eigenvalues --    0.09790   0.10611   0.10955   0.11718   0.12074
  Beta virt. eigenvalues --    0.12424   0.13291   0.13591   0.14044   0.14339

 Mulliken charges and spin densities:
               1          2
     1  C    0.497711  -0.922731
     2  C   -1.408690   0.992956
     3  C    0.734542  -1.157378
     4  N   -0.357285  -0.017251
     5  N    0.168706   0.064545
     6  C    0.704099  -1.579727
     7  C   -1.242861   1.008669
     8  N   -0.005774   0.039919
     9  N   -0.089672  -0.053149
    10  C    0.299026  -0.121854
    11  N   -0.067501   0.138905
    12  C    1.528041  -1.891492
    13  H   -0.110312   0.256407
    14  H    0.008131   0.143352
    15  H   -0.033576   0.153586
    16  H    0.128062   0.003427
    17  H    0.202043  -0.048249
    18  H    0.038043   0.123875
    19  H   -0.241046   0.482169
    20  H   -0.206378   0.459371
    21  H    0.323219  -0.079707
    22  H   -0.079827   0.255404
    23  H    0.192068   0.001423
    24  H   -0.508646   0.697214
    25  H   -0.036163   0.285642
    26  H   -0.534617   0.702976
    27  H   -0.901342   1.061701
 Sum of Mulliken charges =  -1.00000   1.00000

 Dipole moment (field-independent basis, Debye):
    X=             -2.2600    Y=             -5.3896    Z=             -0.7782  Tot=              5.8958
 Quadrupole moment (field-independent basis, Debye-Ang):
   XX=           -126.7798   YY=           -123.4148   ZZ=           -113.1785
   XY=              1.1695   XZ=              1.7839   YZ=             -6.8874

 Summary of Natural Population Analysis:

                                       Natural Population
                Natural  -----------------------------------------------
    Atom  No    Charge         Core      Valence    Rydberg      Total
 -----------------------------------------------------------------------
      C    1   -0.28748      0.99964     2.28154    0.00630     3.28748
      C    2   -0.01613      0.99960     2.00435    0.01217     3.01613
      C    3   -0.09846      0.99960     2.08682    0.01204     3.09846
      N    4   -0.43319      0.99977     2.92147    0.01196     3.93319
      N    5   -0.34281      0.99974     2.83130    0.01177     3.84281
      C    6   -0.10957      0.99958     2.09774    0.01225     3.10957
      C    7    0.17662      0.99959     1.80561    0.01818     2.82338
      N    8   -0.17130      0.99968     2.65990    0.01172     3.67130
      N    9   -0.16644      0.99973     2.65370    0.01302     3.66644
      C   10    0.09817      0.99962     1.88474    0.01747     2.90183
      N   11   -0.21248      0.99961     2.69987    0.01300     3.71248
      C   12   -0.18303      0.99963     2.17466    0.00874     3.18303
      H   13    0.09914      0.00000     0.39976    0.00111     0.40086
      H   14    0.10153      0.00000     0.39744    0.00103     0.39847
      H   15    0.09569      0.00000     0.40346    0.00086     0.40431
      H   16    0.09303      0.00000     0.40546    0.00151     0.40697
      H   17    0.09902      0.00000     0.39884    0.00214     0.40098
      H   18    0.08011      0.00000     0.41857    0.00132     0.41989
      H   19    0.18348      0.00000     0.31258    0.00394     0.31652
      H   20    0.17808      0.00000     0.31801    0.00391     0.32192
      H   21    0.18269      0.00000     0.31344    0.00387     0.31731
      H   22    0.10239      0.00000     0.39657    0.00104     0.39761
      H   23    0.10549      0.00000     0.39331    0.00120     0.39451
      H   24    0.10019      0.00000     0.39820    0.00161     0.39981
      H   25    0.11755      0.00000     0.37923    0.00322     0.38245
      H   26    0.10066      0.00000     0.39724    0.00210     0.39934
      H   27    0.10707      0.00000     0.38914    0.00379     0.39293
 =======================================================================
   * Total *    0.00000     11.99579    33.82294    0.18127    46.00000

 Normal termination of Gaussian 16 at Wed Dec  9 17:11:14 2020.
