 Gaussian 16, Revision A.03,

 -----------------------------------------------------------
 # opt freq B3LYP/6-31G(d) empiricaldispersion=gd3bj scf=xqc
 -----------------------------------------------------------

 -------------------------------
 CID_80141263_JID_10337_neutraal
 -------------------------------
 Symbolic Z-matrix:
 Charge =  0 Multiplicity = 1

 SCF Done:  E(RB3LYP) =  -911.252612229     A.U. after   15 cycles
 SCF Done:  E(RB3LYP) =  -911.259002251     A.U. after   13 cycles
 SCF Done:  E(RB3LYP) =  -911.260165281     A.U. after   12 cycles
 SCF Done:  E(RB3LYP) =  -911.261853936     A.U. after   12 cycles
 SCF Done:  E(RB3LYP) =  -911.262220440     A.U. after   11 cycles
 SCF Done:  E(RB3LYP) =  -911.262386011     A.U. after   11 cycles
 SCF Done:  E(RB3LYP) =  -911.262444097     A.U. after   11 cycles
 SCF Done:  E(RB3LYP) =  -911.262500888     A.U. after   10 cycles
 SCF Done:  E(RB3LYP) =  -911.262529193     A.U. after   10 cycles
 SCF Done:  E(RB3LYP) =  -911.262540051     A.U. after   10 cycles
 SCF Done:  E(RB3LYP) =  -911.262557450     A.U. after    9 cycles
 SCF Done:  E(RB3LYP) =  -911.262558883     A.U. after    9 cycles
 SCF Done:  E(RB3LYP) =  -911.262559703     A.U. after    8 cycles
 SCF Done:  E(RB3LYP) =  -911.262559971     A.U. after    7 cycles
 SCF Done:  E(RB3LYP) =  -911.262560017     A.U. after    7 cycles
 Optimization completed.
    -- Stationary point found.
 Normal termination of Gaussian 16 at Sun Dec 13 16:49:35 2020.

 --------------------------------------------------------------------
 #N Geom=AllCheck Guess=TCheck SCRF=Check GenChk RB3LYP/6-31G(d) Freq
 --------------------------------------------------------------------

 Structure from the checkpoint file:  "JID_10337.chk"
 -------------------------------
 CID_80141263_JID_10337_neutraal
 -------------------------------
 Charge =  0 Multiplicity = 1

 SCF Done:  E(RB3LYP) =  -911.262560017     A.U. after    1 cycles

  Exact polarizability: 261.582   0.274 188.914   3.756   6.369 112.718
 Approx polarizability: 344.409  -7.459 309.735  11.964  19.265 168.851

                      1                      2                      3
                      A                      A                      A
 Frequencies --     25.9281                29.3504                39.6412
 Red. masses --      3.5883                 3.8738                 2.8654
 Frc consts  --      0.0014                 0.0020                 0.0027
 IR Inten    --      0.7139                 0.3982                 0.0340

                      4                      5                      6
                      A                      A                      A
 Frequencies --     72.5123                80.7228                90.7484
 Red. masses --      4.2999                 3.6078                 3.0095
 Frc consts  --      0.0133                 0.0139                 0.0146
 IR Inten    --      0.4102                 0.7582                 0.5295

                      7                      8                      9
                      A                      A                      A
 Frequencies --     97.1804               123.9633               154.5550
 Red. masses --      3.0522                 3.6631                 4.3356
 Frc consts  --      0.0170                 0.0332                 0.0610
 IR Inten    --      0.5233                 0.3892                 1.0027

                     10                     11                     12
                      A                      A                      A
 Frequencies --    167.7485               189.5446               206.2920
 Red. masses --      3.0457                 3.3986                 1.3912
 Frc consts  --      0.0505                 0.0719                 0.0349
 IR Inten    --      1.9820                 1.5129                 1.1594

                     13                     14                     15
                      A                      A                      A
 Frequencies --    219.3767               230.2378               245.0969
 Red. masses --      1.7630                 1.2239                 1.0495
 Frc consts  --      0.0500                 0.0382                 0.0371
 IR Inten    --      0.3861                 0.0397                 0.1299

                     16                     17                     18
                      A                      A                      A
 Frequencies --    247.3281               276.5753               299.6205
 Red. masses --      1.5881                 3.4773                 2.6654
 Frc consts  --      0.0572                 0.1567                 0.1410
 IR Inten    --      0.7114                 0.1867                 1.1000

                     19                     20                     21
                      A                      A                      A
 Frequencies --    308.1180               331.9843               344.0163
 Red. masses --      3.5353                 4.4888                 4.0701
 Frc consts  --      0.1977                 0.2915                 0.2838
 IR Inten    --      3.7071                 2.7522                 2.9074

                     22                     23                     24
                      A                      A                      A
 Frequencies --    381.3077               387.2297               423.1159
 Red. masses --      2.5565                 3.6531                 3.5051
 Frc consts  --      0.2190                 0.3227                 0.3697
 IR Inten    --      0.1977                 8.7161                 5.3242

                     25                     26                     27
                      A                      A                      A
 Frequencies --    454.2300               465.0705               470.3799
 Red. masses --      2.2706                 3.3418                 1.3599
 Frc consts  --      0.2760                 0.4259                 0.1773
 IR Inten    --     17.6571                 1.9678                56.4111

                     28                     29                     30
                      A                      A                      A
 Frequencies --    514.4453               559.4847               575.7672
 Red. masses --      4.4793                 4.9423                 3.7555
 Frc consts  --      0.6985                 0.9115                 0.7335
 IR Inten    --      1.3424                 4.6303                 5.7248

                     31                     32                     33
                      A                      A                      A
 Frequencies --    609.6108               626.1518               645.0496
 Red. masses --      3.6390                 3.2940                 8.5516
 Frc consts  --      0.7968                 0.7609                 2.0965
 IR Inten    --      6.1519                66.5942                 1.7066

                     34                     35                     36
                      A                      A                      A
 Frequencies --    657.8678               702.3774               729.1798
 Red. masses --      1.5041                 6.3542                 5.1113
 Frc consts  --      0.3835                 1.8469                 1.6012
 IR Inten    --    194.7422                 0.6831                 8.0258

                     37                     38                     39
                      A                      A                      A
 Frequencies --    762.2015               767.3732               771.9993
 Red. masses --      2.7880                 5.0597                 6.5938
 Frc consts  --      0.9543                 1.7555                 2.3154
 IR Inten    --      1.3257                 5.5950                 3.2409

                     40                     41                     42
                      A                      A                      A
 Frequencies --    787.8227               806.5299               814.4238
 Red. masses --      3.8738                 1.5404                 1.3537
 Frc consts  --      1.4166                 0.5904                 0.5290
 IR Inten    --      2.3972                10.6171                 3.7100

                     43                     44                     45
                      A                      A                      A
 Frequencies --    875.0041               902.2966               927.1571
 Red. masses --      5.2332                 3.4416                 1.3909
 Frc consts  --      2.3607                 1.6509                 0.7044
 IR Inten    --     11.4429                12.0503                 3.9424

                     46                     47                     48
                      A                      A                      A
 Frequencies --    947.9690               956.1089               979.0641
 Red. masses --      1.2224                 1.3784                 2.5660
 Frc consts  --      0.6472                 0.7424                 1.4492
 IR Inten    --      1.7435                 0.5247                42.9577

                     49                     50                     51
                      A                      A                      A
 Frequencies --    986.4681               997.6673              1054.0755
 Red. masses --      2.5765                 3.1459                 3.8100
 Frc consts  --      1.4772                 1.8449                 2.4941
 IR Inten    --     36.3452                56.4029                 8.4465

                     52                     53                     54
                      A                      A                      A
 Frequencies --   1085.0070              1094.0787              1105.0495
 Red. masses --      1.9810                 2.0047                 1.6853
 Frc consts  --      1.3741                 1.4138                 1.2125
 IR Inten    --     54.8522                30.5935                19.0566

                     55                     56                     57
                      A                      A                      A
 Frequencies --   1116.7112              1125.5329              1169.9254
 Red. masses --      1.7069                 2.2991                 2.1680
 Frc consts  --      1.2541                 1.7160                 1.7484
 IR Inten    --     22.8331                87.3669                 9.6027

                     58                     59                     60
                      A                      A                      A
 Frequencies --   1170.7944              1180.4903              1216.5247
 Red. masses --      5.3345                 2.0267                 1.9725
 Frc consts  --      4.3083                 1.6640                 1.7199
 IR Inten    --     14.6546               171.6635                 3.3800

                     61                     62                     63
                      A                      A                      A
 Frequencies --   1244.7996              1270.0140              1286.5660
 Red. masses --      3.2032                 3.4897                 2.1290
 Frc consts  --      2.9244                 3.3163                 2.0763
 IR Inten    --     68.7354                47.6535               330.6362

                     64                     65                     66
                      A                      A                      A
 Frequencies --   1293.4389              1332.6704              1345.1214
 Red. masses --      1.3061                 1.9503                 2.2951
 Frc consts  --      1.2874                 2.0408                 2.4467
 IR Inten    --     10.2301               100.4805                 1.3819

                     67                     68                     69
                      A                      A                      A
 Frequencies --   1363.4283              1368.9192              1383.7408
 Red. masses --      1.5158                 1.7237                 2.4314
 Frc consts  --      1.6602                 1.9031                 2.7429
 IR Inten    --     38.1845                11.3289                55.1455

                     70                     71                     72
                      A                      A                      A
 Frequencies --   1390.0988              1408.5891              1423.4949
 Red. masses --      1.3022                 3.5289                 1.2971
 Frc consts  --      1.4826                 4.1254                 1.5486
 IR Inten    --      2.4740                45.0345                 4.3723

                     73                     74                     75
                      A                      A                      A
 Frequencies --   1426.4487              1428.4713              1432.3203
 Red. masses --      1.3464                 1.6663                 1.4035
 Frc consts  --      1.6141                 2.0034                 1.6964
 IR Inten    --     20.3793                30.5963                41.4164

                     76                     77                     78
                      A                      A                      A
 Frequencies --   1442.0789              1447.6321              1488.0423
 Red. masses --      1.2707                 2.6062                 2.1683
 Frc consts  --      1.5569                 3.2180                 2.8288
 IR Inten    --     29.5505                77.0644                35.9046

                     79                     80                     81
                      A                      A                      A
 Frequencies --   1501.7216              1505.7446              1508.6727
 Red. masses --      1.2827                 1.1024                 1.0473
 Frc consts  --      1.7043                 1.4726                 1.4045
 IR Inten    --     29.9188                18.1355                 0.0280

                     82                     83                     84
                      A                      A                      A
 Frequencies --   1512.7710              1523.8368              1525.8875
 Red. masses --      1.6145                 1.1216                 1.0491
 Frc consts  --      2.1769                 1.5345                 1.4392
 IR Inten    --    137.9413                 2.2034                12.1394

                     85                     86                     87
                      A                      A                      A
 Frequencies --   1530.0775              1530.4483              1534.0346
 Red. masses --      1.4672                 1.0523                 1.4348
 Frc consts  --      2.0239                 1.4522                 1.9894
 IR Inten    --     77.4362                 0.8774                25.8160

                     88                     89                     90
                      A                      A                      A
 Frequencies --   1540.4912              1551.9979              1557.0968
 Red. masses --      1.1126                 1.1757                 2.3504
 Frc consts  --      1.5557                 1.6686                 3.3575
 IR Inten    --      4.9526                32.0702                12.8848

                     91                     92                     93
                      A                      A                      A
 Frequencies --   1579.7677              1614.2476              1619.4077
 Red. masses --      5.2869                 3.1021                 5.4544
 Frc consts  --      7.7739                 4.7627                 8.4277
 IR Inten    --    177.8716                29.8904               320.0567

                     94                     95                     96
                      A                      A                      A
 Frequencies --   1667.8518              3053.2040              3057.8239
 Red. masses --      1.7653                 1.0636                 1.0359
 Frc consts  --      2.8932                 5.8418                 5.7067
 IR Inten    --     89.8263                18.9081                33.6436

                     97                     98                     99
                      A                      A                      A
 Frequencies --   3061.0404              3061.1445              3064.6502
 Red. masses --      1.0386                 1.0355                 1.0422
 Frc consts  --      5.7338                 5.7170                 5.7670
 IR Inten    --     20.2981                37.9655                15.4265

                    100                    101                    102
                      A                      A                      A
 Frequencies --   3080.9883              3082.4108              3103.6700
 Red. masses --      1.0828                 1.0633                 1.0987
 Frc consts  --      6.0560                 5.9524                 6.2355
 IR Inten    --     43.9311                13.5507                 6.5578

                    103                    104                    105
                      A                      A                      A
 Frequencies --   3124.5916              3125.4155              3125.6476
 Red. masses --      1.1015                 1.1034                 1.1033
 Frc consts  --      6.3364                 6.3502                 6.3505
 IR Inten    --     15.5915                40.6029                20.9913

                    106                    107                    108
                      A                      A                      A
 Frequencies --   3127.5122              3141.3315              3141.4795
 Red. masses --      1.1018                 1.1019                 1.0996
 Frc consts  --      6.3497                 6.4066                 6.3938
 IR Inten    --     41.3770                33.0248                 5.9946

                    109                    110                    111
                      A                      A                      A
 Frequencies --   3157.3745              3171.5177              3175.3042
 Red. masses --      1.1035                 1.1002                 1.0996
 Frc consts  --      6.4817                 6.5202                 6.5321
 IR Inten    --     22.3409                 1.0209                21.0958

                    112                    113                    114
                      A                      A                      A
 Frequencies --   3203.6090              3523.5211              3662.1175
 Red. masses --      1.0910                 1.0505                 1.0965
 Frc consts  --      6.5971                 7.6842                 8.6640
 IR Inten    --     18.5104               112.2972                91.6117

 - Thermochemistry -
 -------------------
 Temperature   298.150 Kelvin.  Pressure   1.00000 Atm.
 Atom     1 has atomic number  6 and mass  12.00000

 Molecular mass:   276.16986 amu.
 Principal axes and moments of inertia in atomic units:
                           1         2         3
     Eigenvalues --  2659.36858********************
           X            0.99999   0.00126  -0.00381
           Y           -0.00128   0.99998  -0.00601
           Z            0.00381   0.00602   0.99997
 This molecule is an asymmetric top.
 Rotational symmetry number  1.
 Warning -- assumption of classical behavior for rotation
           may cause significant error
 Rotational temperatures (Kelvin)      0.03257     0.00854     0.00721
 Rotational constants (GHZ):           0.67864     0.17795     0.15024
 Zero-point vibrational energy     887667.2 (Joules/Mol)
                                  212.15755 (Kcal/Mol)
 Warning -- explicit consideration of  31 degrees of freedom as
           vibrations may cause significant error
 Vibrational temperatures:     37.30    42.23    57.03   104.33   116.14
          (Kelvin)            130.57   139.82   178.36   222.37   241.35
                              272.71   296.81   315.63   331.26   352.64
                              355.85   397.93   431.09   443.31   477.65
                              494.96   548.62   557.14   608.77   653.54
                              669.13   676.77   740.17   804.97   828.40
                              877.09   900.89   928.08   946.53  1010.56
                             1049.13  1096.64  1104.08  1110.73  1133.50
                             1160.42  1171.77  1258.94  1298.20  1333.97
                             1363.92  1375.63  1408.65  1419.31  1435.42
                             1516.58  1561.08  1574.14  1589.92  1606.70
                             1619.39  1683.26  1684.51  1698.46  1750.31
                             1790.99  1827.27  1851.08  1860.97  1917.42
                             1935.33  1961.67  1969.57  1990.89  2000.04
                             2026.65  2048.09  2052.34  2055.25  2060.79
                             2074.83  2082.82  2140.96  2160.64  2166.43
                             2170.64  2176.54  2192.46  2195.41  2201.44
                             2201.97  2207.13  2216.42  2232.98  2240.32
                             2272.93  2322.54  2329.97  2399.67  4392.88
                             4399.53  4404.15  4404.30  4409.35  4432.85
                             4434.90  4465.49  4495.59  4496.78  4497.11
                             4499.79  4519.68  4519.89  4542.76  4563.11
                             4568.55  4609.28  5069.56  5268.97

 Zero-point correction=                           0.338095 (Hartree/Particle)
 Thermal correction to Energy=                    0.358084
 Thermal correction to Enthalpy=                  0.359028
 Thermal correction to Gibbs Free Energy=         0.288627
 Sum of electronic and zero-point Energies=           -910.924465
 Sum of electronic and thermal Energies=              -910.904476
 Sum of electronic and thermal Enthalpies=            -910.903532
 Sum of electronic and thermal Free Energies=         -910.973933

                     E (Thermal)             CV                S
                      KCal/Mol        Cal/Mol-Kelvin    Cal/Mol-Kelvin
 Total                  224.701             75.100            148.172
 Electronic               0.000              0.000              0.000
 Translational            0.889              2.981             42.746
 Rotational               0.889              2.981             34.137
 Vibrational            222.923             69.139             71.288
 Vibration     1          0.593              1.985              6.119
 Vibration     2          0.593              1.984              5.873
 Vibration     3          0.594              1.981              5.277
 Vibration     4          0.599              1.967              4.084
 Vibration     5          0.600              1.962              3.873
 Vibration     6          0.602              1.956              3.644
 Vibration     7          0.603              1.951              3.510
 Vibration     8          0.610              1.929              3.038
 Vibration     9          0.620              1.898              2.615
 Vibration    10          0.624              1.882              2.461
 Vibration    11          0.633              1.854              2.232
 Vibration    12          0.641              1.831              2.076
 Vibration    13          0.647              1.812              1.964
 Vibration    14          0.652              1.795              1.877
 Vibration    15          0.660              1.771              1.766
 Vibration    16          0.661              1.767              1.750
 Vibration    17          0.678              1.717              1.555
 Vibration    18          0.692              1.674              1.419
 Vibration    19          0.698              1.658              1.372
 Vibration    20          0.714              1.612              1.250
 Vibration    21          0.723              1.587              1.193
 Vibration    22          0.751              1.510              1.034
 Vibration    23          0.756              1.497              1.011
 Vibration    24          0.785              1.420              0.881
 Vibration    25          0.813              1.352              0.783
 Vibration    26          0.823              1.328              0.751
 Vibration    27          0.827              1.316              0.736
 Vibration    28          0.869              1.218              0.623
 Vibration    29          0.915              1.119              0.525
 Vibration    30          0.932              1.084              0.493
 Vibration    31          0.969              1.011              0.433

 Optimization completed.
    -- Stationary point found.
 Normal termination of Gaussian 16 at Sun Dec 13 17:09:05 2020.

 ----------------------------------------------------------------------
 # B3LYP/6-311++G(d,p) empiricaldispersion=gd3bj scf=xqc pop=npa geom=c
 heck
 ----------------------------------------------------------------------

 ---------------------------------------
 CID_80141263_JID_10337_Energie_neutraal
 ---------------------------------------
 Structure from the checkpoint file:  "JID_10337.chk"
 Charge =  0 Multiplicity = 1

 SCF Done:  E(RB3LYP) =  -911.510105697     A.U. after   16 cycles
 Normal termination of Gaussian 16 at Sun Dec 13 17:18:08 2020.

 ----------------------------------------------------------------------
 # B3LYP/6-311++G(d,p) empiricaldispersion=gd3bj scf=xqc pop=npa geom=c
 heck
 ----------------------------------------------------------------------

 -------------------------------------
 CID_80141263_JID_10337_Energie_kation
 -------------------------------------
 Structure from the checkpoint file:  "JID_10337.chk"
 Charge =  1 Multiplicity = 2

 SCF Done:  E(UB3LYP) =  -911.231450580     A.U. after   23 cycles
 Normal termination of Gaussian 16 at Sun Dec 13 17:36:42 2020.
 Gaussian 16:  ES64L-G16RevA.03 25-Dec-2016

 ----------------------------------------------------------------------
 # B3LYP/6-311++G(d,p) empiricaldispersion=gd3bj scf=xqc pop=npa geom=c
 heck
 ----------------------------------------------------------------------

 ------------------------------------
 CID_80141263_JID_10337_Energie_anion
 ------------------------------------
 Structure from the checkpoint file:  "JID_10337.chk"
 Charge = -1 Multiplicity = 2

                         Standard orientation:
 ---------------------------------------------------------------------
 Center     Atomic      Atomic             Coordinates (Angstroms)
 Number     Number       Type             X           Y           Z
 ---------------------------------------------------------------------
      1          6           0       -5.233747   -1.895562    1.012159
      2          6           0       -4.187987   -2.147294   -0.084249
      3          6           0       -3.213046   -1.019825   -0.200619
      4          7           0       -1.914300   -1.170364   -0.000830
      5          7           0       -1.419330    0.100451   -0.188887
      6          6           0       -2.454942    0.948003   -0.495960
      7          7           0       -3.586082    0.259397   -0.505116
      8          6           0       -2.365007    2.414318   -0.771751
      9          6           0       -2.567871    3.258744    0.497097
     10          6           0       -0.036712    0.365132   -0.029282
     11          6           0        0.922292   -0.637833   -0.232713
     12          6           0        2.261328   -0.205147   -0.013710
     13          7           0        2.584182    1.032477    0.323883
     14          6           0        1.568471    1.897496    0.464976
     15          7           0        0.282578    1.621118    0.318590
     16          8           0        3.183251   -1.171678   -0.183508
     17          6           0        4.610786   -0.921071   -0.018790
     18          6           0        5.136378    0.062025   -1.059778
     19          6           0        4.960146   -0.555662    1.420375
     20          7           0        0.671956   -1.919670   -0.662339
     21          1           0       -4.756639   -1.816874    1.995014
     22          1           0       -5.961782   -2.712842    1.048503
     23          1           0       -5.768539   -0.960826    0.819559
     24          1           0       -3.630901   -3.068641    0.113772
     25          1           0       -4.695857   -2.272454   -1.048956
     26          1           0       -1.399768    2.653393   -1.222565
     27          1           0       -3.153492    2.639147   -1.497068
     28          1           0       -1.762490    3.063687    1.209286
     29          1           0       -2.561059    4.324778    0.245857
     30          1           0       -3.527232    3.020979    0.967717
     31          1           0        1.829062    2.916622    0.736373
     32          1           0        5.017735   -1.913282   -0.237400
     33          1           0        4.785503    1.075060   -0.857878
     34          1           0        6.232008    0.055327   -1.038699
     35          1           0        4.812113   -0.235220   -2.062225
     36          1           0        4.517013   -1.276293    2.115384
     37          1           0        6.048497   -0.586452    1.544724
     38          1           0        4.603894    0.444698    1.670305
     39          1           0        1.434059   -2.565069   -0.507257
     40          1           0       -0.261676   -2.256116   -0.450013
 ---------------------------------------------------------------------

 SCF Done:  E(UB3LYP) =  -911.505320308     A.U. after   33 cycles
 SCF Done:  E(UB3LYP) =  -911.505320309     a.u. after    1 cycles

 The electronic state is 2-A.
 Alpha  occ. eigenvalues --  -19.04094 -14.26352 -14.19581 -14.19029 -14.16998
 Alpha  occ. eigenvalues --  -14.16630 -14.16517 -10.14142 -10.12612 -10.09989
 Alpha  occ. eigenvalues --  -10.09823 -10.09773 -10.08896 -10.08678 -10.07033
 Alpha  occ. eigenvalues --  -10.06969 -10.06426 -10.05843 -10.05516 -10.04518
 Alpha  occ. eigenvalues --   -0.96389  -0.94070  -0.84959  -0.79472  -0.77576
 Alpha  occ. eigenvalues --   -0.74642  -0.71574  -0.69698  -0.65850  -0.64736
 Alpha  occ. eigenvalues --   -0.61863  -0.60399  -0.56129  -0.54024  -0.52974
 Alpha  occ. eigenvalues --   -0.51529  -0.49755  -0.45859  -0.44300  -0.42668
 Alpha  occ. eigenvalues --   -0.41015  -0.38460  -0.37944  -0.37220  -0.35865
 Alpha  occ. eigenvalues --   -0.35321  -0.34291  -0.33878  -0.32810  -0.32620
 Alpha  occ. eigenvalues --   -0.31714  -0.31151  -0.30952  -0.30204  -0.29634
 Alpha  occ. eigenvalues --   -0.27668  -0.27456  -0.27223  -0.26387  -0.25277
 Alpha  occ. eigenvalues --   -0.24510  -0.24443  -0.23579  -0.22973  -0.22689
 Alpha  occ. eigenvalues --   -0.21798  -0.19995  -0.18105  -0.17485  -0.15141
 Alpha  occ. eigenvalues --   -0.14961  -0.13229  -0.12869  -0.08331   0.05036
 Alpha virt. eigenvalues --    0.06192   0.07016   0.08123   0.08447   0.08723
 Alpha virt. eigenvalues --    0.09430   0.09828   0.10412   0.10591   0.10991
 Alpha virt. eigenvalues --    0.11224   0.11499   0.11940   0.12109   0.12655

  Beta  occ. eigenvalues --  -19.04047 -14.26414 -14.19375 -14.19015 -14.16870
  Beta  occ. eigenvalues --  -14.16521 -14.16346 -10.14144 -10.12402 -10.09817
  Beta  occ. eigenvalues --  -10.09634 -10.09542 -10.08834 -10.08666 -10.07026
  Beta  occ. eigenvalues --  -10.06959 -10.06429 -10.05864 -10.05492 -10.04480
  Beta  occ. eigenvalues --   -0.96232  -0.93873  -0.84623  -0.79351  -0.77303
  Beta  occ. eigenvalues --   -0.74293  -0.71290  -0.69633  -0.65762  -0.64558
  Beta  occ. eigenvalues --   -0.61633  -0.60383  -0.55800  -0.53940  -0.52830
  Beta  occ. eigenvalues --   -0.51438  -0.49605  -0.45728  -0.44109  -0.42554
  Beta  occ. eigenvalues --   -0.40918  -0.38390  -0.37832  -0.37158  -0.35461
  Beta  occ. eigenvalues --   -0.35088  -0.34108  -0.33790  -0.32729  -0.32433
  Beta  occ. eigenvalues --   -0.31515  -0.30934  -0.30823  -0.30117  -0.29334
  Beta  occ. eigenvalues --   -0.27542  -0.27368  -0.27060  -0.26198  -0.25190
  Beta  occ. eigenvalues --   -0.24412  -0.24320  -0.23332  -0.22741  -0.22641
  Beta  occ. eigenvalues --   -0.21298  -0.19766  -0.17619  -0.17062  -0.14884
  Beta  occ. eigenvalues --   -0.14113  -0.12787  -0.12074  -0.07482
  Beta virt. eigenvalues --    0.06091   0.07451   0.07971   0.08359   0.08595
  Beta virt. eigenvalues --    0.09331   0.09779   0.10340   0.10439   0.10669
  Beta virt. eigenvalues --    0.10956   0.11239   0.11719   0.11906   0.12056

 Mulliken charges and spin densities:
               1          2
     1  C   -0.017557  -0.479548
     2  C   -1.021514   0.642300
     3  C    0.514280  -0.641291
     4  N    0.109691   0.101311
     5  N   -0.019272  -0.037900
     6  C    0.460248  -0.141230
     7  N   -0.086345   0.020995
     8  C   -0.395494   0.271285
     9  C   -0.340078  -0.206609
    10  C   -0.613121   0.185505
    11  C    0.012175  -0.010742
    12  C   -0.288614   0.088291
    13  N   -0.100102   0.143331
    14  C    0.087233  -0.035212
    15  N   -0.179397   0.078662
    16  O   -0.088048   0.007493
    17  C    0.002732   0.011112
    18  C   -0.354755  -0.054076
    19  C   -0.375047  -0.022700
    20  N   -0.435269   0.008316
    21  H    0.125834   0.004033
    22  H   -0.370923   0.508124
    23  H    0.143967   0.009981
    24  H    0.047687   0.073769
    25  H    0.085007   0.064297
    26  H    0.153975   0.019754
    27  H    0.139797   0.027773
    28  H    0.145829   0.027821
    29  H   -0.070360   0.196618
    30  H    0.131259   0.001652
    31  H    0.143707   0.034844
    32  H    0.138074   0.002114
    33  H    0.138586   0.023363
    34  H    0.107171   0.021898
    35  H    0.117049   0.015348
    36  H    0.119483   0.009417
    37  H    0.116808   0.010140
    38  H    0.154643   0.008194
    39  H    0.254900   0.006377
    40  H    0.305767   0.005191
 Sum of Mulliken charges =  -1.00000   1.00000

 Dipole moment (field-independent basis, Debye):
    X=              6.8231    Y=             -0.7515    Z=             -0.1761  Tot=              6.8666
 Quadrupole moment (field-independent basis, Debye-Ang):
   XX=           -191.1036   YY=           -149.4281   ZZ=           -134.5467
   XY=            -12.6739   XZ=              1.8607   YZ=             -0.5436

 Summary of Natural Population Analysis:

                                       Natural Population
                Natural  -----------------------------------------------
    Atom  No    Charge         Core      Valence    Rydberg      Total
 -----------------------------------------------------------------------
      C    1   -0.28215      0.99967     2.27715    0.00533     3.28215
      C    2   -0.20843      0.99960     2.19919    0.00964     3.20843
      C    3    0.18517      0.99965     1.79557    0.01960     2.81483
      N    4   -0.16625      0.99967     2.65516    0.01142     3.66625
      N    5   -0.12612      0.99959     2.61489    0.01164     3.62612
      C    6    0.25910      0.99961     1.72494    0.01635     2.74090
      N    7   -0.28551      0.99968     2.77768    0.00815     3.78551
      C    8   -0.21501      0.99961     2.20654    0.00886     3.21501
      C    9   -0.27792      0.99966     2.27377    0.00449     3.27792
      C   10    0.22968      0.99948     1.75570    0.01514     2.77032
      C   11    0.04066      0.99945     1.95022    0.00967     2.95934
      C   12    0.29141      0.99946     1.69236    0.01677     2.70859
      N   13   -0.25948      0.99965     2.74811    0.01172     3.75948
      C   14    0.11617      0.99969     1.86596    0.01819     2.88383
      N   15   -0.25070      0.99967     2.74151    0.00952     3.75070
      O   16   -0.28814      0.99985     3.27777    0.01052     4.28814
      C   17    0.06890      0.99957     1.91786    0.01367     2.93110
      C   18   -0.30107      0.99964     2.29710    0.00433     3.30107
      C   19   -0.30101      0.99964     2.29702    0.00435     3.30101
      N   20   -0.40274      0.99970     2.89331    0.00973     3.90274
      H   21    0.09587      0.00000     0.40326    0.00087     0.40413
      H   22    0.09351      0.00000     0.40495    0.00154     0.40649
      H   23    0.10300      0.00000     0.39590    0.00110     0.39700
      H   24    0.10130      0.00000     0.39746    0.00124     0.39870
      H   25    0.10064      0.00000     0.39815    0.00120     0.39936
      H   26    0.11252      0.00000     0.38630    0.00118     0.38748
      H   27    0.10151      0.00000     0.39697    0.00152     0.39849
      H   28    0.10852      0.00000     0.38997    0.00150     0.39148
      H   29    0.09023      0.00000     0.40831    0.00147     0.40977
      H   30    0.09492      0.00000     0.40397    0.00111     0.40508
      H   31    0.07418      0.00000     0.42451    0.00131     0.42582
      H   32    0.08355      0.00000     0.41531    0.00114     0.41645
      H   33    0.11511      0.00000     0.38330    0.00159     0.38489
      H   34    0.09326      0.00000     0.40597    0.00077     0.40674
      H   35    0.10146      0.00000     0.39770    0.00085     0.39854
      H   36    0.10083      0.00000     0.39830    0.00087     0.39917
      H   37    0.09326      0.00000     0.40597    0.00077     0.40674
      H   38    0.11573      0.00000     0.38332    0.00095     0.38427
      H   39    0.18770      0.00000     0.31096    0.00134     0.31230
      H   40    0.20633      0.00000     0.29216    0.00151     0.29367
 =======================================================================
   * Total *   -0.00000     19.99254    53.76458    0.24288    74.00000

 Normal termination of Gaussian 16 at Sun Dec 13 18:03:40 2020.
