 Gaussian 16, Revision A.03,

 -----------------------------------------------------------
 # opt freq B3LYP/6-31G(d) empiricaldispersion=gd3bj scf=xqc
 -----------------------------------------------------------

 -------------------------------
 CID_127914868_JID_9417_neutraal
 -------------------------------
 Symbolic Z-matrix:
 Charge =  0 Multiplicity = 1

 SCF Done:  E(RB3LYP) =  -1242.01040093     A.U. after   15 cycles
 SCF Done:  E(RB3LYP) =  -1242.01946460     A.U. after   12 cycles
 SCF Done:  E(RB3LYP) =  -1242.02166541     A.U. after   13 cycles
 SCF Done:  E(RB3LYP) =  -1242.02266846     A.U. after   12 cycles
 SCF Done:  E(RB3LYP) =  -1242.02354128     A.U. after   12 cycles
 SCF Done:  E(RB3LYP) =  -1242.02396648     A.U. after   13 cycles
 SCF Done:  E(RB3LYP) =  -1242.02526766     A.U. after   12 cycles
 SCF Done:  E(RB3LYP) =  -1242.02631300     A.U. after   12 cycles
 SCF Done:  E(RB3LYP) =  -1242.02652352     A.U. after   12 cycles
 SCF Done:  E(RB3LYP) =  -1242.02684626     A.U. after   11 cycles
 SCF Done:  E(RB3LYP) =  -1242.02699976     A.U. after    9 cycles
 SCF Done:  E(RB3LYP) =  -1242.02700068     A.U. after    8 cycles
 SCF Done:  E(RB3LYP) =  -1242.02700264     A.U. after    8 cycles
 SCF Done:  E(RB3LYP) =  -1242.02700287     A.U. after    8 cycles
 SCF Done:  E(RB3LYP) =  -1242.02700287     A.U. after    7 cycles
 Optimization completed.
    -- Stationary point found.
 Normal termination of Gaussian 16 at Mon Dec 14 19:10:28 2020.

 --------------------------------------------------------------------
 #N Geom=AllCheck Guess=TCheck SCRF=Check GenChk RB3LYP/6-31G(d) Freq
 --------------------------------------------------------------------

 Structure from the checkpoint file:  "JID_9417.chk"
 -------------------------------
 CID_127914868_JID_9417_neutraal
 -------------------------------
 Charge =  0 Multiplicity = 1

 SCF Done:  E(RB3LYP) =  -1242.02700287     A.U. after    1 cycles

  Exact polarizability: 195.017 -14.785 155.391   5.177  -6.528 151.297
 Approx polarizability: 251.443 -16.218 236.353  11.792  -4.990 255.400

                      1                      2                      3
                      A                      A                      A
 Frequencies --     28.4480                49.4936                62.2836
 Red. masses --      5.4599                 4.3690                 6.1400
 Frc consts  --      0.0026                 0.0063                 0.0140
 IR Inten    --      1.3716                 1.1336                 0.4186

                      4                      5                      6
                      A                      A                      A
 Frequencies --     72.1987                90.0285               106.0021
 Red. masses --      3.4087                 6.8176                 4.0904
 Frc consts  --      0.0105                 0.0326                 0.0271
 IR Inten    --      0.5296                 4.3604                 1.2621

                      7                      8                      9
                      A                      A                      A
 Frequencies --    150.5014               168.8337               195.7500
 Red. masses --      4.0183                 3.8152                 2.9249
 Frc consts  --      0.0536                 0.0641                 0.0660
 IR Inten    --      0.2028                 0.4803                 0.9245

                     10                     11                     12
                      A                      A                      A
 Frequencies --    199.8134               215.8886               239.3898
 Red. masses --      2.7785                 3.5994                 1.8493
 Frc consts  --      0.0654                 0.0988                 0.0624
 IR Inten    --      4.6686                 5.8551                30.9614

                     13                     14                     15
                      A                      A                      A
 Frequencies --    251.7719               275.9321               296.8873
 Red. masses --      3.1455                 2.1617                 3.5979
 Frc consts  --      0.1175                 0.0970                 0.1868
 IR Inten    --      3.4284                24.8095                 1.5861

                     16                     17                     18
                      A                      A                      A
 Frequencies --    333.5784               339.4224               347.5455
 Red. masses --      2.7134                 2.3808                 2.5169
 Frc consts  --      0.1779                 0.1616                 0.1791
 IR Inten    --      4.4665                 0.1264                 3.5280

                     19                     20                     21
                      A                      A                      A
 Frequencies --    355.4419               388.3442               419.7884
 Red. masses --      2.1080                 3.6766                 2.4118
 Frc consts  --      0.1569                 0.3267                 0.2504
 IR Inten    --      2.0189                 0.1593                18.3067

                     22                     23                     24
                      A                      A                      A
 Frequencies --    439.9583               446.8548               456.1031
 Red. masses --      3.1169                 4.5691                 3.1691
 Frc consts  --      0.3555                 0.5375                 0.3884
 IR Inten    --      2.0326                22.2257                 7.3375

                     25                     26                     27
                      A                      A                      A
 Frequencies --    484.3248               495.4515               504.8245
 Red. masses --      3.2155                 3.9572                 1.8962
 Frc consts  --      0.4444                 0.5723                 0.2847
 IR Inten    --      3.4389                 6.7025                 2.1031

                     28                     29                     30
                      A                      A                      A
 Frequencies --    530.9604               585.5597               627.0007
 Red. masses --      2.7203                 4.0193                 4.0487
 Frc consts  --      0.4518                 0.8120                 0.9378
 IR Inten    --      2.3746                 5.0275                22.8804

                     31                     32                     33
                      A                      A                      A
 Frequencies --    653.6698               680.2237               699.3252
 Red. masses --      3.8589                 2.6514                 2.7931
 Frc consts  --      0.9715                 0.7228                 0.8048
 IR Inten    --      6.4916               122.7772                 7.8204

                     34                     35                     36
                      A                      A                      A
 Frequencies --    749.1203               754.2363               783.6159
 Red. masses --      2.6803                 3.0642                 2.9265
 Frc consts  --      0.8862                 1.0270                 1.0588
 IR Inten    --     11.5655                10.7277                 0.5700

                     37                     38                     39
                      A                      A                      A
 Frequencies --    836.0823               848.3879               873.0306
 Red. masses --      2.8406                 1.4913                 1.7673
 Frc consts  --      1.1699                 0.6324                 0.7936
 IR Inten    --      0.6749                 2.9449                 7.0509

                     40                     41                     42
                      A                      A                      A
 Frequencies --    880.8691               883.1182               896.8991
 Red. masses --      2.0946                 2.0658                 2.4675
 Frc consts  --      0.9576                 0.9493                 1.1695
 IR Inten    --     19.5696                12.8186                44.8804

                     43                     44                     45
                      A                      A                      A
 Frequencies --    900.4281               918.0197               931.9070
 Red. masses --      1.7215                 2.0964                 2.4268
 Frc consts  --      0.8223                 1.0409                 1.2417
 IR Inten    --      3.6365                 4.3519                10.2806

                     46                     47                     48
                      A                      A                      A
 Frequencies --    949.6952               976.8199               993.1117
 Red. masses --      1.9841                 2.0039                 2.1852
 Frc consts  --      1.0543                 1.1266                 1.2698
 IR Inten    --     26.7087                 2.6551                 7.2655

                     49                     50                     51
                      A                      A                      A
 Frequencies --   1014.9656              1031.4132              1053.3170
 Red. masses --      2.0176                 2.1460                 2.0744
 Frc consts  --      1.2246                 1.3451                 1.3560
 IR Inten    --     22.4891                24.5496                 0.4992

                     52                     53                     54
                      A                      A                      A
 Frequencies --   1086.0817              1092.0521              1102.8565
 Red. masses --      2.0576                 1.9847                 2.5556
 Frc consts  --      1.4300                 1.3945                 1.8314
 IR Inten    --      9.9410                 3.4273                75.4414

                     55                     56                     57
                      A                      A                      A
 Frequencies --   1110.6298              1122.2578              1124.0578
 Red. masses --      1.8624                 2.2868                 1.5765
 Frc consts  --      1.3535                 1.6969                 1.1736
 IR Inten    --      0.5866                75.8334                10.7615

                     58                     59                     60
                      A                      A                      A
 Frequencies --   1137.0986              1151.1919              1169.6319
 Red. masses --      2.0890                 1.9625                 1.7427
 Frc consts  --      1.5914                 1.5323                 1.4047
 IR Inten    --      2.0763                 4.9802                12.3590

                     61                     62                     63
                      A                      A                      A
 Frequencies --   1195.1281              1228.6660              1251.8402
 Red. masses --      1.3627                 1.4323                 1.3370
 Frc consts  --      1.1468                 1.2739                 1.2344
 IR Inten    --      4.8209                40.8359                28.6791

                     64                     65                     66
                      A                      A                      A
 Frequencies --   1260.5315              1271.0284              1293.9040
 Red. masses --      1.3370                 1.6079                 1.4433
 Frc consts  --      1.2516                 1.5305                 1.4237
 IR Inten    --     24.4762                36.8721                 5.3172

                     67                     68                     69
                      A                      A                      A
 Frequencies --   1305.0507              1310.1620              1325.1937
 Red. masses --      1.9090                 1.1800                 1.7632
 Frc consts  --      1.9156                 1.1934                 1.8244
 IR Inten    --    131.3988                 1.7639                44.8491

                     70                     71                     72
                      A                      A                      A
 Frequencies --   1328.9521              1336.0645              1356.9358
 Red. masses --      1.5197                 2.2288                 1.3628
 Frc consts  --      1.5813                 2.3441                 1.4784
 IR Inten    --     32.5700               151.9869                19.3725

                     73                     74                     75
                      A                      A                      A
 Frequencies --   1366.2859              1378.1810              1381.9868
 Red. masses --      1.2659                 1.2887                 1.4043
 Frc consts  --      1.3923                 1.4421                 1.5802
 IR Inten    --      4.5200                 0.6834                 0.5099

                     76                     77                     78
                      A                      A                      A
 Frequencies --   1392.3657              1404.6645              1407.4143
 Red. masses --      1.3741                 1.4325                 1.4259
 Frc consts  --      1.5696                 1.6653                 1.6641
 IR Inten    --      0.6702                13.8631                 1.5827

                     79                     80                     81
                      A                      A                      A
 Frequencies --   1408.9333              1416.7353              1421.4779
 Red. masses --      1.4764                 1.4117                 1.4580
 Frc consts  --      1.7268                 1.6695                 1.7357
 IR Inten    --      2.3755                 7.9609                 1.9215

                     82                     83                     84
                      A                      A                      A
 Frequencies --   1429.6026              1464.4940              1503.6654
 Red. masses --      1.3817                 2.0997                 1.1120
 Frc consts  --      1.6638                 2.6533                 1.4814
 IR Inten    --      5.5743               155.8475                17.7689

                     85                     86                     87
                      A                      A                      A
 Frequencies --   1510.1873              1511.4606              1512.2909
 Red. masses --      1.0930                 1.0900                 1.0917
 Frc consts  --      1.4687                 1.4671                 1.4710
 IR Inten    --      3.2441                 2.4562                 5.1515

                     88                     89                     90
                      A                      A                      A
 Frequencies --   1513.7478              1516.6020              1521.8691
 Red. masses --      1.0960                 1.0920                 1.0951
 Frc consts  --      1.4797                 1.4798                 1.4943
 IR Inten    --      0.8681                 6.1477                 7.2112

                     91                     92                     93
                      A                      A                      A
 Frequencies --   1524.5802              1529.9391              1615.9340
 Red. masses --      1.0997                 1.0876                 1.0984
 Frc consts  --      1.5060                 1.5000                 1.6898
 IR Inten    --     17.0298                 4.1201                29.1311

                     94                     95                     96
                      A                      A                      A
 Frequencies --   1707.1810              1740.0047              3016.9280
 Red. masses --      8.1525                 9.2617                 1.0683
 Frc consts  --     13.9992                16.5212                 5.7292
 IR Inten    --     74.3331               162.3213                10.7732

                     97                     98                     99
                      A                      A                      A
 Frequencies --   3019.9614              3021.5868              3028.1225
 Red. masses --      1.0662                 1.0685                 1.0732
 Frc consts  --      5.7293                 5.7476                 5.7983
 IR Inten    --     22.6692                15.0334                18.2967

                    100                    101                    102
                      A                      A                      A
 Frequencies --   3033.2105              3036.6790              3037.8762
 Red. masses --      1.0745                 1.0647                 1.0604
 Frc consts  --      5.8247                 5.7846                 5.7657
 IR Inten    --     35.9321                20.2026                18.3783

                    103                    104                    105
                      A                      A                      A
 Frequencies --   3038.0895              3065.6234              3068.3562
 Red. masses --      1.0712                 1.0941                 1.0674
 Frc consts  --      5.8253                 6.0581                 5.9210
 IR Inten    --     62.8166                78.5538                42.3943

                    106                    107                    108
                      A                      A                      A
 Frequencies --   3073.0238              3076.4832              3082.3438
 Red. masses --      1.0841                 1.1044                 1.1033
 Frc consts  --      6.0317                 6.1585                 6.1760
 IR Inten    --     11.8026                18.2543                67.2262

                    109                    110                    111
                      A                      A                      A
 Frequencies --   3086.7745              3098.2121              3111.0525
 Red. masses --      1.0940                 1.0931                 1.0932
 Frc consts  --      6.1416                 6.1821                 6.2341
 IR Inten    --     45.7386                20.5229                 9.1487

                    112                    113                    114
                      A                      A                      A
 Frequencies --   3137.8679              3157.2635              3174.6275
 Red. masses --      1.0975                 1.0885                 1.0920
 Frc consts  --      6.3666                 6.3930                 6.4843
 IR Inten    --     13.8315                11.5271                 3.4382

                    115                    116                    117
                      A                      A                      A
 Frequencies --   3214.7955              3482.4649              3598.4923
 Red. masses --      1.0880                 1.0470                 1.0980
 Frc consts  --      6.6252                 7.4815                 8.3773
 IR Inten    --      0.8607                53.0410               105.8762

 - Thermochemistry -
 -------------------
 Temperature   298.150 Kelvin.  Pressure   1.00000 Atm.
 Atom     1 has atomic number  6 and mass  12.00000

 Molecular mass:   286.13511 amu.
 Principal axes and moments of inertia in atomic units:
                           1         2         3
     Eigenvalues --  3150.948057108.344208411.28874
           X            0.99952  -0.03072  -0.00364
           Y            0.03057   0.99884  -0.03723
           Z            0.00478   0.03710   0.99930
 This molecule is an asymmetric top.
 Rotational symmetry number  1.
 Warning -- assumption of classical behavior for rotation
           may cause significant error
 Rotational temperatures (Kelvin)      0.02749     0.01218     0.01030
 Rotational constants (GHZ):           0.57276     0.25389     0.21456
 Zero-point vibrational energy     932282.1 (Joules/Mol)
                                  222.82076 (Kcal/Mol)
 Warning -- explicit consideration of  29 degrees of freedom as
           vibrations may cause significant error
 Vibrational temperatures:     40.93    71.21    89.61   103.88   129.53
          (Kelvin)            152.51   216.54   242.91   281.64   287.49
                              310.62   344.43   362.24   397.00   427.15
                              479.94   488.35   500.04   511.40   558.74
                              603.98   633.00   642.92   656.23   696.84
                              712.84   726.33   763.93   842.49   902.11
                              940.48   978.69  1006.17  1077.82  1085.18
                             1127.45  1202.94  1220.64  1256.10  1267.37
                             1270.61  1290.44  1295.52  1320.83  1340.81
                             1366.40  1405.43  1428.87  1460.31  1483.97
                             1515.49  1562.63  1571.22  1586.76  1597.95
                             1614.68  1617.27  1636.03  1656.31  1682.84
                             1719.52  1767.78  1801.12  1813.62  1828.73
                             1861.64  1877.68  1885.03  1906.66  1912.07
                             1922.30  1952.33  1965.78  1982.90  1988.37
                             2003.30  2021.00  2024.96  2027.14  2038.37
                             2045.19  2056.88  2107.08  2163.44  2172.82
                             2174.65  2175.85  2177.95  2182.05  2189.63
                             2193.53  2201.24  2324.97  2456.25  2503.48
                             4340.69  4345.05  4347.39  4356.79  4364.11
                             4369.10  4370.83  4371.13  4410.75  4414.68
                             4421.40  4426.37  4434.81  4441.18  4457.64
                             4476.11  4514.69  4542.60  4567.58  4625.37
                             5010.49  5177.43

 Zero-point correction=                           0.355087 (Hartree/Particle)
 Thermal correction to Energy=                    0.373425
 Thermal correction to Enthalpy=                  0.374369
 Thermal correction to Gibbs Free Energy=         0.308802
 Sum of electronic and zero-point Energies=          -1241.671915
 Sum of electronic and thermal Energies=             -1241.653578
 Sum of electronic and thermal Enthalpies=           -1241.652634
 Sum of electronic and thermal Free Energies=        -1241.718201

                     E (Thermal)             CV                S
                      KCal/Mol        Cal/Mol-Kelvin    Cal/Mol-Kelvin
 Total                  234.328             72.196            137.998
 Electronic               0.000              0.000              0.000
 Translational            0.889              2.981             42.852
 Rotational               0.889              2.981             33.599
 Vibrational            232.550             66.234             61.548
 Vibration     1          0.593              1.984              5.935
 Vibration     2          0.595              1.978              4.838
 Vibration     3          0.597              1.972              4.383
 Vibration     4          0.598              1.967              4.092
 Vibration     5          0.602              1.956              3.659
 Vibration     6          0.605              1.944              3.341
 Vibration     7          0.618              1.902              2.666
 Vibration     8          0.625              1.881              2.448
 Vibration     9          0.636              1.846              2.173
 Vibration    10          0.638              1.840              2.135
 Vibration    11          0.645              1.817              1.993
 Vibration    12          0.657              1.780              1.807
 Vibration    13          0.664              1.760              1.718
 Vibration    14          0.678              1.718              1.559
 Vibration    15          0.691              1.680              1.434
 Vibration    16          0.715              1.608              1.243
 Vibration    17          0.719              1.597              1.215
 Vibration    18          0.725              1.580              1.177
 Vibration    19          0.731              1.564              1.142
 Vibration    20          0.757              1.495              1.006
 Vibration    21          0.782              1.427              0.893
 Vibration    22          0.800              1.383              0.827
 Vibration    23          0.806              1.368              0.805
 Vibration    24          0.814              1.347              0.778
 Vibration    25          0.840              1.285              0.698
 Vibration    26          0.851              1.260              0.670
 Vibration    27          0.860              1.239              0.646
 Vibration    28          0.886              1.182              0.585
 Vibration    29          0.943              1.063              0.475

 Optimization completed.
    -- Stationary point found.
 Normal termination of Gaussian 16 at Mon Dec 14 19:37:27 2020.

 ----------------------------------------------------------------------
 # B3LYP/6-311++G(d,p) empiricaldispersion=gd3bj scf=xqc pop=npa geom=c
 heck
 ----------------------------------------------------------------------

 ---------------------------------------
 CID_127914868_JID_9417_Energie_neutraal
 ---------------------------------------
 Structure from the checkpoint file:  "JID_9417.chk"
 Charge =  0 Multiplicity = 1

 SCF Done:  E(RB3LYP) =  -1242.29609138     A.U. after   17 cycles
 Normal termination of Gaussian 16 at Mon Dec 14 19:51:00 2020.

 ----------------------------------------------------------------------
 # B3LYP/6-311++G(d,p) empiricaldispersion=gd3bj scf=xqc pop=npa geom=c
 heck
 ----------------------------------------------------------------------

 -------------------------------------
 CID_127914868_JID_9417_Energie_kation
 -------------------------------------
 Structure from the checkpoint file:  "JID_9417.chk"
 Charge =  1 Multiplicity = 2

 SCF Done:  E(UB3LYP) =  -1241.98329292     A.U. after   29 cycles
 Normal termination of Gaussian 16 at Mon Dec 14 20:23:29 2020.
 Gaussian 16:  ES64L-G16RevA.03 25-Dec-2016

 ----------------------------------------------------------------------
 # B3LYP/6-311++G(d,p) empiricaldispersion=gd3bj scf=xqc pop=npa geom=c
 heck
 ----------------------------------------------------------------------

 ------------------------------------
 CID_127914868_JID_9417_Energie_anion
 ------------------------------------
 Structure from the checkpoint file:  "JID_9417.chk"
 Charge = -1 Multiplicity = 2

                         Standard orientation:
 ---------------------------------------------------------------------
 Center     Atomic      Atomic             Coordinates (Angstroms)
 Number     Number       Type             X           Y           Z
 ---------------------------------------------------------------------
      1          6           0        4.477436   -0.251585   -0.810703
      2          6           0        4.367964   -0.734640    0.639542
      3          6           0        2.989667   -1.315197    1.010834
      4          6           0        1.903483   -0.284673    1.165459
      5          6           0        1.441350    0.521855    0.196285
      6          6           0        2.049277    0.583147   -1.191977
      7          6           0        3.555519    0.911434   -1.197273
      8          6           0        0.321508    1.449771    0.593134
      9          8           0        0.327219    2.015881    1.683925
     10          7           0       -0.710931    1.644070   -0.306525
     11          6           0       -1.822558    2.502403    0.110026
     12          6           0       -2.981716    1.655038    0.641916
     13          6           0       -3.441648    0.633823   -0.408464
     14          6           0       -2.284486   -0.148150   -1.049712
     15          6           0       -1.065535    0.729722   -1.381726
     16         16           0       -1.809213   -1.651379   -0.125546
     17          8           0       -3.014970   -2.474036    0.025560
     18          8           0       -0.602309   -2.179015   -0.779795
     19          7           0       -1.422471   -1.109161    1.425811
     20          1           0        4.276112   -1.099219   -1.482695
     21          1           0        5.515777    0.049171   -1.001646
     22          1           0        5.124819   -1.512149    0.804329
     23          1           0        4.608265    0.088392    1.325246
     24          1           0        3.078808   -1.877911    1.946248
     25          1           0        2.691400   -2.042637    0.240725
     26          1           0        1.466232   -0.163981    2.156088
     27          1           0        1.534248    1.352969   -1.774415
     28          1           0        1.891917   -0.370678   -1.717709
     29          1           0        3.737070    1.768895   -0.536447
     30          1           0        3.823242    1.235149   -2.211275
     31          1           0       -2.140556    3.086726   -0.765256
     32          1           0       -1.447638    3.182989    0.872656
     33          1           0       -3.823261    2.304112    0.911232
     34          1           0       -2.646938    1.143743    1.547583
     35          1           0       -4.174673   -0.066058    0.004005
     36          1           0       -3.944321    1.166010   -1.227842
     37          1           0       -2.627361   -0.613181   -1.982069
     38          1           0       -0.230805    0.088053   -1.646510
     39          1           0       -1.323938    1.323479   -2.269455
     40          1           0       -1.836879   -1.744673    2.104400
     41          1           0       -0.411369   -1.041839    1.534975
 ---------------------------------------------------------------------

 SCF Done:  E(UB3LYP) =  -1242.29229951     A.U. after   33 cycles
 SCF Done:  E(UB3LYP) =  -1242.29229951     a.u. after    1 cycles

 The electronic state is 2-A.
 Alpha  occ. eigenvalues --  -88.96222 -19.02024 -19.01875 -18.96497 -14.24194
 Alpha  occ. eigenvalues --  -14.22929 -10.14813 -10.11849 -10.11359 -10.09284
 Alpha  occ. eigenvalues --  -10.08182 -10.07663 -10.07607 -10.07253 -10.07194
 Alpha  occ. eigenvalues --  -10.06971 -10.06609 -10.06080 -10.05262  -8.02470
 Alpha  occ. eigenvalues --   -5.98776  -5.98718  -5.98502  -1.02017  -0.92043
 Alpha  occ. eigenvalues --   -0.91131  -0.83321  -0.81236  -0.73406  -0.71860
 Alpha  occ. eigenvalues --   -0.68079  -0.66749  -0.66483  -0.59102  -0.58203
 Alpha  occ. eigenvalues --   -0.56184  -0.54801  -0.52420  -0.49657  -0.47324
 Alpha  occ. eigenvalues --   -0.44925  -0.43563  -0.42175  -0.41731  -0.40354
 Alpha  occ. eigenvalues --   -0.39950  -0.37160  -0.36866  -0.36258  -0.35535
 Alpha  occ. eigenvalues --   -0.35092  -0.34234  -0.33583  -0.32169  -0.32025
 Alpha  occ. eigenvalues --   -0.31045  -0.30690  -0.30144  -0.29244  -0.27846
 Alpha  occ. eigenvalues --   -0.27074  -0.26616  -0.26217  -0.24996  -0.24705
 Alpha  occ. eigenvalues --   -0.23809  -0.23573  -0.23367  -0.23052  -0.22702
 Alpha  occ. eigenvalues --   -0.21978  -0.21543  -0.20444  -0.19377  -0.15640
 Alpha  occ. eigenvalues --   -0.13566  -0.12786   0.04057
 Alpha virt. eigenvalues --    0.06352   0.06602   0.07029   0.07980   0.08449
 Alpha virt. eigenvalues --    0.08828   0.09094   0.10086   0.10335   0.10865
 Alpha virt. eigenvalues --    0.11165   0.11662   0.12094   0.12362   0.12515

  Beta  occ. eigenvalues --  -88.96220 -19.02018 -19.01870 -18.96382 -14.24164
  Beta  occ. eigenvalues --  -14.22937 -10.14710 -10.11838 -10.11342 -10.09272
  Beta  occ. eigenvalues --  -10.08158 -10.07662 -10.07580 -10.07238 -10.07210
  Beta  occ. eigenvalues --  -10.06965 -10.06597 -10.06011 -10.05055  -8.02468
  Beta  occ. eigenvalues --   -5.98772  -5.98716  -5.98498  -1.02005  -0.91846
  Beta  occ. eigenvalues --   -0.91121  -0.83253  -0.81181  -0.73283  -0.71815
  Beta  occ. eigenvalues --   -0.67993  -0.66614  -0.66387  -0.58982  -0.58157
  Beta  occ. eigenvalues --   -0.56101  -0.54658  -0.52373  -0.49576  -0.47275
  Beta  occ. eigenvalues --   -0.44767  -0.43515  -0.42019  -0.41697  -0.40327
  Beta  occ. eigenvalues --   -0.39846  -0.37087  -0.36803  -0.36215  -0.35506
  Beta  occ. eigenvalues --   -0.34964  -0.34194  -0.33516  -0.32080  -0.31932
  Beta  occ. eigenvalues --   -0.30974  -0.30639  -0.30044  -0.29185  -0.27585
  Beta  occ. eigenvalues --   -0.26951  -0.26588  -0.26127  -0.24934  -0.24567
  Beta  occ. eigenvalues --   -0.23761  -0.23517  -0.23293  -0.22945  -0.22676
  Beta  occ. eigenvalues --   -0.21892  -0.21522  -0.20410  -0.19345  -0.15250
  Beta  occ. eigenvalues --   -0.13262  -0.12284
  Beta virt. eigenvalues --    0.06323   0.06852   0.07312   0.07883   0.08561
  Beta virt. eigenvalues --    0.08844   0.09085   0.09338   0.10272   0.10678
  Beta virt. eigenvalues --    0.10943   0.11156   0.11771   0.12097   0.12396

 Mulliken charges and spin densities:
               1          2
     1  C   -0.274788  -0.112260
     2  C   -0.324604  -0.018347
     3  C   -0.286201  -0.081363
     4  C   -0.081349   0.467146
     5  C    1.430674  -0.372018
     6  C   -0.728189   0.185384
     7  C   -0.442609  -0.187892
     8  C   -1.192422  -0.146109
     9  O   -0.247493   0.038084
    10  N    0.216574  -0.005292
    11  C    0.242512  -0.518609
    12  C   -0.306402   0.120982
    13  C    0.446377  -1.061901
    14  C   -0.654280   0.192059
    15  C    0.180734  -0.295559
    16  S    1.113093  -0.847097
    17  O   -0.125893   0.009115
    18  O   -0.110103   0.014786
    19  N   -0.571040   0.052773
    20  H    0.117599   0.013982
    21  H    0.129579   0.012457
    22  H    0.125034   0.013020
    23  H    0.127620   0.003679
    24  H    0.127202   0.021902
    25  H    0.170959   0.003520
    26  H    0.182313   0.040762
    27  H    0.066010   0.146349
    28  H    0.113513   0.050266
    29  H    0.154225   0.000030
    30  H   -0.098782   0.249759
    31  H   -0.188898   0.345750
    32  H    0.176498   0.029853
    33  H   -0.214198   0.398548
    34  H    0.192740   0.009024
    35  H    0.035437   0.146522
    36  H   -0.353866   0.530876
    37  H   -0.145675   0.456229
    38  H    0.167542   0.052821
    39  H   -0.634510   0.833768
    40  H    0.201275   0.151468
    41  H    0.263793   0.055534
 Sum of Mulliken charges =  -1.00000   1.00000

 Dipole moment (field-independent basis, Debye):
    X=              4.7764    Y=             -2.2534    Z=              2.7639  Tot=              5.9607
 Quadrupole moment (field-independent basis, Debye-Ang):
   XX=           -178.7729   YY=           -168.9362   ZZ=           -160.4352
   XY=             -0.8216   XZ=             -9.3343   YZ=             -2.9565

 Summary of Natural Population Analysis:

                                       Natural Population
                Natural  -----------------------------------------------
    Atom  No    Charge         Core      Valence    Rydberg      Total
 -----------------------------------------------------------------------
      C    1   -0.18982      0.99963     2.18105    0.00914     3.18982
      C    2   -0.17935      0.99962     2.17375    0.00597     3.17935
      C    3   -0.21395      0.99962     2.20497    0.00936     3.21395
      C    4   -0.04156      0.99947     2.03166    0.01043     3.04156
      C    5   -0.04854      0.99941     2.03736    0.01177     3.04854
      C    6   -0.21273      0.99960     2.20343    0.00970     3.21273
      C    7   -0.18502      0.99963     2.17587    0.00953     3.18502
      C    8    0.35351      0.99957     1.62295    0.02397     2.64649
      O    9   -0.31863      0.99988     3.31375    0.00500     4.31863
      N   10   -0.26595      0.99965     2.75415    0.01215     3.76595
      C   11   -0.08680      0.99961     2.07599    0.01120     3.08680
      C   12   -0.19970      0.99962     2.19200    0.00809     3.19970
      C   13   -0.20024      0.99960     2.19020    0.01044     3.20024
      C   14   -0.20072      0.99953     2.18447    0.01672     3.20072
      C   15   -0.09694      0.99956     2.08380    0.01358     3.09694
      S   16    1.08922      4.99927     1.81259    0.09891     6.91078
      O   17   -0.47170      0.99991     3.46652    0.00528     4.47170
      O   18   -0.46538      0.99991     3.46007    0.00540     4.46538
      N   19   -0.52113      0.99978     3.01098    0.01037     4.02113
      H   20    0.09188      0.00000     0.40703    0.00109     0.40812
      H   21    0.09374      0.00000     0.40538    0.00089     0.40626
      H   22    0.09156      0.00000     0.40745    0.00100     0.40844
      H   23    0.09396      0.00000     0.40503    0.00101     0.40604
      H   24    0.09772      0.00000     0.40144    0.00085     0.40228
      H   25    0.10512      0.00000     0.39374    0.00113     0.39488
      H   26    0.09940      0.00000     0.39940    0.00120     0.40060
      H   27    0.10483      0.00000     0.39364    0.00153     0.39517
      H   28    0.10490      0.00000     0.39374    0.00135     0.39510
      H   29    0.09650      0.00000     0.40259    0.00091     0.40350
      H   30    0.09595      0.00000     0.40314    0.00091     0.40405
      H   31    0.09136      0.00000     0.40714    0.00150     0.40864
      H   32    0.11550      0.00000     0.38341    0.00109     0.38450
      H   33    0.09925      0.00000     0.39981    0.00094     0.40075
      H   34    0.10989      0.00000     0.38861    0.00150     0.39011
      H   35    0.11027      0.00000     0.38850    0.00123     0.38973
      H   36    0.10585      0.00000     0.39174    0.00240     0.39415
      H   37    0.12238      0.00000     0.37596    0.00166     0.37762
      H   38    0.12047      0.00000     0.37720    0.00233     0.37953
      H   39    0.10290      0.00000     0.39484    0.00226     0.39710
      H   40    0.19518      0.00000     0.30284    0.00198     0.30482
      H   41    0.20679      0.00000     0.29094    0.00227     0.29321
 =======================================================================
   * Total *   -0.00000     22.99285    53.68913    0.31802    77.00000

 Normal termination of Gaussian 16 at Mon Dec 14 21:00:33 2020.
