 Gaussian 16, Revision A.03,

 -----------------------------------------------------------
 # opt freq B3LYP/6-31G(d) empiricaldispersion=gd3bj scf=xqc
 -----------------------------------------------------------

 -------------------------------
 CID_115889421_JID_6438_neutraal
 -------------------------------
 Symbolic Z-matrix:
 Charge =  0 Multiplicity = 1

 SCF Done:  E(RB3LYP) =  -731.743243517     A.U. after   14 cycles
 SCF Done:  E(RB3LYP) =  -731.746593342     A.U. after   13 cycles
 SCF Done:  E(RB3LYP) =  -731.744191095     A.U. after   12 cycles
 SCF Done:  E(RB3LYP) =  -731.747848415     A.U. after   11 cycles
 SCF Done:  E(RB3LYP) =  -731.749237145     A.U. after   12 cycles
 SCF Done:  E(RB3LYP) =  -731.749829840     A.U. after   12 cycles
 SCF Done:  E(RB3LYP) =  -731.750349812     A.U. after   10 cycles
 SCF Done:  E(RB3LYP) =  -731.750588352     A.U. after   11 cycles
 SCF Done:  E(RB3LYP) =  -731.750699444     A.U. after   11 cycles
 SCF Done:  E(RB3LYP) =  -731.750764589     A.U. after   10 cycles
 SCF Done:  E(RB3LYP) =  -731.754597608     A.U. after    9 cycles
 SCF Done:  E(RB3LYP) =  -731.754598051     A.U. after    7 cycles
 SCF Done:  E(RB3LYP) =  -731.754598296     A.U. after    7 cycles
 SCF Done:  E(RB3LYP) =  -731.754598290     A.U. after    6 cycles
 Optimization completed.
    -- Stationary point found.
 Normal termination of Gaussian 16 at Thu Dec 10 23:20:57 2020.

 --------------------------------------------------------------------
 #N Geom=AllCheck Guess=TCheck SCRF=Check GenChk RB3LYP/6-31G(d) Freq
 --------------------------------------------------------------------

 Structure from the checkpoint file:  "JID_6438.chk"
 -------------------------------
 CID_115889421_JID_6438_neutraal
 -------------------------------
 Charge =  0 Multiplicity = 1

 SCF Done:  E(RB3LYP) =  -731.754598290     A.U. after    1 cycles

  Exact polarizability: 183.397   0.857 130.855   4.394  -1.269 123.330
 Approx polarizability: 212.078  -5.226 196.185  11.197  -9.476 186.052

                      1                      2                      3
                      A                      A                      A
 Frequencies --     19.2458                27.9701                39.6333
 Red. masses --      4.0222                 3.3877                 3.4407
 Frc consts  --      0.0009                 0.0016                 0.0032
 IR Inten    --      0.8690                 0.0917                 0.4028

                      4                      5                      6
                      A                      A                      A
 Frequencies --     75.4887                85.6482               104.6664
 Red. masses --      4.3723                 3.5532                 3.5730
 Frc consts  --      0.0147                 0.0154                 0.0231
 IR Inten    --      0.3439                 1.3872                 0.2394

                      7                      8                      9
                      A                      A                      A
 Frequencies --    147.8332               165.3652               203.7053
 Red. masses --      4.0405                 3.2628                 2.4776
 Frc consts  --      0.0520                 0.0526                 0.0606
 IR Inten    --      2.9521                 0.3496                 1.3036

                     10                     11                     12
                      A                      A                      A
 Frequencies --    222.5398               240.2794               244.9753
 Red. masses --      1.1687                 1.9308                 1.7153
 Frc consts  --      0.0341                 0.0657                 0.0606
 IR Inten    --      0.3637                 1.5923                 2.2732

                     13                     14                     15
                      A                      A                      A
 Frequencies --    266.3185               274.5957               292.3567
 Red. masses --      1.5087                 1.7887                 1.0990
 Frc consts  --      0.0630                 0.0795                 0.0553
 IR Inten    --      2.1775                 1.3796                 0.1088

                     16                     17                     18
                      A                      A                      A
 Frequencies --    350.4382               358.4286               370.8453
 Red. masses --      2.6428                 2.5434                 2.7132
 Frc consts  --      0.1912                 0.1925                 0.2198
 IR Inten    --      2.8086                 4.1901                 1.4677

                     19                     20                     21
                      A                      A                      A
 Frequencies --    371.8595               382.9484               411.0367
 Red. masses --      2.8226                 2.8972                 2.9900
 Frc consts  --      0.2300                 0.2503                 0.2976
 IR Inten    --      6.8184                 5.2010                 3.9922

                     22                     23                     24
                      A                      A                      A
 Frequencies --    453.4202               460.2887               475.8233
 Red. masses --      2.9985                 2.9808                 2.4480
 Frc consts  --      0.3632                 0.3721                 0.3265
 IR Inten    --      0.4784                 8.0824                 0.9146

                     25                     26                     27
                      A                      A                      A
 Frequencies --    501.9430               515.0579               564.6434
 Red. masses --      2.3276                 1.7049                 3.0856
 Frc consts  --      0.3455                 0.2665                 0.5796
 IR Inten    --      9.0630                 6.8351                13.8106

                     28                     29                     30
                      A                      A                      A
 Frequencies --    602.2495               662.2498               671.7999
 Red. masses --      2.4019                 1.7596                 2.7454
 Frc consts  --      0.5133                 0.4547                 0.7300
 IR Inten    --     15.8872                54.4728                 7.8516

                     31                     32                     33
                      A                      A                      A
 Frequencies --    745.0717               818.8823               822.8149
 Red. masses --      3.3484                 2.2541                 2.5792
 Frc consts  --      1.0952                 0.8906                 1.0288
 IR Inten    --      3.2726                 2.3480                 1.6150

                     34                     35                     36
                      A                      A                      A
 Frequencies --    868.5033               879.2708               887.5080
 Red. masses --      1.7952                 1.4323                 2.4268
 Frc consts  --      0.7978                 0.6524                 1.1263
 IR Inten    --     38.0689                 5.0178                 7.1999

                     37                     38                     39
                      A                      A                      A
 Frequencies --    911.7890               932.4807               936.7084
 Red. masses --      1.8686                 1.7190                 2.2451
 Frc consts  --      0.9153                 0.8807                 1.1606
 IR Inten    --     14.3075                 0.4834                20.9939

                     40                     41                     42
                      A                      A                      A
 Frequencies --    940.4542               978.2815               990.4737
 Red. masses --      1.8183                 1.1995                 2.3307
 Frc consts  --      0.9475                 0.6764                 1.3472
 IR Inten    --      4.5256                 0.2726                 5.3212

                     43                     44                     45
                      A                      A                      A
 Frequencies --   1003.3469              1005.1439              1031.5308
 Red. masses --      2.0021                 1.5569                 1.8370
 Frc consts  --      1.1875                 0.9268                 1.1517
 IR Inten    --     16.5742                 7.1432                 3.9385

                     46                     47                     48
                      A                      A                      A
 Frequencies --   1057.8401              1065.4659              1072.3883
 Red. masses --      1.7475                 1.3943                 1.5583
 Frc consts  --      1.1521                 0.9326                 1.0558
 IR Inten    --     13.1371                 1.0627                 1.8931

                     49                     50                     51
                      A                      A                      A
 Frequencies --   1081.6941              1097.7675              1137.0729
 Red. masses --      2.4184                 2.3863                 3.9450
 Frc consts  --      1.6672                 1.6943                 3.0052
 IR Inten    --      5.2383                 1.1525               100.2740

                     52                     53                     54
                      A                      A                      A
 Frequencies --   1165.2067              1176.0715              1192.7915
 Red. masses --      2.6499                 2.9719                 2.1621
 Frc consts  --      2.1198                 2.4219                 1.8124
 IR Inten    --     34.1641                30.6246                24.1163

                     55                     56                     57
                      A                      A                      A
 Frequencies --   1210.9195              1241.4496              1246.3408
 Red. masses --      1.3535                 1.3651                 2.0048
 Frc consts  --      1.1693                 1.2395                 1.8348
 IR Inten    --      3.8861                40.7175                45.3636

                     58                     59                     60
                      A                      A                      A
 Frequencies --   1256.9112              1264.7091              1280.6128
 Red. masses --      1.3929                 2.5928                 2.6174
 Frc consts  --      1.2965                 2.4434                 2.5291
 IR Inten    --     21.8023                17.1130               104.0701

                     61                     62                     63
                      A                      A                      A
 Frequencies --   1294.4556              1307.8392              1331.9244
 Red. masses --      1.4873                 1.2070                 1.3125
 Frc consts  --      1.4683                 1.2163                 1.3718
 IR Inten    --     31.9854                 2.7483                12.5237

                     64                     65                     66
                      A                      A                      A
 Frequencies --   1337.1833              1344.6825              1362.8513
 Red. masses --      1.5105                 1.2250                 1.2776
 Frc consts  --      1.5913                 1.3051                 1.3981
 IR Inten    --     60.6645                 8.4763                 6.4803

                     67                     68                     69
                      A                      A                      A
 Frequencies --   1393.3348              1404.3528              1418.8253
 Red. masses --      1.3998                 1.3210                 1.4417
 Frc consts  --      1.6011                 1.5349                 1.7100
 IR Inten    --      1.1077                22.9736                 9.0672

                     70                     71                     72
                      A                      A                      A
 Frequencies --   1427.3180              1428.5889              1429.7696
 Red. masses --      1.4192                 1.2524                 1.2460
 Frc consts  --      1.7035                 1.5060                 1.5007
 IR Inten    --     24.8520                 4.6608                 8.5381

                     73                     74                     75
                      A                      A                      A
 Frequencies --   1440.4097              1447.2071              1456.1119
 Red. masses --      1.9486                 1.5698                 1.2893
 Frc consts  --      2.3820                 1.9371                 1.6106
 IR Inten    --    131.0901                20.4675                48.5416

                     76                     77                     78
                      A                      A                      A
 Frequencies --   1477.8945              1488.0307              1508.0926
 Red. masses --      1.1756                 1.3851                 1.0909
 Frc consts  --      1.5129                 1.8070                 1.4618
 IR Inten    --     13.9385                20.6529                 5.0131

                     79                     80                     81
                      A                      A                      A
 Frequencies --   1509.9303              1515.4444              1520.9501
 Red. masses --      1.0516                 1.0464                 1.1003
 Frc consts  --      1.4126                 1.4158                 1.4996
 IR Inten    --      0.4502                 0.2783                 2.2701

                     82                     83                     84
                      A                      A                      A
 Frequencies --   1521.7298              1521.9020              1531.3237
 Red. masses --      1.0488                 1.0852                 1.1283
 Frc consts  --      1.4309                 1.4809                 1.5589
 IR Inten    --      1.2479                 0.6273                 1.7404

                     85                     86                     87
                      A                      A                      A
 Frequencies --   1536.8807              1537.1975              1539.2358
 Red. masses --      1.1021                 1.1042                 1.0601
 Frc consts  --      1.5338                 1.5373                 1.4798
 IR Inten    --      4.6353                 4.0629                 1.8191

                     88                     89                     90
                      A                      A                      A
 Frequencies --   1549.2625              1552.9050              1755.2059
 Red. masses --      1.1909                 1.0606                 6.5696
 Frc consts  --      1.6842                 1.5069                11.9246
 IR Inten    --     73.4444                 7.5514               338.2365

                     91                     92                     93
                      A                      A                      A
 Frequencies --   2929.1436              2970.5828              2980.8599
 Red. masses --      1.0809                 1.0720                 1.0722
 Frc consts  --      5.4643                 5.5735                 5.6133
 IR Inten    --     48.3151                49.7691                45.9131

                     94                     95                     96
                      A                      A                      A
 Frequencies --   2986.5607              3038.2602              3044.1475
 Red. masses --      1.0693                 1.0623                 1.0614
 Frc consts  --      5.6194                 5.7774                 5.7953
 IR Inten    --     82.8121                29.8110                28.6682

                     97                     98                     99
                      A                      A                      A
 Frequencies --   3049.3759              3056.5350              3062.8099
 Red. masses --      1.0365                 1.0366                 1.0560
 Frc consts  --      5.6786                 5.7059                 5.8364
 IR Inten    --     20.3121                19.2307                 8.0677

                    100                    101                    102
                      A                      A                      A
 Frequencies --   3067.3230              3079.1827              3087.8038
 Red. masses --      1.0458                 1.0975                 1.1003
 Frc consts  --      5.7971                 6.1307                 6.1808
 IR Inten    --     31.0597                 9.2639                63.6281

                    103                    104                    105
                      A                      A                      A
 Frequencies --   3093.5735              3095.0489              3106.2909
 Red. masses --      1.0944                 1.0930                 1.0933
 Frc consts  --      6.1712                 6.1691                 6.2153
 IR Inten    --     46.6218                43.5300                53.5976

                    106                    107                    108
                      A                      A                      A
 Frequencies --   3114.8479              3116.8066              3124.2316
 Red. masses --      1.0994                 1.1015                 1.1020
 Frc consts  --      6.2848                 6.3047                 6.3374
 IR Inten    --     17.9702                13.5504                29.2515

                    109                    110                    111
                      A                      A                      A
 Frequencies --   3128.0346              3138.6384              3140.0500
 Red. masses --      1.1026                 1.1019                 1.1008
 Frc consts  --      6.3561                 6.3954                 6.3949
 IR Inten    --     12.7610                34.1799                33.5269

                    112                    113                    114
                      A                      A                      A
 Frequencies --   3157.6500              3476.3311              3571.3872
 Red. masses --      1.0994                 1.0727                 1.0752
 Frc consts  --      6.4586                 7.6382                 8.0801
 IR Inten    --     26.6708                16.1932                15.3154

 - Thermochemistry -
 -------------------
 Temperature   298.150 Kelvin.  Pressure   1.00000 Atm.
 Atom     1 has atomic number  6 and mass  12.00000

 Molecular mass:   228.18378 amu.
 Principal axes and moments of inertia in atomic units:
                           1         2         3
     Eigenvalues --  1333.92074********************
           X            0.99999   0.00211   0.00498
           Y           -0.00252   0.99641   0.08459
           Z           -0.00478  -0.08461   0.99640
 This molecule is an asymmetric top.
 Rotational symmetry number  1.
 Warning -- assumption of classical behavior for rotation
           may cause significant error
 Rotational temperatures (Kelvin)      0.06493     0.00844     0.00826
 Rotational constants (GHZ):           1.35296     0.17578     0.17204
 Zero-point vibrational energy     953241.1 (Joules/Mol)
                                  227.83010 (Kcal/Mol)
 Warning -- explicit consideration of  28 degrees of freedom as
           vibrations may cause significant error
 Vibrational temperatures:     27.69    40.24    57.02   108.61   123.23
          (Kelvin)            150.59   212.70   237.92   293.09   320.19
                              345.71   352.46   383.17   395.08   420.64
                              504.20   515.70   533.56   535.02   550.98
                              591.39   652.37   662.25   684.60   722.18
                              741.05   812.40   866.50   952.83   966.57
                             1071.99  1178.19  1183.85  1249.58  1265.07
                             1276.93  1311.86  1341.63  1347.71  1353.10
                             1407.53  1425.07  1443.59  1446.18  1484.14
                             1522.00  1532.97  1542.93  1556.32  1579.44
                             1635.99  1676.47  1692.10  1716.16  1742.24
                             1786.17  1793.21  1808.41  1819.63  1842.52
                             1862.43  1881.69  1916.34  1923.91  1934.70
                             1960.84  2004.70  2020.55  2041.37  2053.59
                             2055.42  2057.12  2072.43  2082.21  2095.02
                             2126.36  2140.94  2169.81  2172.45  2180.39
                             2188.31  2189.43  2189.68  2203.23  2211.23
                             2211.68  2214.62  2229.04  2234.28  2525.35
                             4214.38  4274.01  4288.79  4296.99  4371.38
                             4379.85  4387.37  4397.67  4406.70  4413.19
                             4430.26  4442.66  4450.96  4453.09  4469.26
                             4481.57  4484.39  4495.07  4500.54  4515.80
                             4517.83  4543.15  5001.67  5138.43

 Zero-point correction=                           0.363070 (Hartree/Particle)
 Thermal correction to Energy=                    0.380575
 Thermal correction to Enthalpy=                  0.381519
 Thermal correction to Gibbs Free Energy=         0.316491
 Sum of electronic and zero-point Energies=           -731.391528
 Sum of electronic and thermal Energies=              -731.374023
 Sum of electronic and thermal Enthalpies=            -731.373079
 Sum of electronic and thermal Free Energies=         -731.438107

                     E (Thermal)             CV                S
                      KCal/Mol        Cal/Mol-Kelvin    Cal/Mol-Kelvin
 Total                  238.814             66.873            136.863
 Electronic               0.000              0.000              0.000
 Translational            0.889              2.981             42.177
 Rotational               0.889              2.981             33.329
 Vibrational            237.037             60.912             61.357
 Vibration     1          0.593              1.986              6.711
 Vibration     2          0.593              1.984              5.968
 Vibration     3          0.594              1.981              5.277
 Vibration     4          0.599              1.965              4.005
 Vibration     5          0.601              1.959              3.757
 Vibration     6          0.605              1.945              3.366
 Vibration     7          0.617              1.905              2.700
 Vibration     8          0.624              1.885              2.488
 Vibration     9          0.639              1.835              2.099
 Vibration    10          0.648              1.807              1.938
 Vibration    11          0.657              1.779              1.801
 Vibration    12          0.660              1.771              1.766
 Vibration    13          0.672              1.735              1.620
 Vibration    14          0.677              1.720              1.567
 Vibration    15          0.688              1.688              1.460
 Vibration    16          0.727              1.574              1.164
 Vibration    17          0.733              1.558              1.129
 Vibration    18          0.743              1.532              1.076
 Vibration    19          0.744              1.530              1.072
 Vibration    20          0.752              1.507              1.027
 Vibration    21          0.775              1.446              0.923
 Vibration    22          0.812              1.353              0.785
 Vibration    23          0.818              1.338              0.765
 Vibration    24          0.832              1.304              0.721
 Vibration    25          0.857              1.246              0.653
 Vibration    26          0.870              1.217              0.622
 Vibration    27          0.920              1.108              0.515
 Vibration    28          0.961              1.027              0.446

 Optimization completed.
    -- Stationary point found.
 Normal termination of Gaussian 16 at Thu Dec 10 23:32:47 2020.

 ----------------------------------------------------------------------
 # B3LYP/6-311++G(d,p) empiricaldispersion=gd3bj scf=xqc pop=npa geom=c
 heck
 ----------------------------------------------------------------------

 ---------------------------------------
 CID_115889421_JID_6438_Energie_neutraal
 ---------------------------------------
 Structure from the checkpoint file:  "JID_6438.chk"
 Charge =  0 Multiplicity = 1

 SCF Done:  E(RB3LYP) =  -731.971013409     A.U. after   14 cycles
 Normal termination of Gaussian 16 at Thu Dec 10 23:38:24 2020.

 ----------------------------------------------------------------------
 # B3LYP/6-311++G(d,p) empiricaldispersion=gd3bj scf=xqc pop=npa geom=c
 heck
 ----------------------------------------------------------------------

 -------------------------------------
 CID_115889421_JID_6438_Energie_kation
 -------------------------------------
 Structure from the checkpoint file:  "JID_6438.chk"
 Charge =  1 Multiplicity = 2

 SCF Done:  E(UB3LYP) =  -731.670098081     A.U. after   33 cycles
 SCF Done:  E(UB3LYP) =  -731.673106551     a.u. after   11 cycles
 Normal termination of Gaussian 16 at Fri Dec 11 01:37:32 2020.
 Gaussian 16:  ES64L-G16RevA.03 25-Dec-2016

 ----------------------------------------------------------------------
 # B3LYP/6-311++G(d,p) empiricaldispersion=gd3bj scf=xqc pop=npa geom=c
 heck
 ----------------------------------------------------------------------

 ------------------------------------
 CID_115889421_JID_6438_Energie_anion
 ------------------------------------
 Structure from the checkpoint file:  "JID_6438.chk"
 Charge = -1 Multiplicity = 2

                         Standard orientation:
 ---------------------------------------------------------------------
 Center     Atomic      Atomic             Coordinates (Angstroms)
 Number     Number       Type             X           Y           Z
 ---------------------------------------------------------------------
      1          6           0       -4.222248    1.483295    0.083686
      2          6           0       -3.986479    0.059504   -0.446631
      3          6           0       -5.322757   -0.700661   -0.410226
      4          6           0       -3.462437    0.093305   -1.893978
      5          7           0       -3.075809   -0.713472    0.426824
      6          6           0       -1.779912   -0.520834    0.826137
      7          8           0       -1.167136   -1.449786    1.354431
      8          6           0       -1.136680    0.851544    0.659260
      9          6           0        0.346084    0.841938    1.026458
     10          7           0        1.092324   -0.031687    0.123705
     11          6           0        2.535675   -0.041348    0.358393
     12          6           0        3.202773    1.256977   -0.118064
     13          6           0        4.730881    1.130193   -0.056948
     14          6           0        5.186622   -0.128244   -0.794073
     15          8           0        4.549904   -1.289998   -0.278885
     16          6           0        3.139956   -1.220418   -0.415246
     17          1           0       -5.043728    1.947892   -0.471974
     18          1           0       -3.345451    2.122656   -0.035006
     19          1           0       -4.494192    1.457258    1.143715
     20          1           0       -6.057951   -0.206065   -1.051764
     21          1           0       -5.199724   -1.728487   -0.772480
     22          1           0       -5.721939   -0.736556    0.609097
     23          1           0       -2.497157    0.602834   -1.962217
     24          1           0       -3.334705   -0.923999   -2.278268
     25          1           0       -4.168502    0.621638   -2.544602
     26          1           0       -3.343098   -1.680766    0.572385
     27          1           0       -1.248900    1.198387   -0.372580
     28          1           0       -1.670931    1.563295    1.299907
     29          1           0        0.724843    1.864332    0.925859
     30          1           0        0.459836    0.553502    2.085567
     31          1           0        0.734854   -0.971589    0.296141
     32          1           0        2.784356   -0.186684    1.427749
     33          1           0        2.878623    1.441815   -1.151602
     34          1           0        2.870752    2.112986    0.480515
     35          1           0        5.212022    2.014219   -0.494201
     36          1           0        5.058616    1.062687    0.988363
     37          1           0        4.969234   -0.030196   -1.872683
     38          1           0        6.261529   -0.296222   -0.677567
     39          1           0        2.749371   -2.171462   -0.037363
     40          1           0        2.855632   -1.128597   -1.477671
 ---------------------------------------------------------------------

 SCF Done:  E(UB3LYP) =  -731.960496300     A.U. after   33 cycles
 SCF Done:  E(UB3LYP) =  -731.960496300     a.u. after    1 cycles

 The electronic state is 2-A.
 Alpha  occ. eigenvalues --  -19.04493 -18.99711 -14.23920 -14.20449 -10.18327
 Alpha  occ. eigenvalues --  -10.13644 -10.13637 -10.13098 -10.11125 -10.10247
 Alpha  occ. eigenvalues --  -10.08855 -10.08670 -10.08214 -10.07291 -10.06950
 Alpha  occ. eigenvalues --  -10.06733  -0.95984  -0.94810  -0.83249  -0.82146
 Alpha  occ. eigenvalues --   -0.71260  -0.70471  -0.68948  -0.65139  -0.60525
 Alpha  occ. eigenvalues --   -0.60200  -0.57208  -0.55566  -0.53100  -0.50669
 Alpha  occ. eigenvalues --   -0.48219  -0.45774  -0.42022  -0.40929  -0.40213
 Alpha  occ. eigenvalues --   -0.39522  -0.39032  -0.38283  -0.36623  -0.36364
 Alpha  occ. eigenvalues --   -0.34970  -0.34212  -0.33518  -0.32645  -0.31905
 Alpha  occ. eigenvalues --   -0.30661  -0.30203  -0.29829  -0.29652  -0.28367
 Alpha  occ. eigenvalues --   -0.27946  -0.27722  -0.27080  -0.26795  -0.25739
 Alpha  occ. eigenvalues --   -0.25226  -0.24908  -0.24107  -0.22569  -0.17683
 Alpha  occ. eigenvalues --   -0.17197  -0.16272  -0.14266   0.03929
 Alpha virt. eigenvalues --    0.05192   0.06634   0.07243   0.07697   0.07791
 Alpha virt. eigenvalues --    0.07899   0.08964   0.09352   0.09592   0.09984
 Alpha virt. eigenvalues --    0.10280   0.10587   0.10683   0.11018   0.11682

  Beta  occ. eigenvalues --  -19.04491 -18.99708 -14.23909 -14.20443 -10.18326
  Beta  occ. eigenvalues --  -10.13641 -10.13628 -10.13096 -10.11124 -10.10239
  Beta  occ. eigenvalues --  -10.08842 -10.08649 -10.08203 -10.07243 -10.06915
  Beta  occ. eigenvalues --  -10.06688  -0.95980  -0.94803  -0.83234  -0.82134
  Beta  occ. eigenvalues --   -0.71241  -0.70442  -0.68929  -0.65115  -0.60451
  Beta  occ. eigenvalues --   -0.60129  -0.57182  -0.55540  -0.53071  -0.50619
  Beta  occ. eigenvalues --   -0.48197  -0.45729  -0.41997  -0.40908  -0.40196
  Beta  occ. eigenvalues --   -0.39481  -0.39014  -0.38265  -0.36606  -0.36325
  Beta  occ. eigenvalues --   -0.34948  -0.34173  -0.33499  -0.32628  -0.31879
  Beta  occ. eigenvalues --   -0.30636  -0.30166  -0.29796  -0.29609  -0.28328
  Beta  occ. eigenvalues --   -0.27915  -0.27690  -0.27054  -0.26774  -0.25721
  Beta  occ. eigenvalues --   -0.25192  -0.24876  -0.24074  -0.22558  -0.17671
  Beta  occ. eigenvalues --   -0.17187  -0.16260  -0.14243
  Beta virt. eigenvalues --    0.05656   0.06351   0.07041   0.07544   0.08082
  Beta virt. eigenvalues --    0.08163   0.08492   0.09427   0.09762   0.09891
  Beta virt. eigenvalues --    0.10190   0.10369   0.10829   0.10928   0.11322

 Mulliken charges and spin densities:
               1          2
     1  C    1.279173  -1.761090
     2  C   -2.065299   1.981798
     3  C    0.511215  -0.939273
     4  C    1.219492  -1.699056
     5  N   -0.019702  -0.026458
     6  C    0.099925  -0.193669
     7  O   -0.307323  -0.002271
     8  C   -0.047794   0.462097
     9  C    0.074333  -1.149580
    10  N    0.211020   0.031389
    11  C   -0.522840   0.026614
    12  C    0.120226  -0.096702
    13  C    0.003279  -0.392923
    14  C   -0.040797  -0.261147
    15  O   -0.130154   0.015278
    16  C   -0.266146  -0.133707
    17  H   -0.381306   0.550369
    18  H   -0.607205   0.777505
    19  H   -0.017644   0.184626
    20  H   -0.248971   0.405447
    21  H   -0.292846   0.436394
    22  H   -0.304606   0.468913
    23  H   -0.078285   0.212366
    24  H   -0.063838   0.217300
    25  H   -0.160649   0.320507
    26  H    0.214840   0.077665
    27  H    0.176893   0.030215
    28  H   -0.036483   0.203811
    29  H   -0.003848   0.165094
    30  H    0.032824   0.119825
    31  H    0.236424  -0.018336
    32  H    0.161167  -0.013110
    33  H    0.084550   0.093163
    34  H   -0.051877   0.191774
    35  H   -0.287959   0.445534
    36  H    0.150613  -0.009092
    37  H    0.089922   0.012891
    38  H   -0.021588   0.203244
    39  H    0.173822   0.009016
    40  H    0.117442   0.053577
 Sum of Mulliken charges =  -1.00000   1.00000

 Dipole moment (field-independent basis, Debye):
    X=              7.1401    Y=             -1.9199    Z=              1.0678  Tot=              7.4704
 Quadrupole moment (field-independent basis, Debye-Ang):
   XX=           -228.0482   YY=           -146.9644   ZZ=           -135.8684
   XY=              5.0576   XZ=             -5.9589   YZ=              4.1436

 Summary of Natural Population Analysis:

                                       Natural Population
                Natural  -----------------------------------------------
    Atom  No    Charge         Core      Valence    Rydberg      Total
 -----------------------------------------------------------------------
      C    1   -0.28977      0.99961     2.28288    0.00727     3.28977
      C    2    0.05503      0.99959     1.93298    0.01241     2.94497
      C    3   -0.28617      0.99962     2.27920    0.00735     3.28617
      C    4   -0.28762      0.99961     2.28134    0.00667     3.28762
      N    5   -0.32348      0.99964     2.81244    0.01140     3.82348
      C    6    0.35281      0.99968     1.62645    0.02106     2.64719
      O    7   -0.33821      0.99988     3.33278    0.00555     4.33821
      C    8   -0.23927      0.99958     2.23150    0.00819     3.23927
      C    9   -0.08350      0.99963     2.07258    0.01129     3.08350
      N   10   -0.34730      0.99972     2.83706    0.01052     3.84730
      C   11   -0.02010      0.99959     2.00958    0.01092     3.02010
      C   12   -0.19786      0.99961     2.18782    0.01043     3.19786
      C   13   -0.20530      0.99963     2.19718    0.00850     3.20530
      C   14   -0.01085      0.99958     1.99722    0.01405     3.01085
      O   15   -0.29975      0.99989     3.29109    0.00878     4.29975
      C   16   -0.00870      0.99955     1.99767    0.01147     3.00870
      H   17    0.10596      0.00000     0.39240    0.00164     0.39404
      H   18    0.10251      0.00000     0.39567    0.00182     0.39749
      H   19    0.10406      0.00000     0.39462    0.00132     0.39594
      H   20    0.10774      0.00000     0.39066    0.00160     0.39226
      H   21    0.09983      0.00000     0.39873    0.00143     0.40017
      H   22    0.10390      0.00000     0.39479    0.00131     0.39610
      H   23    0.10051      0.00000     0.39810    0.00138     0.39949
      H   24    0.10166      0.00000     0.39722    0.00112     0.39834
      H   25    0.10432      0.00000     0.39449    0.00119     0.39568
      H   26    0.19360      0.00000     0.30377    0.00263     0.30640
      H   27    0.11109      0.00000     0.38692    0.00198     0.38891
      H   28    0.11434      0.00000     0.38441    0.00124     0.38566
      H   29    0.09414      0.00000     0.40438    0.00148     0.40586
      H   30    0.08538      0.00000     0.41340    0.00122     0.41462
      H   31    0.18405      0.00000     0.31265    0.00331     0.31595
      H   32    0.07917      0.00000     0.41877    0.00205     0.42083
      H   33    0.09963      0.00000     0.39877    0.00160     0.40037
      H   34    0.10180      0.00000     0.39693    0.00127     0.39820
      H   35    0.10193      0.00000     0.39681    0.00126     0.39807
      H   36    0.09629      0.00000     0.40258    0.00112     0.40371
      H   37    0.07591      0.00000     0.42284    0.00125     0.42409
      H   38    0.09014      0.00000     0.40878    0.00109     0.40986
      H   39    0.09124      0.00000     0.40761    0.00115     0.40876
      H   40    0.08080      0.00000     0.41776    0.00143     0.41920
 =======================================================================
   * Total *    0.00000     15.99441    46.80283    0.20276    63.00000

 Normal termination of Gaussian 16 at Fri Dec 11 01:54:59 2020.
