 Gaussian 16, Revision A.03,

 -----------------------------------------------------------
 # opt freq B3LYP/6-31G(d) empiricaldispersion=gd3bj scf=xqc
 -----------------------------------------------------------

 ------------------------------
 CID_82595090_JID_1775_neutraal
 ------------------------------
 Symbolic Z-matrix:
 Charge =  0 Multiplicity = 1

 SCF Done:  E(RB3LYP) =  -462.124735046     A.U. after   14 cycles
 SCF Done:  E(RB3LYP) =  -462.127278336     A.U. after   10 cycles
 SCF Done:  E(RB3LYP) =  -462.127498342     A.U. after   10 cycles
 SCF Done:  E(RB3LYP) =  -462.127561263     A.U. after   10 cycles
 SCF Done:  E(RB3LYP) =  -462.127586552     A.U. after    9 cycles
 SCF Done:  E(RB3LYP) =  -462.127604017     A.U. after    9 cycles
 SCF Done:  E(RB3LYP) =  -462.127612130     A.U. after    9 cycles
 SCF Done:  E(RB3LYP) =  -462.127615949     A.U. after    8 cycles
 SCF Done:  E(RB3LYP) =  -462.127625101     A.U. after    9 cycles
 SCF Done:  E(RB3LYP) =  -462.127652656     A.U. after   11 cycles
 SCF Done:  E(RB3LYP) =  -462.128307145     A.U. after    9 cycles
 SCF Done:  E(RB3LYP) =  -462.128315931     A.U. after    9 cycles
 SCF Done:  E(RB3LYP) =  -462.128317202     A.U. after    8 cycles
 SCF Done:  E(RB3LYP) =  -462.128317875     A.U. after    8 cycles
 SCF Done:  E(RB3LYP) =  -462.128318225     A.U. after    7 cycles
 SCF Done:  E(RB3LYP) =  -462.128318333     A.U. after    7 cycles
 Optimization completed.
    -- Stationary point found.

 1\1\GINC-NODE103\FOpt\RB3LYP\6-31G(d)\C9H16N2\VSC10255\08-Dec-2020\0\\
 # opt freq B3LYP/6-31G(d) empiricaldispersion=gd3bj scf=xqc\\CID_82595
 090_JID_1775_neutraal\\0,1\C,0.8670672573,-0.0538437488,-0.068528258\C
 ,0.5859346199,0.9567986717,1.0014505264\C,0.0223946574,0.7225047254,2.
 2339539496\N,-0.0795878816,1.9174382304,2.9153011313\C,0.4419098025,2.
 9312406227,2.1270637605\C,0.8525423824,2.3629434506,0.9308463046\C,1.4
 478482823,3.0589346313,-0.2567960977\C,0.4434940732,4.3856870698,2.518
 1406832\C,-0.9376078128,5.0385549724,2.3086520425\N,1.0014956482,4.613

 Normal termination of Gaussian 16 at Tue Dec  8 21:18:57 2020.

 --------------------------------------------------------------------
 #N Geom=AllCheck Guess=TCheck SCRF=Check GenChk RB3LYP/6-31G(d) Freq
 --------------------------------------------------------------------

 Structure from the checkpoint file:  "JID_1775.chk"
 ------------------------------
 CID_82595090_JID_1775_neutraal
 ------------------------------
 Charge =  0 Multiplicity = 1

 SCF Done:  E(RB3LYP) =  -462.128318333     A.U. after    1 cycles

  Exact polarizability: 132.977  -3.324 114.716   1.614   1.905  71.657
 Approx polarizability: 178.023  -7.438 170.766   3.905   5.715 105.153

                      1                      2                      3
                      A                      A                      A
 Frequencies --     53.2703                86.2433                94.5971
 Red. masses --      2.8356                 1.0584                 2.9829
 Frc consts  --      0.0047                 0.0046                 0.0157
 IR Inten    --      1.3531                 0.2831                 1.6026

                      4                      5                      6
                      A                      A                      A
 Frequencies --    132.3269               147.0307               172.6897
 Red. masses --      1.0477                 2.4832                 1.2430
 Frc consts  --      0.0108                 0.0316                 0.0218
 IR Inten    --      0.0727                 5.1298                25.1345

                      7                      8                      9
                      A                      A                      A
 Frequencies --    195.7097               219.4853               236.5669
 Red. masses --      2.2025                 2.8550                 1.3034
 Frc consts  --      0.0497                 0.0810                 0.0430
 IR Inten    --      1.9004                 0.2311                30.7014

                     10                     11                     12
                      A                      A                      A
 Frequencies --    249.6544               260.9023               285.0584
 Red. masses --      1.9138                 1.3643                 3.1056
 Frc consts  --      0.0703                 0.0547                 0.1487
 IR Inten    --      3.6740                 2.4398                 2.3187

                     13                     14                     15
                      A                      A                      A
 Frequencies --    303.5174               339.4726               413.9538
 Red. masses --      2.1160                 2.6329                 3.7892
 Frc consts  --      0.1148                 0.1788                 0.3826
 IR Inten    --      2.7455                 4.6922                 1.0970

                     16                     17                     18
                      A                      A                      A
 Frequencies --    454.0908               526.4012               604.5876
 Red. masses --      2.7172                 3.0637                 4.2362
 Frc consts  --      0.3301                 0.5002                 0.9123
 IR Inten    --      2.6284                 1.6458                 1.0523

                     19                     20                     21
                      A                      A                      A
 Frequencies --    612.7353               631.7718               706.6703
 Red. masses --      3.0731                 2.8846                 2.7101
 Frc consts  --      0.6798                 0.6783                 0.7974
 IR Inten    --      0.3932                 4.2628                 3.3609

                     22                     23                     24
                      A                      A                      A
 Frequencies --    715.5897               718.5724               838.6999
 Red. masses --      1.7934                 3.3083                 3.2343
 Frc consts  --      0.5411                 1.0065                 1.3404
 IR Inten    --     14.7777                 1.4479                 7.7523

                     25                     26                     27
                      A                      A                      A
 Frequencies --    885.3016               948.5365              1001.9374
 Red. masses --      2.1984                 1.2452                 1.6255
 Frc consts  --      1.0152                 0.6601                 0.9614
 IR Inten    --     74.9533                62.2387                 4.6762

                     28                     29                     30
                      A                      A                      A
 Frequencies --   1020.6584              1052.0720              1062.8620
 Red. masses --      1.4573                 1.9353                 1.4146
 Frc consts  --      0.8945                 1.2621                 0.9416
 IR Inten    --      6.7529                 2.6656                 0.1564

                     31                     32                     33
                      A                      A                      A
 Frequencies --   1073.9051              1087.6167              1097.2911
 Red. masses --      2.0182                 1.5328                 1.6532
 Frc consts  --      1.3714                 1.0683                 1.1728
 IR Inten    --     33.3587                 1.1724                 3.3203

                     34                     35                     36
                      A                      A                      A
 Frequencies --   1120.1277              1160.7111              1188.0232
 Red. masses --      1.8761                 1.2946                 3.3243
 Frc consts  --      1.3869                 1.0276                 2.7644
 IR Inten    --     19.6500                 2.7143                 7.5043

                     37                     38                     39
                      A                      A                      A
 Frequencies --   1216.3259              1255.9476              1269.2467
 Red. masses --      1.7207                 1.9429                 1.6961
 Frc consts  --      1.4999                 1.8057                 1.6099
 IR Inten    --     14.2709                10.1370                 7.3832

                     40                     41                     42
                      A                      A                      A
 Frequencies --   1348.7150              1400.1901              1420.2588
 Red. masses --      1.3858                 3.8424                 2.4209
 Frc consts  --      1.4852                 4.4384                 2.8771
 IR Inten    --     15.7413                14.7175                53.1352

                     43                     44                     45
                      A                      A                      A
 Frequencies --   1428.2486              1433.9247              1446.2925
 Red. masses --      1.2637                 1.5303                 1.3012
 Frc consts  --      1.5188                 1.8539                 1.6037
 IR Inten    --      3.9738                13.3804                 0.8341

                     46                     47                     48
                      A                      A                      A
 Frequencies --   1458.3560              1467.6531              1491.7546
 Red. masses --      1.4544                 2.5226                 1.5733
 Frc consts  --      1.8225                 3.2014                 2.0628
 IR Inten    --      7.2828                23.0163                 3.2897

                     49                     50                     51
                      A                      A                      A
 Frequencies --   1508.8966              1512.3747              1516.5775
 Red. masses --      1.0470                 1.0455                 1.0640
 Frc consts  --      1.4045                 1.4089                 1.4419
 IR Inten    --      0.5275                 3.7800                10.1892

                     52                     53                     54
                      A                      A                      A
 Frequencies --   1519.3821              1521.4299              1528.2831
 Red. masses --      1.0667                 1.0862                 1.0645
 Frc consts  --      1.4509                 1.4814                 1.4648
 IR Inten    --      3.4081                11.9784                 5.3718

                     55                     56                     57
                      A                      A                      A
 Frequencies --   1537.5101              1555.8853              1586.2144
 Red. masses --      1.1650                 1.1076                 4.0411
 Frc consts  --      1.6226                 1.5798                 5.9906
 IR Inten    --      3.7444                14.3499                 6.6323

                     58                     59                     60
                      A                      A                      A
 Frequencies --   1646.4426              1704.3089              3025.8894
 Red. masses --      5.4616                 1.0853                 1.0403
 Frc consts  --      8.7230                 1.8573                 5.6118
 IR Inten    --      3.5651                18.2629                17.6371

                     61                     62                     63
                      A                      A                      A
 Frequencies --   3027.4734              3036.4401              3052.2137
 Red. masses --      1.0395                 1.0357                 1.0359
 Frc consts  --      5.6138                 5.6261                 5.6859
 IR Inten    --     95.9924                24.7982                64.5281

                     64                     65                     66
                      A                      A                      A
 Frequencies --   3069.0732              3071.5751              3073.9711
 Red. masses --      1.1006                 1.0971                 1.0863
 Frc consts  --      6.1081                 6.0984                 6.0478
 IR Inten    --     40.0292                14.8542                12.0303

                     67                     68                     69
                      A                      A                      A
 Frequencies --   3103.5358              3110.4778              3112.4474
 Red. masses --      1.1011                 1.0989                 1.1025
 Frc consts  --      6.2488                 6.2639                 6.2927
 IR Inten    --     45.5721                47.1111                21.9670

                     70                     71                     72
                      A                      A                      A
 Frequencies --   3113.0261              3120.0632              3149.8400
 Red. masses --      1.0978                 1.1011                 1.1023
 Frc consts  --      6.2683                 6.3156                 6.4436
 IR Inten    --     30.6230                27.4158                15.0656

                     73                     74                     75
                      A                      A                      A
 Frequencies --   3255.8115              3462.3865              3543.1537
 Red. masses --      1.0962                 1.0499                 1.0916
 Frc consts  --      6.8464                 7.4157                 8.0744
 IR Inten    --      4.4707                 4.8484                 0.7484

 - Thermochemistry -
 -------------------
 Temperature   298.150 Kelvin.  Pressure   1.00000 Atm.
 Atom     1 has atomic number  6 and mass  12.00000

 Molecular mass:   152.13135 amu.
 Principal axes and moments of inertia in atomic units:
                           1         2         3
     Eigenvalues --  1088.661932115.202832820.56542
           X            0.99986  -0.01438  -0.00831
           Y            0.01437   0.99990  -0.00166
           Z            0.00833   0.00154   0.99996
 This molecule is an asymmetric top.
 Rotational symmetry number  1.
 Warning -- assumption of classical behavior for rotation
           may cause significant error
 Rotational temperatures (Kelvin)      0.07956     0.04095     0.03071
 Rotational constants (GHZ):           1.65776     0.85322     0.63985
 Zero-point vibrational energy     632826.0 (Joules/Mol)
                                  151.24903 (Kcal/Mol)
 Warning -- explicit consideration of  19 degrees of freedom as
           vibrations may cause significant error
 Vibrational temperatures:     76.64   124.08   136.10   190.39   211.54
          (Kelvin)            248.46   281.58   315.79   340.37   359.20
                              375.38   410.14   436.69   488.43   595.59
                              653.34   757.37   869.87   881.59   908.98
                             1016.74  1029.57  1033.87  1206.70  1273.75
                             1364.73  1441.56  1468.50  1513.70  1529.22
                             1545.11  1564.84  1578.76  1611.61  1670.00
                             1709.30  1750.02  1807.03  1826.16  1940.50
                             2014.56  2043.44  2054.93  2063.10  2080.89
                             2098.25  2111.63  2146.30  2170.97  2175.97
                             2182.02  2186.05  2189.00  2198.86  2212.13
                             2238.57  2282.21  2368.86  2452.12  4353.58
                             4355.86  4368.76  4391.45  4415.71  4419.31
                             4422.76  4465.30  4475.28  4478.12  4478.95
                             4489.08  4531.92  4684.39  4981.60  5097.81

 Zero-point correction=                           0.241031 (Hartree/Particle)
 Thermal correction to Energy=                    0.254037
 Thermal correction to Enthalpy=                  0.254981
 Thermal correction to Gibbs Free Energy=         0.202425
 Sum of electronic and zero-point Energies=           -461.887288
 Sum of electronic and thermal Energies=              -461.874282
 Sum of electronic and thermal Enthalpies=            -461.873338
 Sum of electronic and thermal Free Energies=         -461.925893

                     E (Thermal)             CV                S
                      KCal/Mol        Cal/Mol-Kelvin    Cal/Mol-Kelvin
 Total                  159.410             47.426            110.613
 Electronic               0.000              0.000              0.000
 Translational            0.889              2.981             40.969
 Rotational               0.889              2.981             30.253
 Vibrational            157.633             41.464             39.392
 Vibration     1          0.596              1.976              4.692
 Vibration     2          0.601              1.959              3.744
 Vibration     3          0.603              1.953              3.563
 Vibration     4          0.612              1.921              2.912
 Vibration     5          0.617              1.906              2.710
 Vibration     6          0.626              1.876              2.406
 Vibration     7          0.636              1.846              2.173
 Vibration     8          0.647              1.811              1.963
 Vibration     9          0.655              1.785              1.829
 Vibration    10          0.662              1.763              1.733
 Vibration    11          0.669              1.744              1.656
 Vibration    12          0.683              1.701              1.503
 Vibration    13          0.695              1.667              1.397
 Vibration    14          0.719              1.597              1.215
 Vibration    15          0.778              1.440              0.913
 Vibration    16          0.813              1.352              0.783
 Vibration    17          0.881              1.192              0.595
 Vibration    18          0.963              1.022              0.442
 Vibration    19          0.972              1.005              0.428

                           ! Non-Optimized Parameters !

 1\1\GINC-NODE103\Freq\RB3LYP\6-31G(d)\C9H16N2\VSC10255\08-Dec-2020\0\\
 #N Geom=AllCheck Guess=TCheck SCRF=Check GenChk RB3LYP/6-31G(d) Freq\\
 CID_82595090_JID_1775_neutraal\\0,1\C,0.8670672573,-0.0538437488,-0.06
 8528258\C,0.5859346199,0.9567986717,1.0014505264\C,0.0223946574,0.7225
 047254,2.2339539496\N,-0.0795878816,1.9174382304,2.9153011313\C,0.4419
 098025,2.9312406227,2.1270637605\C,0.8525423824,2.3629434506,0.9308463
 046\C,1.4478482823,3.0589346313,-0.2567960977\C,0.4434940732,4.3856870
 698,2.5181406832\C,-0.9376078128,5.0385549724,2.3086520425\N,1.0014956

 Normal termination of Gaussian 16 at Tue Dec  8 21:27:52 2020.

 ----------------------------------------------------------------------
 # B3LYP/6-311++G(d,p) empiricaldispersion=gd3bj scf=xqc pop=npa geom=c
 heck
 ----------------------------------------------------------------------

 --------------------------------------
 CID_82595090_JID_1775_Energie_neutraal
 --------------------------------------
 Structure from the checkpoint file:  "JID_1775.chk"
 Charge =  0 Multiplicity = 1

 SCF Done:  E(RB3LYP) =  -462.260584232     A.U. after   14 cycles
 Normal termination of Gaussian 16 at Tue Dec  8 21:30:57 2020.

 ----------------------------------------------------------------------
 # B3LYP/6-311++G(d,p) empiricaldispersion=gd3bj scf=xqc pop=npa geom=c
 heck
 ----------------------------------------------------------------------

 ------------------------------------
 CID_82595090_JID_1775_Energie_kation
 ------------------------------------
 Structure from the checkpoint file:  "JID_1775.chk"
 Charge =  1 Multiplicity = 2

 SCF Done:  E(UB3LYP) =  -461.995577057     A.U. after   22 cycles
 Normal termination of Gaussian 16 at Tue Dec  8 21:38:53 2020.
 Gaussian 16:  ES64L-G16RevA.03 25-Dec-2016

 -----------------------------------
 CID_82595090_JID_1775_Energie_anion
 -----------------------------------
 Structure from the checkpoint file:  "JID_1775.chk"
 Charge = -1 Multiplicity = 2

                         Standard orientation:
 ---------------------------------------------------------------------
 Center     Atomic      Atomic             Coordinates (Angstroms)
 Number     Number       Type             X           Y           Z
 ---------------------------------------------------------------------
      1          6           0        3.418020    0.112318    0.054536
      2          6           0        1.930995    0.293801    0.021216
      3          6           0        1.239160    1.478233    0.121323
      4          7           0       -0.113376    1.214378    0.061919
      5          6           0       -0.299466   -0.149537   -0.099876
      6          6           0        0.952980   -0.744143   -0.118306
      7          6           0        1.271372   -2.205088   -0.234722
      8          6           0       -1.649434   -0.815947   -0.142789
      9          6           0       -2.254950   -0.978717    1.265906
     10          7           0       -2.573054   -0.176249   -1.108453
     11          6           0       -1.129345    2.246576    0.021934
     12          1           0        3.736834   -0.511258    0.900814
     13          1           0        3.932527    1.075129    0.143075
     14          1           0        3.789625   -0.377617   -0.855540
     15          1           0        1.595356    2.494688    0.219020
     16          1           0        1.657868   -2.618934    0.707217
     17          1           0        0.394719   -2.799228   -0.512590
     18          1           0        2.040521   -2.384719   -0.996774
     19          1           0       -1.463589   -1.820221   -0.537225
     20          1           0       -2.460986   -0.000992    1.718996
     21          1           0       -3.198286   -1.537515    1.221860
     22          1           0       -1.565842   -1.511186    1.930120
     23          1           0       -3.290525   -0.853967   -1.362966
     24          1           0       -3.077321    0.578057   -0.644603
     25          1           0       -1.590141    2.310930   -0.968704
     26          1           0       -1.910993    2.061077    0.767375
     27          1           0       -0.660738    3.203876    0.260336
 ---------------------------------------------------------------------

 SCF Done:  E(UB3LYP) =  -462.246000693     A.U. after   32 cycles

 The electronic state is 2-A.
 Alpha  occ. eigenvalues --  -14.24445 -14.18240 -10.09820 -10.09672 -10.07698
 Alpha  occ. eigenvalues --  -10.07312 -10.06668 -10.06100 -10.04980 -10.04962
 Alpha  occ. eigenvalues --  -10.04721  -0.87027  -0.77680  -0.70755  -0.65363
 Alpha  occ. eigenvalues --   -0.62535  -0.61947  -0.57783  -0.53977  -0.51133
 Alpha  occ. eigenvalues --   -0.44074  -0.42524  -0.39503  -0.37402  -0.35583
 Alpha  occ. eigenvalues --   -0.33611  -0.32875  -0.32052  -0.31658  -0.30290
 Alpha  occ. eigenvalues --   -0.29982  -0.29540  -0.28995  -0.28895  -0.26845
 Alpha  occ. eigenvalues --   -0.25580  -0.24758  -0.23567  -0.22691  -0.13834
 Alpha  occ. eigenvalues --   -0.11376  -0.09476   0.04609
 Alpha virt. eigenvalues --    0.06772   0.06960   0.08671   0.08887   0.09080
 Alpha virt. eigenvalues --    0.10403   0.11099   0.11337   0.11637   0.11920
 Alpha virt. eigenvalues --    0.12932   0.13702   0.13760   0.14378   0.14630

  Beta  occ. eigenvalues --  -14.24443 -14.18196 -10.09806 -10.09620 -10.07697
  Beta  occ. eigenvalues --  -10.07303 -10.06655 -10.06081 -10.04961 -10.04935
  Beta  occ. eigenvalues --  -10.04719  -0.87017  -0.77603  -0.70737  -0.65322
  Beta  occ. eigenvalues --   -0.62490  -0.61893  -0.57743  -0.53921  -0.51052
  Beta  occ. eigenvalues --   -0.44049  -0.42483  -0.39454  -0.37350  -0.35544
  Beta  occ. eigenvalues --   -0.33555  -0.32840  -0.32029  -0.31609  -0.30248
  Beta  occ. eigenvalues --   -0.29954  -0.29512  -0.28959  -0.28872  -0.26795
  Beta  occ. eigenvalues --   -0.25556  -0.24731  -0.23518  -0.22661  -0.13783
  Beta  occ. eigenvalues --   -0.11363  -0.09468
  Beta virt. eigenvalues --    0.06659   0.07695   0.07869   0.09272   0.09343
  Beta virt. eigenvalues --    0.09805   0.10627   0.11411   0.11839   0.12107
  Beta virt. eigenvalues --    0.12429   0.13170   0.13945   0.14100   0.14753

 Mulliken charges and spin densities:
               1          2
     1  C    1.420555  -1.769140
     2  C   -0.112533   0.376102
     3  C   -0.770157   0.232898
     4  N   -0.023596   0.196364
     5  C    1.475907  -1.253653
     6  C   -0.283027   0.697123
     7  C    0.849311  -1.737700
     8  C   -3.529933   3.013289
     9  C    1.488277  -2.125249
    10  N   -0.293904  -0.067677
    11  C    1.211574  -1.566761
    12  H    0.052458   0.093310
    13  H   -0.030390   0.160856
    14  H    0.063126   0.078698
    15  H   -0.254520   0.414681
    16  H   -0.076472   0.226509
    17  H   -0.132580   0.236734
    18  H    0.067765   0.057382
    19  H   -0.067939   0.289806
    20  H   -0.056151   0.191393
    21  H   -0.759757   0.926072
    22  H   -0.003796   0.131477
    23  H   -0.261639   0.509909
    24  H    0.080988   0.134954
    25  H   -0.158171   0.351934
    26  H   -0.591871   0.764241
    27  H   -0.303523   0.436449
 Sum of Mulliken charges =  -1.00000   1.00000

 Dipole moment (field-independent basis, Debye):
    X=              5.9777    Y=             -0.4302    Z=             -0.2520  Tot=              5.9984
 Quadrupole moment (field-independent basis, Debye-Ang):
   XX=           -131.6020   YY=           -114.5436   ZZ=           -100.8943
   XY=             -1.9810   XZ=              0.3963   YZ=             -0.4436

 Summary of Natural Population Analysis:

                                       Natural Population
                Natural  -----------------------------------------------
    Atom  No    Charge         Core      Valence    Rydberg      Total
 -----------------------------------------------------------------------
      C    1   -0.28908      0.99964     2.28489    0.00456     3.28908
      C    2   -0.05662      0.99948     2.04816    0.00898     3.05662
      C    3   -0.01790      0.99949     2.00676    0.01165     3.01790
      N    4   -0.20076      0.99962     2.69170    0.00944     3.70076
      C    5    0.08387      0.99943     1.90235    0.01435     2.91613
      C    6   -0.05392      0.99943     2.04597    0.00851     3.05392
      C    7   -0.28905      0.99964     2.28496    0.00445     3.28905
      C    8   -0.02995      0.99957     2.01761    0.01276     3.02995
      C    9   -0.28642      0.99964     2.28125    0.00553     3.28642
      N   10   -0.41904      0.99977     2.90872    0.01055     3.91904
      C   11   -0.17420      0.99964     2.16624    0.00833     3.17420
      H   12    0.09802      0.00000     0.40041    0.00156     0.40198
      H   13    0.09973      0.00000     0.39938    0.00089     0.40027
      H   14    0.09764      0.00000     0.40081    0.00155     0.40236
      H   15    0.09548      0.00000     0.40363    0.00089     0.40452
      H   16    0.09849      0.00000     0.40006    0.00145     0.40151
      H   17    0.10191      0.00000     0.39686    0.00123     0.39809
      H   18    0.09811      0.00000     0.40053    0.00136     0.40189
      H   19    0.09775      0.00000     0.39994    0.00231     0.40225
      H   20    0.09613      0.00000     0.40221    0.00166     0.40387
      H   21    0.09943      0.00000     0.39814    0.00243     0.40057
      H   22    0.10070      0.00000     0.39815    0.00115     0.39930
      H   23    0.17714      0.00000     0.31997    0.00289     0.32286
      H   24    0.17249      0.00000     0.32458    0.00293     0.32751
      H   25    0.10211      0.00000     0.39642    0.00147     0.39789
      H   26    0.09791      0.00000     0.40010    0.00199     0.40209
      H   27    0.10003      0.00000     0.39847    0.00150     0.39997
 =======================================================================
   * Total *    0.00000     10.99535    30.87826    0.12640    42.00000

 Normal termination of Gaussian 16 at Tue Dec  8 21:48:39 2020.
