 Gaussian 16, Revision A.03,

 -----------------------------------------------------------
 # opt freq B3LYP/6-31G(d) empiricaldispersion=gd3bj scf=xqc
 -----------------------------------------------------------

 -------------------------------
 CID_135690470_JID_9340_neutraal
 -------------------------------
 Symbolic Z-matrix:
 Charge =  0 Multiplicity = 1

 SCF Done:  E(RB3LYP) =  -1521.91408902     A.U. after   15 cycles
 SCF Done:  E(RB3LYP) =  -1521.90553795     A.U. after   15 cycles
 SCF Done:  E(RB3LYP) =  -1521.92091749     A.U. after   13 cycles
 SCF Done:  E(RB3LYP) =  -1521.92124341     A.U. after   15 cycles
 SCF Done:  E(RB3LYP) =  -1521.92227478     A.U. after   13 cycles
 SCF Done:  E(RB3LYP) =  -1521.92275139     A.U. after   13 cycles
 SCF Done:  E(RB3LYP) =  -1521.92283273     A.U. after   13 cycles
 SCF Done:  E(RB3LYP) =  -1521.92296590     A.U. after   11 cycles
 SCF Done:  E(RB3LYP) =  -1521.92297921     A.U. after   10 cycles
 SCF Done:  E(RB3LYP) =  -1521.92298381     A.U. after   10 cycles
 SCF Done:  E(RB3LYP) =  -1521.92298423     A.U. after    8 cycles
 SCF Done:  E(RB3LYP) =  -1521.92298433     A.U. after    7 cycles
 Optimization completed.
    -- Stationary point found.
 Normal termination of Gaussian 16 at Sun Dec 13 16:08:56 2020.

 --------------------------------------------------------------------
 #N Geom=AllCheck Guess=TCheck SCRF=Check GenChk RB3LYP/6-31G(d) Freq
 --------------------------------------------------------------------

 Structure from the checkpoint file:  "JID_9340.chk"
 -------------------------------
 CID_135690470_JID_9340_neutraal
 -------------------------------
 Charge =  0 Multiplicity = 1

 SCF Done:  E(RB3LYP) =  -1521.92298433     A.U. after    1 cycles

  Exact polarizability: 254.695  -0.899 202.416  22.229   5.430 111.759
 Approx polarizability: 357.546   1.453 385.457  42.210  25.006 194.700

                      1                      2                      3
                      A                      A                      A
 Frequencies --     25.8343                33.0020                56.8062
 Red. masses --      6.7529                 5.5573                 7.4783
 Frc consts  --      0.0027                 0.0036                 0.0142
 IR Inten    --      1.0797                 0.1268                 0.6836

                      4                      5                      6
                      A                      A                      A
 Frequencies --     67.6476                74.8641               123.4912
 Red. masses --      6.1221                 4.1565                 6.7785
 Frc consts  --      0.0165                 0.0137                 0.0609
 IR Inten    --      1.5676                 0.1243                 2.1595

                      7                      8                      9
                      A                      A                      A
 Frequencies --    150.7844               172.4274               202.7175
 Red. masses --      6.6951                 6.5107                 6.3722
 Frc consts  --      0.0897                 0.1140                 0.1543
 IR Inten    --      1.8036                 2.5154                 3.7397

                     10                     11                     12
                      A                      A                      A
 Frequencies --    221.7624               257.2340               288.3574
 Red. masses --      9.8075                 7.5406                 3.4997
 Frc consts  --      0.2842                 0.2940                 0.1715
 IR Inten    --      2.7705                 6.2841                 1.3104

                     13                     14                     15
                      A                      A                      A
 Frequencies --    328.4554               340.7617               356.2408
 Red. masses --      2.2718                 4.4101                 7.1908
 Frc consts  --      0.1444                 0.3017                 0.5377
 IR Inten    --      0.7835                 1.1297                 0.8595

                     16                     17                     18
                      A                      A                      A
 Frequencies --    421.8820               448.4134               473.8229
 Red. masses --      3.0483                 9.6670                 4.8836
 Frc consts  --      0.3197                 1.1452                 0.6460
 IR Inten    --      0.0301                 5.9179                 1.1108

                     19                     20                     21
                      A                      A                      A
 Frequencies --    477.4857               513.8481               576.0036
 Red. masses --      3.4315                 6.4812                 5.4426
 Frc consts  --      0.4609                 1.0083                 1.0639
 IR Inten    --      7.0443                 0.4130                 5.5868

                     22                     23                     24
                      A                      A                      A
 Frequencies --    581.1683               607.7506               633.1769
 Red. masses --      6.1670                 5.2397                 6.2436
 Frc consts  --      1.2272                 1.1403                 1.4748
 IR Inten    --      1.3020                23.7216                 0.7548

                     25                     26                     27
                      A                      A                      A
 Frequencies --    640.3948               670.0218               691.2359
 Red. masses --      7.1689                 2.8724                 6.4036
 Frc consts  --      1.7322                 0.7598                 1.8027
 IR Inten    --      5.6796                 6.2021                 2.2868

                     28                     29                     30
                      A                      A                      A
 Frequencies --    700.9168               717.1284               727.7872
 Red. masses --      5.4497                 1.9218                 2.0627
 Frc consts  --      1.5774                 0.5823                 0.6437
 IR Inten    --     10.7898                70.1799                 9.8622

                     31                     32                     33
                      A                      A                      A
 Frequencies --    742.5147               757.6676               771.3515
 Red. masses --      5.4180                 2.4240                 1.8736
 Frc consts  --      1.7600                 0.8199                 0.6568
 IR Inten    --      9.3995                 6.3880                58.8349

                     34                     35                     36
                      A                      A                      A
 Frequencies --    781.9963               798.9210               824.3744
 Red. masses --      1.7525                 3.5484                 4.3374
 Frc consts  --      0.6314                 1.3344                 1.7367
 IR Inten    --     43.6314                31.7768                 1.1071

                     37                     38                     39
                      A                      A                      A
 Frequencies --    842.5581               872.2598               876.1809
 Red. masses --      3.8683                 1.4112                 1.5131
 Frc consts  --      1.6180                 0.6326                 0.6844
 IR Inten    --      7.5989                 0.8469                 0.7400

                     40                     41                     42
                      A                      A                      A
 Frequencies --    906.7817               928.1069               958.1930
 Red. masses --      1.3109                 1.4823                 1.6896
 Frc consts  --      0.6351                 0.7523                 0.9140
 IR Inten    --      1.2162                 7.0683                11.0146

                     43                     44                     45
                      A                      A                      A
 Frequencies --    983.6632              1004.8359              1020.9866
 Red. masses --      1.3429                 1.2712                 5.7652
 Frc consts  --      0.7655                 0.7563                 3.5409
 IR Inten    --      0.9275                 1.8227                 1.9895

                     46                     47                     48
                      A                      A                      A
 Frequencies --   1030.8760              1060.8479              1069.9747
 Red. masses --      4.6781                 2.2245                 2.6169
 Frc consts  --      2.9291                 1.4750                 1.7652
 IR Inten    --      1.2664                 2.4517                37.1484

                     49                     50                     51
                      A                      A                      A
 Frequencies --   1102.8962              1114.6537              1131.6352
 Red. masses --      4.0472                 1.6037                 1.6010
 Frc consts  --      2.9005                 1.1739                 1.2079
 IR Inten    --     40.6333                 4.2455                 4.6184

                     52                     53                     54
                      A                      A                      A
 Frequencies --   1177.5948              1195.4529              1204.1071
 Red. masses --      1.2030                 1.1042                 1.1365
 Frc consts  --      0.9829                 0.9297                 0.9708
 IR Inten    --     27.1699                 0.4123                11.8956

                     55                     56                     57
                      A                      A                      A
 Frequencies --   1218.3484              1228.2278              1260.0561
 Red. masses --      1.1354                 2.7266                 2.0829
 Frc consts  --      0.9930                 2.4234                 1.9485
 IR Inten    --      0.3526                 0.4013                 0.2758

                     58                     59                     60
                      A                      A                      A
 Frequencies --   1279.9415              1296.5604              1305.2913
 Red. masses --      1.7025                 1.6833                 1.6709
 Frc consts  --      1.6433                 1.6672                 1.6773
 IR Inten    --      6.6871                 9.9706                 0.2587

                     61                     62                     63
                      A                      A                      A
 Frequencies --   1327.6710              1364.1951              1373.1447
 Red. masses --      2.2651                 3.8668                 1.3539
 Frc consts  --      2.3525                 4.2399                 1.5041
 IR Inten    --      4.2352                 4.0470                 1.6482

                     64                     65                     66
                      A                      A                      A
 Frequencies --   1448.3897              1472.6165              1487.8824
 Red. masses --      4.7305                 4.9879                 1.1452
 Frc consts  --      5.8469                 6.3730                 1.4937
 IR Inten    --     10.2722                28.7444                 6.3787

                     67                     68                     69
                      A                      A                      A
 Frequencies --   1492.0306              1508.4887              1522.1732
 Red. masses --      1.4610                 1.5303                 3.4926
 Frc consts  --      1.9163                 2.0516                 4.7679
 IR Inten    --      7.5611                14.0745                79.4658

                     70                     71                     72
                      A                      A                      A
 Frequencies --   1546.3249              1558.7106              1643.3470
 Red. masses --      2.1682                 5.1391                 5.4321
 Frc consts  --      3.0545                 7.3564                 8.6432
 IR Inten    --      8.9469                64.1994                19.8617

                     73                     74                     75
                      A                      A                      A
 Frequencies --   1647.1122              1663.6072              1793.8981
 Red. masses --      6.4513                 5.4884                 9.2802
 Frc consts  --     10.3121                 8.9495                17.5956
 IR Inten    --    214.4862                 1.0772               451.8376

                     76                     77                     78
                      A                      A                      A
 Frequencies --   3067.1713              3086.9501              3117.8790
 Red. masses --      1.0615                 1.0642                 1.1034
 Frc consts  --      5.8838                 5.9747                 6.3195
 IR Inten    --      9.9571                 8.4720                 6.4801

                     79                     80                     81
                      A                      A                      A
 Frequencies --   3166.2873              3181.5376              3188.5696
 Red. masses --      1.1019                 1.0883                 1.0864
 Frc consts  --      6.5087                 6.4906                 6.5080
 IR Inten    --      0.3443                 3.7478                 0.8740

                     82                     83                     84
                      A                      A                      A
 Frequencies --   3199.3438              3207.2698              3216.5993
 Red. masses --      1.0898                 1.0940                 1.0978
 Frc consts  --      6.5722                 6.6303                 6.6921
 IR Inten    --      7.7654                18.0466                18.4292

                     85                     86                     87
                      A                      A                      A
 Frequencies --   3243.2840              3269.9828              3532.5780
 Red. masses --      1.0903                 1.0987                 1.0785
 Frc consts  --      6.7573                 6.9217                 7.9293
 IR Inten    --      1.3368                 0.5633               308.3468

 - Thermochemistry -
 -------------------
 Temperature   298.150 Kelvin.  Pressure   1.00000 Atm.
 Atom     1 has atomic number  6 and mass  12.00000

 Molecular mass:   288.03911 amu.
 Principal axes and moments of inertia in atomic units:
                           1         2         3
     Eigenvalues --  2781.000599561.00573**********
           X            0.99992  -0.01242   0.00257
           Y            0.01241   0.99992   0.00232
           Z           -0.00259  -0.00229   0.99999
 This molecule is an asymmetric top.
 Rotational symmetry number  1.
 Warning -- assumption of classical behavior for rotation
           may cause significant error
 Rotational temperatures (Kelvin)      0.03114     0.00906     0.00753
 Rotational constants (GHZ):           0.64895     0.18876     0.15687
 Zero-point vibrational energy     619996.5 (Joules/Mol)
                                  148.18272 (Kcal/Mol)
 Warning -- explicit consideration of  23 degrees of freedom as
           vibrations may cause significant error
 Vibrational temperatures:     37.17    47.48    81.73    97.33   107.71
          (Kelvin)            177.68   216.95   248.08   291.67   319.07
                              370.10   414.88   472.57   490.28   512.55
                              606.99   645.17   681.73   687.00   739.31
                              828.74   836.17   874.42   911.00   921.39
                              964.01   994.53  1008.46  1031.79  1047.12
                             1068.31  1090.11  1109.80  1125.12  1149.47
                             1186.09  1212.25  1254.99  1260.63  1304.66
                             1335.34  1378.63  1415.27  1445.73  1468.97
                             1483.20  1526.32  1539.45  1586.82  1603.74
                             1628.17  1694.30  1719.99  1732.44  1752.93
                             1767.15  1812.94  1841.55  1865.46  1878.02
                             1910.22  1962.77  1975.65  2083.91  2118.77
                             2140.73  2146.70  2170.38  2190.07  2224.82
                             2242.64  2364.41  2369.83  2393.56  2581.02
                             4412.98  4441.43  4485.93  4555.58  4577.52
                             4587.64  4603.14  4614.55  4627.97  4666.36
                             4704.78  5082.59

 Zero-point correction=                           0.236144 (Hartree/Particle)
 Thermal correction to Energy=                    0.252093
 Thermal correction to Enthalpy=                  0.253038
 Thermal correction to Gibbs Free Energy=         0.190635
 Sum of electronic and zero-point Energies=          -1521.686840
 Sum of electronic and thermal Energies=             -1521.670891
 Sum of electronic and thermal Enthalpies=           -1521.669947
 Sum of electronic and thermal Free Energies=        -1521.732350

                     E (Thermal)             CV                S
                      KCal/Mol        Cal/Mol-Kelvin    Cal/Mol-Kelvin
 Total                  158.191             62.036            131.338
 Electronic               0.000              0.000              0.000
 Translational            0.889              2.981             42.871
 Rotational               0.889              2.981             34.080
 Vibrational            156.414             56.075             54.386
 Vibration     1          0.593              1.985              6.126
 Vibration     2          0.594              1.983              5.640
 Vibration     3          0.596              1.975              4.565
 Vibration     4          0.598              1.970              4.221
 Vibration     5          0.599              1.966              4.021
 Vibration     6          0.610              1.929              3.045
 Vibration     7          0.618              1.902              2.662
 Vibration     8          0.626              1.876              2.409
 Vibration     9          0.639              1.836              2.108
 Vibration    10          0.648              1.808              1.945
 Vibration    11          0.667              1.751              1.680
 Vibration    12          0.685              1.695              1.484
 Vibration    13          0.712              1.619              1.268
 Vibration    14          0.720              1.594              1.209
 Vibration    15          0.732              1.562              1.138
 Vibration    16          0.784              1.423              0.886
 Vibration    17          0.807              1.364              0.801
 Vibration    18          0.831              1.308              0.727
 Vibration    19          0.834              1.300              0.717
 Vibration    20          0.869              1.219              0.624
 Vibration    21          0.932              1.083              0.493
 Vibration    22          0.938              1.072              0.483
 Vibration    23          0.967              1.015              0.437

 Optimization completed.
    -- Stationary point found.
 Normal termination of Gaussian 16 at Sun Dec 13 16:24:29 2020.

 ----------------------------------------------------------------------
 # B3LYP/6-311++G(d,p) empiricaldispersion=gd3bj scf=xqc pop=npa geom=c
 heck
 ----------------------------------------------------------------------

 ---------------------------------------
 CID_135690470_JID_9340_Energie_neutraal
 ---------------------------------------
 Structure from the checkpoint file:  "JID_9340.chk"
 Charge =  0 Multiplicity = 1

 SCF Done:  E(RB3LYP) =  -1522.16774469     A.U. after   16 cycles
 Normal termination of Gaussian 16 at Sun Dec 13 16:30:41 2020.

 ----------------------------------------------------------------------
 # B3LYP/6-311++G(d,p) empiricaldispersion=gd3bj scf=xqc pop=npa geom=c
 heck
 ----------------------------------------------------------------------

 -------------------------------------
 CID_135690470_JID_9340_Energie_kation
 -------------------------------------
 Structure from the checkpoint file:  "JID_9340.chk"
 Charge =  1 Multiplicity = 2

 SCF Done:  E(UB3LYP) =  -1521.87449350     A.U. after   30 cycles
 Normal termination of Gaussian 16 at Sun Dec 13 16:46:16 2020.
 Gaussian 16:  ES64L-G16RevA.03 25-Dec-2016

 ----------------------------------------------------------------------
 # B3LYP/6-311++G(d,p) empiricaldispersion=gd3bj scf=xqc pop=npa geom=c
 heck
 ----------------------------------------------------------------------

 ------------------------------------
 CID_135690470_JID_9340_Energie_anion
 ------------------------------------
 Structure from the checkpoint file:  "JID_9340.chk"
 Charge = -1 Multiplicity = 2

                         Standard orientation:
 ---------------------------------------------------------------------
 Center     Atomic      Atomic             Coordinates (Angstroms)
 Number     Number       Type             X           Y           Z
 ---------------------------------------------------------------------
      1          6           0        4.396116   -1.818764    0.796686
      2          6           0        4.712224   -0.457424    0.800175
      3          6           0        3.941746    0.445823    0.071218
      4          6           0        2.845221    0.002368   -0.680360
      5          6           0        2.537166   -1.365603   -0.681776
      6          6           0        3.306697   -2.270675    0.054409
      7          6           0        1.998632    0.963214   -1.482630
      8         16           0        1.472074    2.492614   -0.597617
      9          6           0        0.728817    1.807086    0.942648
     10          6           0       -0.510173    0.998573    0.691930
     11          7           0       -1.681918    1.565314    0.700695
     12          6           0       -2.743208    0.747679    0.384371
     13          6           0       -2.603248   -0.602064    0.051074
     14          6           0       -1.317517   -1.246522    0.028204
     15          8           0       -1.037569   -2.401746   -0.268406
     16          7           0       -0.314835   -0.330498    0.412722
     17         16           0       -4.121045   -1.353453   -0.321767
     18          6           0       -4.948034    0.150695   -0.020238
     19          6           0       -4.111808    1.167680    0.339850
     20          1           0        4.993644   -2.519223    1.372743
     21          1           0        5.559503   -0.097942    1.377378
     22          1           0        4.177309    1.506076    0.089414
     23          1           0        1.688738   -1.731453   -1.255976
     24          1           0        3.045403   -3.324627    0.046745
     25          1           0        2.558685    1.357040   -2.338790
     26          1           0        1.118767    0.452662   -1.883713
     27          1           0        1.487330    1.227998    1.478319
     28          1           0        0.461432    2.683470    1.534669
     29          1           0        0.626583   -0.713654    0.436402
     30          1           0       -6.023412    0.192210   -0.131559
     31          1           0       -4.428412    2.178715    0.564487
 ---------------------------------------------------------------------

 SCF Done:  E(UB3LYP) =  -1522.17563981     A.U. after   33 cycles
 SCF Done:  E(UB3LYP) =  -1522.17563985     a.u. after    2 cycles

 The electronic state is 2-A.
 Alpha  occ. eigenvalues --  -88.73829 -88.73316 -18.95022 -14.21799 -14.17392
 Alpha  occ. eigenvalues --  -10.13589 -10.11529 -10.10848 -10.09747 -10.09524
 Alpha  occ. eigenvalues --  -10.08685 -10.08414 -10.08388 -10.08183 -10.07733
 Alpha  occ. eigenvalues --  -10.06530 -10.06282 -10.04460 -10.04391  -7.82445
 Alpha  occ. eigenvalues --   -7.81947  -5.78852  -5.78486  -5.78255  -5.77898
 Alpha  occ. eigenvalues --   -5.77788  -5.77539  -0.90654  -0.84882  -0.77250
 Alpha  occ. eigenvalues --   -0.76676  -0.73294  -0.71070  -0.66880  -0.65697
 Alpha  occ. eigenvalues --   -0.62420  -0.60882  -0.58692  -0.53403  -0.51827
 Alpha  occ. eigenvalues --   -0.51040  -0.49605  -0.47466  -0.43188  -0.42405
 Alpha  occ. eigenvalues --   -0.41438  -0.39560  -0.37705  -0.36894  -0.34779
 Alpha  occ. eigenvalues --   -0.34354  -0.33528  -0.33080  -0.32064  -0.31882
 Alpha  occ. eigenvalues --   -0.31141  -0.28806  -0.28519  -0.26989  -0.26846
 Alpha  occ. eigenvalues --   -0.26402  -0.26027  -0.25469  -0.24632  -0.23270
 Alpha  occ. eigenvalues --   -0.22243  -0.20870  -0.16981  -0.16296  -0.16004
 Alpha  occ. eigenvalues --   -0.14598  -0.13253  -0.12608  -0.11881  -0.09407
 Alpha  occ. eigenvalues --    0.04335
 Alpha virt. eigenvalues --    0.06320   0.06568   0.06845   0.08125   0.08563
 Alpha virt. eigenvalues --    0.08821   0.09383   0.09866   0.10509   0.11102
 Alpha virt. eigenvalues --    0.11273   0.12205   0.12695   0.13209   0.13611

  Beta  occ. eigenvalues --  -88.73800 -88.73256 -18.94958 -14.21548 -14.17514
  Beta  occ. eigenvalues --  -10.13521 -10.11251 -10.10848 -10.09754 -10.09527
  Beta  occ. eigenvalues --  -10.08694 -10.08360 -10.08331 -10.08162 -10.07651
  Beta  occ. eigenvalues --  -10.06317 -10.06005 -10.04484 -10.04218  -7.82414
  Beta  occ. eigenvalues --   -7.81893  -5.78804  -5.78446  -5.78229  -5.77873
  Beta  occ. eigenvalues --   -5.77767  -5.77336  -0.90433  -0.84603  -0.77137
  Beta  occ. eigenvalues --   -0.76401  -0.73026  -0.70986  -0.66731  -0.65557
  Beta  occ. eigenvalues --   -0.62147  -0.60561  -0.58443  -0.53235  -0.51641
  Beta  occ. eigenvalues --   -0.50654  -0.49418  -0.47345  -0.42976  -0.42352
  Beta  occ. eigenvalues --   -0.41280  -0.39265  -0.37624  -0.36813  -0.34503
  Beta  occ. eigenvalues --   -0.34262  -0.33393  -0.32968  -0.31916  -0.31638
  Beta  occ. eigenvalues --   -0.30701  -0.28529  -0.28399  -0.26797  -0.26672
  Beta  occ. eigenvalues --   -0.26293  -0.25885  -0.25378  -0.23885  -0.22744
  Beta  occ. eigenvalues --   -0.21951  -0.20542  -0.16557  -0.16052  -0.15026
  Beta  occ. eigenvalues --   -0.14607  -0.13112  -0.12489  -0.10910  -0.08151
  Beta virt. eigenvalues --    0.06273   0.06583   0.07504   0.08060   0.08535
  Beta virt. eigenvalues --    0.08796   0.09286   0.09587   0.10322   0.10464
  Beta virt. eigenvalues --    0.11167   0.11454   0.12196   0.12689   0.13167

 Mulliken charges and spin densities:
               1          2
     1  C   -0.325125  -0.050989
     2  C   -0.232648  -0.016154
     3  C   -0.263113   0.005264
     4  C    0.744799   0.087456
     5  C   -0.443424   0.075064
     6  C   -0.287852   0.086038
     7  C   -0.493904  -0.197944
     8  S    0.216673  -0.026343
     9  C   -0.730170  -0.016329
    10  C   -0.409283   0.239288
    11  N    0.020613  -0.065851
    12  C    0.112122   0.132860
    13  C    0.324456   0.174859
    14  C   -0.045164   0.029405
    15  O   -0.402313   0.025598
    16  N   -0.146514   0.092976
    17  S   -0.560218   0.104331
    18  C   -0.209924   0.170748
    19  C   -0.084205  -0.055439
    20  H    0.098388   0.033676
    21  H    0.100371   0.052841
    22  H    0.055149   0.072747
    23  H    0.224474  -0.014808
    24  H    0.164593   0.013083
    25  H    0.200419   0.027299
    26  H    0.236287  -0.003259
    27  H    0.152689   0.024407
    28  H    0.257611   0.016971
    29  H    0.405161  -0.008712
    30  H    0.197629  -0.013762
    31  H    0.122423   0.004681
 Sum of Mulliken charges =  -1.00000   1.00000

 Dipole moment (field-independent basis, Debye):
    X=              5.4563    Y=              1.4617    Z=              0.3379  Tot=              5.6588
 Quadrupole moment (field-independent basis, Debye-Ang):
   XX=           -174.6871   YY=           -157.6277   ZZ=           -134.1428
   XY=             -6.8118   XZ=              2.0743   YZ=             -0.4371

 Summary of Natural Population Analysis:

                                       Natural Population
                Natural  -----------------------------------------------
    Atom  No    Charge         Core      Valence    Rydberg      Total
 -----------------------------------------------------------------------
      C    1   -0.11093      0.99957     2.10128    0.01008     3.11093
      C    2   -0.08959      0.99957     2.08001    0.01001     3.08959
      C    3   -0.10171      0.99951     2.09275    0.00945     3.10171
      C    4   -0.03172      0.99949     2.02101    0.01122     3.03172
      C    5   -0.10268      0.99952     2.09377    0.00940     3.10268
      C    6   -0.09240      0.99957     2.08331    0.00952     3.09240
      C    7   -0.25935      0.99954     2.24989    0.00991     3.25935
      S    8    0.09879      4.99965     2.88260    0.01896     7.90121
      C    9   -0.26723      0.99955     2.25741    0.01027     3.26723
      C   10    0.25951      0.99960     1.72380    0.01709     2.74049
      N   11   -0.28061      0.99964     2.77140    0.00957     3.78061
      C   12    0.10515      0.99942     1.88299    0.01244     2.89485
      C   13   -0.12772      0.99936     2.11792    0.01043     3.12772
      C   14    0.32618      0.99956     1.65306    0.02121     2.67382
      O   15   -0.33474      0.99988     3.32933    0.00553     4.33474
      N   16   -0.27769      0.99963     2.76923    0.00883     3.77769
      S   17    0.21984      4.99946     2.75639    0.02431     7.78016
      C   18   -0.13466      0.99956     2.12425    0.01085     3.13466
      C   19   -0.15575      0.99950     2.14613    0.01012     3.15575
      H   20    0.09761      0.00000     0.40158    0.00081     0.40239
      H   21    0.09648      0.00000     0.40265    0.00087     0.40352
      H   22    0.10503      0.00000     0.39309    0.00188     0.39497
      H   23    0.11167      0.00000     0.38608    0.00225     0.38833
      H   24    0.10162      0.00000     0.39726    0.00111     0.39838
      H   25    0.11031      0.00000     0.38843    0.00126     0.38969
      H   26    0.11018      0.00000     0.38827    0.00156     0.38982
      H   27    0.10655      0.00000     0.39171    0.00174     0.39345
      H   28    0.11815      0.00000     0.37996    0.00189     0.38185
      H   29    0.20153      0.00000     0.29515    0.00332     0.29847
      H   30    0.09586      0.00000     0.40320    0.00095     0.40414
      H   31    0.10233      0.00000     0.39655    0.00113     0.39767
 =======================================================================
   * Total *   -0.00000     26.99159    47.76044    0.24797    75.00000

 Normal termination of Gaussian 16 at Sun Dec 13 17:17:32 2020.
