 Gaussian 16, Revision A.03,

 ----------------------------------------------------------------------
 # opt=(cartesian,calcfc) freq B3LYP/6-31G(d) empiricaldispersion=gd3bj
  scf=xqc
 ----------------------------------------------------------------------

 -------------------------------
 CID_79904914_JID_10430_neutraal
 -------------------------------
 Symbolic Z-matrix:
 Charge =  0 Multiplicity = 1

 SCF Done:  E(RB3LYP) =  -1262.89825950     A.U. after   14 cycles
 SCF Done:  E(RB3LYP) =  -1262.90049163     A.U. after   11 cycles
 SCF Done:  E(RB3LYP) =  -1262.90219085     A.U. after   11 cycles
 SCF Done:  E(RB3LYP) =  -1262.90227147     A.U. after   12 cycles
 SCF Done:  E(RB3LYP) =  -1262.90150941     A.U. after   12 cycles
 SCF Done:  E(RB3LYP) =  -1262.90235744     A.U. after   11 cycles
 SCF Done:  E(RB3LYP) =  -1262.90244772     A.U. after    9 cycles
 SCF Done:  E(RB3LYP) =  -1262.90246685     A.U. after   10 cycles
 SCF Done:  E(RB3LYP) =  -1262.90250216     A.U. after   11 cycles
 SCF Done:  E(RB3LYP) =  -1262.90251214     A.U. after   11 cycles
 SCF Done:  E(RB3LYP) =  -1262.90267824     A.U. after    8 cycles
 SCF Done:  E(RB3LYP) =  -1262.90267860     A.U. after    6 cycles
 SCF Done:  E(RB3LYP) =  -1262.90267794     A.U. after    9 cycles
 SCF Done:  E(RB3LYP) =  -1262.90267866     A.U. after    8 cycles
 SCF Done:  E(RB3LYP) =  -1262.90267869     A.U. after    6 cycles
 Optimization completed.
    -- Stationary point found.
 Normal termination of Gaussian 16 at Mon Jan  4 12:02:29 2021.

 --------------------------------------------------------------------
 #N Geom=AllCheck Guess=TCheck SCRF=Check GenChk RB3LYP/6-31G(d) Freq
 --------------------------------------------------------------------

 Structure from the checkpoint file:  "JID_10430.chk"
 -------------------------------
 CID_79904914_JID_10430_neutraal
 -------------------------------
 Charge =  0 Multiplicity = 1

 SCF Done:  E(RB3LYP) =  -1262.90267869     A.U. after    1 cycles

  Exact polarizability: 191.381 -24.230 199.710   8.434  10.559 153.218
 Approx polarizability: 254.223 -45.586 299.427  19.007  21.016 262.407

                      1                      2                      3
                      A                      A                      A
 Frequencies --     18.6934                39.7215                55.8266
 Red. masses --      5.7226                 5.7369                 4.7242
 Frc consts  --      0.0012                 0.0053                 0.0087
 IR Inten    --      0.0748                 0.6690                 2.2562

                      4                      5                      6
                      A                      A                      A
 Frequencies --     80.2087                94.6941               104.2177
 Red. masses --      4.4568                 3.3049                 3.2639
 Frc consts  --      0.0169                 0.0175                 0.0209
 IR Inten    --      1.4305                 4.3290                 2.1433

                      7                      8                      9
                      A                      A                      A
 Frequencies --    125.8687               146.0833               156.8399
 Red. masses --      3.8957                 2.6629                 1.8410
 Frc consts  --      0.0364                 0.0335                 0.0267
 IR Inten    --      0.2254                 1.8935                 1.4879

                     10                     11                     12
                      A                      A                      A
 Frequencies --    170.0543               185.4886               203.7202
 Red. masses --      2.1731                 1.8670                 2.7082
 Frc consts  --      0.0370                 0.0378                 0.0662
 IR Inten    --      0.5681                 2.9914                 2.6831

                     13                     14                     15
                      A                      A                      A
 Frequencies --    259.5984               267.8790               276.8823
 Red. masses --      3.7337                 2.4456                 1.1120
 Frc consts  --      0.1483                 0.1034                 0.0502
 IR Inten    --      3.6540                 5.0870                17.9377

                     16                     17                     18
                      A                      A                      A
 Frequencies --    304.7094               322.8676               343.6273
 Red. masses --      4.2949                 4.2580                 3.2369
 Frc consts  --      0.2349                 0.2615                 0.2252
 IR Inten    --      7.0783                 6.9108                 4.2189

                     19                     20                     21
                      A                      A                      A
 Frequencies --    355.8219               377.4461               413.9637
 Red. masses --      5.7123                 4.8845                 3.7068
 Frc consts  --      0.4261                 0.4100                 0.3743
 IR Inten    --      0.7685                 0.4332                 2.4003

                     22                     23                     24
                      A                      A                      A
 Frequencies --    424.6046               456.9134               472.7969
 Red. masses --      1.9967                 3.0862                 4.0579
 Frc consts  --      0.2121                 0.3796                 0.5344
 IR Inten    --      0.6304                11.2520                 7.8375

                     25                     26                     27
                      A                      A                      A
 Frequencies --    511.5225               512.7884               525.9685
 Red. masses --      4.1622                 4.3200                 4.9018
 Frc consts  --      0.6417                 0.6693                 0.7990
 IR Inten    --      0.7088                 1.8354                 7.7072

                     28                     29                     30
                      A                      A                      A
 Frequencies --    566.9805               589.8117               599.7810
 Red. masses --      5.3891                 4.4632                 2.8609
 Frc consts  --      1.0207                 0.9148                 0.6064
 IR Inten    --      7.2516                 2.7470                98.4928

                     31                     32                     33
                      A                      A                      A
 Frequencies --    625.5103               668.0303               682.7431
 Red. masses --      2.1208                 2.6115                 4.5646
 Frc consts  --      0.4889                 0.6866                 1.2536
 IR Inten    --    157.7709               125.6384                 2.3649

                     34                     35                     36
                      A                      A                      A
 Frequencies --    715.5444               736.8593               752.0873
 Red. masses --      2.8294                 4.0988                 4.9126
 Frc consts  --      0.8535                 1.3112                 1.6372
 IR Inten    --      0.3760                 3.8191                 9.9747

                     37                     38                     39
                      A                      A                      A
 Frequencies --    754.5743               766.4337               821.0935
 Red. masses --      5.1908                 2.8675                 1.6179
 Frc consts  --      1.7414                 0.9924                 0.6427
 IR Inten    --      8.7738                 2.9199                10.3249

                     40                     41                     42
                      A                      A                      A
 Frequencies --    835.9415               849.4837               856.1768
 Red. masses --      1.9179                 2.0799                 2.1248
 Frc consts  --      0.7896                 0.8843                 0.9177
 IR Inten    --     32.9978                10.0728                 8.3871

                     43                     44                     45
                      A                      A                      A
 Frequencies --    859.4343               889.7871               897.9907
 Red. masses --      1.7078                 2.5899                 2.3876
 Frc consts  --      0.7432                 1.2081                 1.1344
 IR Inten    --     16.7634                 9.8452                 4.6897

                     46                     47                     48
                      A                      A                      A
 Frequencies --    933.4526               945.2400               952.0384
 Red. masses --      1.7389                 1.3268                 2.3299
 Frc consts  --      0.8927                 0.6984                 1.2442
 IR Inten    --      0.9733                 5.8245                 5.7174

                     49                     50                     51
                      A                      A                      A
 Frequencies --    958.5572               971.5993              1007.0915
 Red. masses --      3.2083                 2.3696                 2.0969
 Frc consts  --      1.7369                 1.3179                 1.2530
 IR Inten    --     12.0136                12.9024                17.0185

                     52                     53                     54
                      A                      A                      A
 Frequencies --   1014.2917              1055.6225              1064.6081
 Red. masses --      2.0237                 3.8209                 1.8324
 Frc consts  --      1.2266                 2.5086                 1.2236
 IR Inten    --     10.6792                53.2191                11.6902

                     55                     56                     57
                      A                      A                      A
 Frequencies --   1067.6361              1077.2368              1112.9243
 Red. masses --      1.9090                 2.1310                 1.4645
 Frc consts  --      1.2820                 1.4570                 1.0688
 IR Inten    --     37.6314                15.8017                27.3432

                     58                     59                     60
                      A                      A                      A
 Frequencies --   1115.3078              1121.3960              1139.9766
 Red. masses --      1.3854                 1.8457                 2.5925
 Frc consts  --      1.0153                 1.3675                 1.9850
 IR Inten    --     11.1980                73.2877                24.5208

                     61                     62                     63
                      A                      A                      A
 Frequencies --   1157.0197              1180.5593              1189.3596
 Red. masses --      1.4298                 2.0269                 1.2690
 Frc consts  --      1.1277                 1.6644                 1.0577
 IR Inten    --     37.3255                47.6584                11.2016

                     64                     65                     66
                      A                      A                      A
 Frequencies --   1199.0958              1214.6404              1235.4172
 Red. masses --      1.7940                 1.4033                 1.7292
 Frc consts  --      1.5197                 1.2198                 1.5550
 IR Inten    --     44.0695                11.6482                44.7327

                     67                     68                     69
                      A                      A                      A
 Frequencies --   1250.8092              1261.9552              1268.0389
 Red. masses --      1.9949                 1.3404                 1.4554
 Frc consts  --      1.8389                 1.2577                 1.3788
 IR Inten    --    148.2753                19.8956                27.4827

                     70                     71                     72
                      A                      A                      A
 Frequencies --   1283.3817              1294.3890              1297.8340
 Red. masses --      1.4969                 1.3831                 1.5356
 Frc consts  --      1.4526                 1.3653                 1.5239
 IR Inten    --     11.9655                28.4702                27.1776

                     73                     74                     75
                      A                      A                      A
 Frequencies --   1320.8943              1326.3502              1344.0347
 Red. masses --      1.4158                 1.2996                 1.5223
 Frc consts  --      1.4555                 1.3470                 1.6202
 IR Inten    --     11.3506                 7.1960                 5.6052

                     76                     77                     78
                      A                      A                      A
 Frequencies --   1354.9491              1359.3759              1364.8747
 Red. masses --      5.3855                 4.2891                 1.7357
 Frc consts  --      5.8254                 4.6698                 1.9050
 IR Inten    --     18.3562                35.1637                19.2225

                     79                     80                     81
                      A                      A                      A
 Frequencies --   1390.7339              1394.9397              1420.6462
 Red. masses --      1.3698                 1.5462                 1.3215
 Frc consts  --      1.5609                 1.7727                 1.5715
 IR Inten    --      2.7492                32.1016                 2.0931

                     82                     83                     84
                      A                      A                      A
 Frequencies --   1436.0149              1476.9464              1508.8154
 Red. masses --      1.3277                 1.6516                 1.0911
 Frc consts  --      1.6131                 2.1226                 1.4635
 IR Inten    --      9.1464                13.3817                 2.7681

                     85                     86                     87
                      A                      A                      A
 Frequencies --   1510.7159              1512.8033              1515.0629
 Red. masses --      1.0926                 1.5637                 1.1753
 Frc consts  --      1.4691                 2.1085                 1.5896
 IR Inten    --      2.4957                 3.6396                12.8935

                     88                     89                     90
                      A                      A                      A
 Frequencies --   1519.2007              1528.5416              1539.7685
 Red. masses --      1.0874                 1.0920                 1.0943
 Frc consts  --      1.4787                 1.5033                 1.5286
 IR Inten    --      9.1252                 0.8312                 7.2949

                     91                     92                     93
                      A                      A                      A
 Frequencies --   1541.7888              1544.1674              1555.6401
 Red. masses --      1.0962                 1.0634                 3.1221
 Frc consts  --      1.5353                 1.4939                 4.4515
 IR Inten    --      4.9894                 0.9896               220.3243

                     94                     95                     96
                      A                      A                      A
 Frequencies --   1636.1135              1674.2109              1696.1331
 Red. masses --      6.7924                 3.4553                 1.3412
 Frc consts  --     10.7128                 5.7063                 2.2734
 IR Inten    --     15.3045                29.0951               112.2150

                     97                     98                     99
                      A                      A                      A
 Frequencies --   3012.6142              3037.5711              3054.9369
 Red. masses --      1.0729                 1.0362                 1.0717
 Frc consts  --      5.7370                 5.6329                 5.8928
 IR Inten    --     76.5280                71.1700                 5.6328

                    100                    101                    102
                      A                      A                      A
 Frequencies --   3060.4290              3061.3982              3075.7089
 Red. masses --      1.0671                 1.0624                 1.0756
 Frc consts  --      5.8888                 5.8666                 5.9953
 IR Inten    --      7.2255                40.4330                44.5083

                    103                    104                    105
                      A                      A                      A
 Frequencies --   3080.0207              3093.1213              3101.1238
 Red. masses --      1.0636                 1.0603                 1.0997
 Frc consts  --      5.9450                 5.9766                 6.2309
 IR Inten    --     35.9717                10.1327                14.4405

                    106                    107                    108
                      A                      A                      A
 Frequencies --   3106.3868              3111.7672              3127.1720
 Red. masses --      1.1018                 1.0994                 1.0943
 Frc consts  --      6.2640                 6.2723                 6.3053
 IR Inten    --     20.8423                27.9173                 8.8848

                    109                    110                    111
                      A                      A                      A
 Frequencies --   3128.5463              3134.8877              3152.7989
 Red. masses --      1.0952                 1.1069                 1.1054
 Frc consts  --      6.3158                 6.4092                 6.4738
 IR Inten    --     46.9799                20.4597                26.8044

                    112                    113                    114
                      A                      A                      A
 Frequencies --   3157.8468              3183.1602              3197.1587
 Red. masses --      1.1062                 1.0892                 1.0906
 Frc consts  --      6.4991                 6.5025                 6.5679
 IR Inten    --      4.2071                17.1801                 9.7136

                    115                    116                    117
                      A                      A                      A
 Frequencies --   3223.8055              3548.9544              3647.3327
 Red. masses --      1.0927                 1.0480                 1.0978
 Frc consts  --      6.6912                 7.7768                 8.6046
 IR Inten    --      2.2764                12.6988                 7.3942

 - Thermochemistry -
 -------------------
 Temperature   298.150 Kelvin.  Pressure   1.00000 Atm.
 Atom     1 has atomic number  6 and mass  12.00000

 Molecular mass:   295.12422 amu.
 Principal axes and moments of inertia in atomic units:
                           1         2         3
     Eigenvalues --  4130.150307516.224209545.35696
           X            0.99979  -0.02033   0.00111
           Y            0.02031   0.99959   0.02032
           Z           -0.00152  -0.02030   0.99979
 This molecule is an asymmetric top.
 Rotational symmetry number  1.
 Warning -- assumption of classical behavior for rotation
           may cause significant error
 Rotational temperatures (Kelvin)      0.02097     0.01152     0.00907
 Rotational constants (GHZ):           0.43697     0.24011     0.18907
 Zero-point vibrational energy     914042.7 (Joules/Mol)
                                  218.46146 (Kcal/Mol)
 Warning -- explicit consideration of  30 degrees of freedom as
           vibrations may cause significant error
 Vibrational temperatures:     26.90    57.15    80.32   115.40   136.24
          (Kelvin)            149.95   181.10   210.18   225.66   244.67
                              266.88   293.11   373.50   385.42   398.37
                              438.41   464.53   494.40   511.95   543.06
                              595.60   610.91   657.40   680.25   735.97
                              737.79   756.75   815.76   848.61   862.95
                              899.97   961.15   982.32  1029.51  1060.18
                             1082.09  1085.66  1102.73  1181.37  1202.73
                             1222.22  1231.85  1236.53  1280.21  1292.01
                             1343.03  1359.99  1369.77  1379.15  1397.91
                             1448.98  1459.34  1518.81  1531.73  1536.09
                             1549.90  1601.25  1604.68  1613.44  1640.17
                             1664.69  1698.56  1711.22  1725.23  1747.60
                             1777.49  1799.64  1815.67  1824.43  1846.50
                             1862.34  1867.29  1900.47  1908.32  1933.77
                             1949.47  1955.84  1963.75  2000.96  2007.01
                             2043.99  2066.11  2125.00  2170.85  2173.58
                             2176.59  2179.84  2185.79  2199.23  2215.38
                             2218.29  2221.71  2238.22  2354.00  2408.82
                             2440.36  4334.48  4370.39  4395.37  4403.27
                             4404.67  4425.26  4431.46  4450.31  4461.83
                             4469.40  4477.14  4499.30  4501.28  4510.40
                             4536.17  4543.44  4579.86  4600.00  4638.34
                             5106.15  5247.70

 Zero-point correction=                           0.348140 (Hartree/Particle)
 Thermal correction to Energy=                    0.367119
 Thermal correction to Enthalpy=                  0.368064
 Thermal correction to Gibbs Free Energy=         0.300303
 Sum of electronic and zero-point Energies=          -1262.554538
 Sum of electronic and thermal Energies=             -1262.535559
 Sum of electronic and thermal Enthalpies=           -1262.534615
 Sum of electronic and thermal Free Energies=        -1262.602376

                     E (Thermal)             CV                S
                      KCal/Mol        Cal/Mol-Kelvin    Cal/Mol-Kelvin
 Total                  230.371             74.404            142.615
 Electronic               0.000              0.000              0.000
 Translational            0.889              2.981             42.944
 Rotational               0.889              2.981             34.049
 Vibrational            228.594             68.442             65.622
 Vibration     1          0.593              1.986              6.768
 Vibration     2          0.594              1.981              5.273
 Vibration     3          0.596              1.975              4.600
 Vibration     4          0.600              1.963              3.886
 Vibration     5          0.603              1.953              3.561
 Vibration     6          0.605              1.946              3.374
 Vibration     7          0.611              1.927              3.008
 Vibration     8          0.617              1.907              2.723
 Vibration     9          0.621              1.895              2.588
 Vibration    10          0.625              1.879              2.435
 Vibration    11          0.632              1.860              2.272
 Vibration    12          0.639              1.835              2.099
 Vibration    13          0.668              1.747              1.664
 Vibration    14          0.673              1.732              1.610
 Vibration    15          0.678              1.716              1.553
 Vibration    16          0.696              1.665              1.391
 Vibration    17          0.708              1.630              1.296
 Vibration    18          0.722              1.588              1.195
 Vibration    19          0.731              1.563              1.140
 Vibration    20          0.748              1.518              1.049
 Vibration    21          0.778              1.440              0.913
 Vibration    22          0.787              1.417              0.876
 Vibration    23          0.815              1.346              0.775
 Vibration    24          0.830              1.310              0.730
 Vibration    25          0.867              1.224              0.630
 Vibration    26          0.868              1.222              0.627
 Vibration    27          0.881              1.193              0.596
 Vibration    28          0.923              1.103              0.510
 Vibration    29          0.947              1.053              0.468
 Vibration    30          0.958              1.032              0.450

 Normal termination of Gaussian 16 at Mon Jan  4 12:26:41 2021.

 ----------------------------------------------------------------------
 # B3LYP/6-311++G(d,p) empiricaldispersion=gd3bj scf=xqc pop=npa geom=c
 heck
 ----------------------------------------------------------------------

 ---------------------------------------
 CID_79904914_JID_10430_Energie_neutraal
 ---------------------------------------
 Structure from the checkpoint file:  "JID_10430.chk"
 Charge =  0 Multiplicity = 1

 SCF Done:  E(RB3LYP) =  -1263.17125902     A.U. after   15 cycles
 Normal termination of Gaussian 16 at Mon Jan  4 12:36:16 2021.

 ----------------------------------------------------------------------
 # B3LYP/6-311++G(d,p) empiricaldispersion=gd3bj scf=xqc pop=npa geom=c
 heck
 ----------------------------------------------------------------------

 -------------------------------------
 CID_79904914_JID_10430_Energie_kation
 -------------------------------------
 Structure from the checkpoint file:  "JID_10430.chk"
 Charge =  1 Multiplicity = 2

 SCF Done:  E(UB3LYP) =  -1262.90800670     A.U. after   30 cycles
 Normal termination of Gaussian 16 at Mon Jan  4 13:01:12 2021.
 Gaussian 16:  ES64L-G16RevA.03 25-Dec-2016

 ----------------------------------------------------------------------
 # B3LYP/6-311++G(d,p) empiricaldispersion=gd3bj scf=xqc pop=npa geom=c
 heck
 ----------------------------------------------------------------------

 ------------------------------------
 CID_79904914_JID_10430_Energie_anion
 ------------------------------------
 Structure from the checkpoint file:  "JID_10430.chk"
 Charge = -1 Multiplicity = 2

                         Standard orientation:
 ---------------------------------------------------------------------
 Center     Atomic      Atomic             Coordinates (Angstroms)
 Number     Number       Type             X           Y           Z
 ---------------------------------------------------------------------
      1          6           0       -2.978021   -2.611622   -1.159134
      2          8           0       -2.473183   -1.338860   -1.572505
      3          6           0       -2.410991   -0.402329   -0.563002
      4          6           0       -1.510986   -0.544159    0.504641
      5          6           0       -1.464991    0.446871    1.483486
      6          6           0       -2.288930    1.567080    1.408109
      7          6           0       -3.175154    1.725036    0.330209
      8          6           0       -3.228617    0.721406   -0.649089
      9          7           0       -3.952030    2.882847    0.204353
     10          8           0       -0.687287   -1.640784    0.622607
     11          6           0        0.361356   -1.807145   -0.359330
     12          6           0        1.387952   -2.711053    0.307449
     13          6           0        1.974070   -2.011719    1.550402
     14          8           0        1.825426   -0.593093    1.531655
     15          6           0        2.031332    0.041874    0.270797
     16          6           0        1.039346   -0.503359   -0.793097
     17          6           0        3.499280   -0.067434   -0.196489
     18          6           0        3.715049    0.974524   -1.294914
     19         16           0        2.652477    2.429524   -0.848493
     20          6           0        1.820546    1.541174    0.529770
     21          1           0       -2.978938   -3.243134   -2.050408
     22          1           0       -4.003666   -2.513693   -0.780304
     23          1           0       -2.346398   -3.057670   -0.384362
     24          1           0       -0.748475    0.327797    2.289230
     25          1           0       -2.232462    2.334933    2.175442
     26          1           0       -3.901854    0.803473   -1.497636
     27          1           0       -4.793223    2.765712   -0.346914
     28          1           0       -4.154038    3.347538    1.081022
     29          1           0       -0.070704   -2.286138   -1.245235
     30          1           0        0.927904   -3.661071    0.598116
     31          1           0        2.170096   -2.939863   -0.426530
     32          1           0        1.438054   -2.328545    2.447323
     33          1           0        3.034087   -2.278201    1.675890
     34          1           0        1.569888   -0.720215   -1.727427
     35          1           0        0.284593    0.246081   -1.041256
     36          1           0        4.141344    0.148039    0.664563
     37          1           0        3.743469   -1.072862   -0.558419
     38          1           0        3.402562    0.600875   -2.274401
     39          1           0        4.758187    1.290772   -1.365793
     40          1           0        0.762110    1.805841    0.551371
     41          1           0        2.274946    1.805044    1.488236
 ---------------------------------------------------------------------

 SCF Done:  E(UB3LYP) =  -1263.16049399     A.U. after   33 cycles
 SCF Done:  E(UB3LYP) =  -1263.16049399     a.u. after    1 cycles

 The electronic state is 2-A.
 Alpha  occ. eigenvalues --  -88.74796 -19.05400 -19.04352 -19.03614 -14.22249
 Alpha  occ. eigenvalues --  -10.15017 -10.13919 -10.13695 -10.12952 -10.12930
 Alpha  occ. eigenvalues --  -10.12558 -10.12328 -10.11355 -10.10474 -10.08884
 Alpha  occ. eigenvalues --  -10.08319 -10.08153 -10.08091 -10.07745 -10.07731
 Alpha  occ. eigenvalues --   -7.83408  -5.79804  -5.79455  -5.78760  -0.97579
 Alpha  occ. eigenvalues --   -0.95822  -0.94627  -0.82651  -0.76013  -0.74869
 Alpha  occ. eigenvalues --   -0.70988  -0.67192  -0.66398  -0.64301  -0.63298
 Alpha  occ. eigenvalues --   -0.60201  -0.59721  -0.56374  -0.52791  -0.52151
 Alpha  occ. eigenvalues --   -0.49963  -0.49548  -0.45753  -0.43673  -0.43076
 Alpha  occ. eigenvalues --   -0.42131  -0.41323  -0.40236  -0.38986  -0.38836
 Alpha  occ. eigenvalues --   -0.37670  -0.37277  -0.36293  -0.36004  -0.35027
 Alpha  occ. eigenvalues --   -0.34260  -0.33555  -0.32137  -0.31486  -0.31142
 Alpha  occ. eigenvalues --   -0.30661  -0.29646  -0.28998  -0.28649  -0.27906
 Alpha  occ. eigenvalues --   -0.27610  -0.26410  -0.25934  -0.25454  -0.24258
 Alpha  occ. eigenvalues --   -0.22982  -0.22148  -0.21275  -0.19876  -0.18729
 Alpha  occ. eigenvalues --   -0.16179  -0.15482  -0.13556  -0.11141   0.03797
 Alpha virt. eigenvalues --    0.04916   0.06127   0.06983   0.07325   0.07444
 Alpha virt. eigenvalues --    0.07886   0.08393   0.08812   0.09145   0.09557
 Alpha virt. eigenvalues --    0.09651   0.10124   0.10386   0.11100   0.11276

  Beta  occ. eigenvalues --  -88.74795 -19.05398 -19.04349 -19.03614 -14.22189
  Beta  occ. eigenvalues --  -10.15017 -10.13914 -10.13693 -10.12933 -10.12920
  Beta  occ. eigenvalues --  -10.12553 -10.12319 -10.11338 -10.10471 -10.08860
  Beta  occ. eigenvalues --  -10.08294 -10.08153 -10.08081 -10.07732 -10.07721
  Beta  occ. eigenvalues --   -7.83407  -5.79804  -5.79455  -5.78760  -0.97574
  Beta  occ. eigenvalues --   -0.95817  -0.94623  -0.82582  -0.75999  -0.74842
  Beta  occ. eigenvalues --   -0.70960  -0.67170  -0.66383  -0.64278  -0.63255
  Beta  occ. eigenvalues --   -0.60171  -0.59691  -0.56345  -0.52770  -0.52108
  Beta  occ. eigenvalues --   -0.49931  -0.49517  -0.45726  -0.43639  -0.43021
  Beta  occ. eigenvalues --   -0.42101  -0.41297  -0.40213  -0.38954  -0.38802
  Beta  occ. eigenvalues --   -0.37646  -0.37237  -0.36268  -0.35983  -0.35007
  Beta  occ. eigenvalues --   -0.34241  -0.33528  -0.32110  -0.31460  -0.31117
  Beta  occ. eigenvalues --   -0.30632  -0.29618  -0.28974  -0.28630  -0.27891
  Beta  occ. eigenvalues --   -0.27584  -0.26388  -0.25909  -0.25435  -0.24236
  Beta  occ. eigenvalues --   -0.22963  -0.22134  -0.21259  -0.19854  -0.18716
  Beta  occ. eigenvalues --   -0.16165  -0.15471  -0.13550  -0.11097
  Beta virt. eigenvalues --    0.05843   0.06297   0.06635   0.07204   0.07639
  Beta virt. eigenvalues --    0.07898   0.08264   0.08526   0.09106   0.09346
  Beta virt. eigenvalues --    0.09697   0.09878   0.10363   0.10462   0.11327

 Mulliken charges and spin densities:
               1          2
     1  C    0.302429  -0.550611
     2  O   -0.094886   0.008735
     3  C    0.878772  -1.275499
     4  C    0.921005  -0.888150
     5  C   -0.715790   0.741240
     6  C    0.344668  -0.428805
     7  C   -0.237108  -0.368875
     8  C   -1.365420   1.569785
     9  N   -0.189736  -0.084713
    10  O   -0.007255  -0.004593
    11  C   -1.539911   1.296050
    12  C    1.354910  -1.963848
    13  C   -0.017784  -0.164167
    14  O   -0.036173  -0.003681
    15  C   -0.022637   1.106720
    16  C    0.669630  -1.102432
    17  C    0.353094  -0.947123
    18  C    0.090107  -0.545484
    19  S    0.057972  -0.014007
    20  C   -1.369171   0.275865
    21  H    0.029546   0.128423
    22  H   -0.112930   0.238393
    23  H    0.081258   0.100517
    24  H    0.150125   0.052326
    25  H   -0.069908   0.234983
    26  H   -0.090321   0.278628
    27  H   -0.304246   0.557312
    28  H   -0.182050   0.426637
    29  H    0.067369   0.167695
    30  H    0.023776   0.145191
    31  H   -0.362358   0.535414
    32  H    0.082571   0.091963
    33  H   -0.036249   0.176598
    34  H   -0.075021   0.280222
    35  H    0.365838  -0.165230
    36  H   -0.006634   0.204842
    37  H   -0.242605   0.398424
    38  H    0.061230   0.133756
    39  H   -0.075523   0.284218
    40  H    0.128100   0.034228
    41  H    0.191315   0.039052
 Sum of Mulliken charges =  -1.00000   1.00000

 Dipole moment (field-independent basis, Debye):
    X=              2.7337    Y=             -2.2580    Z=              1.4530  Tot=              3.8318
 Quadrupole moment (field-independent basis, Debye-Ang):
   XX=           -220.8988   YY=           -189.0242   ZZ=           -159.8979
   XY=             24.5945   XZ=              4.5288   YZ=             -2.3738

 Summary of Natural Population Analysis:

                                       Natural Population
                Natural  -----------------------------------------------
    Atom  No    Charge         Core      Valence    Rydberg      Total
 -----------------------------------------------------------------------
      C    1   -0.09831      0.99959     2.09132    0.00741     3.09831
      O    2   -0.28976      0.99986     3.28045    0.00945     4.28976
      C    3    0.14091      0.99932     1.84558    0.01419     2.85909
      C    4    0.11171      0.99930     1.87481    0.01418     2.88829
      C    5   -0.10740      0.99952     2.09814    0.00974     3.10740
      C    6   -0.12864      0.99952     2.11943    0.00968     3.12864
      C    7    0.08607      0.99950     1.90334    0.01110     2.91393
      C    8   -0.13740      0.99948     2.12776    0.01016     3.13740
      N    9   -0.39460      0.99972     2.88446    0.01042     3.89460
      O   10   -0.30007      0.99986     3.29015    0.01006     4.30007
      C   11    0.06806      0.99951     1.91660    0.01583     2.93194
      C   12   -0.21362      0.99960     2.20458    0.00944     3.21362
      C   13   -0.00823      0.99957     1.99587    0.01278     3.00823
      O   14   -0.30764      0.99987     3.29826    0.00952     4.30764
      C   15    0.13417      0.99947     1.84719    0.01916     2.86583
      C   16   -0.21964      0.99955     2.20905    0.01104     3.21964
      C   17   -0.21006      0.99956     2.19957    0.01093     3.21006
      C   18   -0.24168      0.99960     2.23265    0.00942     3.24168
      S   19    0.07207      4.99966     2.91268    0.01559     7.92793
      C   20   -0.24292      0.99952     2.23436    0.00905     3.24292
      H   21    0.08845      0.00000     0.41042    0.00113     0.41155
      H   22    0.08235      0.00000     0.41628    0.00137     0.41765
      H   23    0.09055      0.00000     0.40797    0.00148     0.40945
      H   24    0.11108      0.00000     0.38740    0.00152     0.38892
      H   25    0.10067      0.00000     0.39846    0.00087     0.39933
      H   26    0.10525      0.00000     0.39312    0.00163     0.39475
      H   27    0.18733      0.00000     0.30819    0.00448     0.31267
      H   28    0.18708      0.00000     0.30873    0.00419     0.31292
      H   29    0.09276      0.00000     0.40522    0.00201     0.40724
      H   30    0.10699      0.00000     0.39183    0.00118     0.39301
      H   31    0.10277      0.00000     0.39545    0.00178     0.39723
      H   32    0.09234      0.00000     0.40656    0.00110     0.40766
      H   33    0.08132      0.00000     0.41753    0.00115     0.41868
      H   34    0.10698      0.00000     0.39146    0.00156     0.39302
      H   35    0.11443      0.00000     0.38391    0.00166     0.38557
      H   36    0.10413      0.00000     0.39461    0.00125     0.39587
      H   37    0.10883      0.00000     0.38930    0.00187     0.39117
      H   38    0.10007      0.00000     0.39842    0.00151     0.39993
      H   39    0.10473      0.00000     0.39388    0.00139     0.39527
      H   40    0.11461      0.00000     0.38411    0.00128     0.38539
      H   41    0.10426      0.00000     0.39411    0.00163     0.39574
 =======================================================================
   * Total *   -0.00000     23.99157    54.74323    0.26521    79.00000

 Normal termination of Gaussian 16 at Mon Jan  4 13:28:48 2021.
