 Gaussian 16, Revision A.03,

 -----------------------------------------------------------
 # opt freq B3LYP/6-31G(d) empiricaldispersion=gd3bj scf=xqc
 -----------------------------------------------------------

 -------------------------------
 CID_150317175_JID_5809_neutraal
 -------------------------------
 Symbolic Z-matrix:
 Charge =  0 Multiplicity = 1

 SCF Done:  E(RB3LYP) =  -636.598149995     A.U. after   14 cycles
 SCF Done:  E(RB3LYP) =  -636.598800623     A.U. after   14 cycles
 SCF Done:  E(RB3LYP) =  -636.599433263     A.U. after   13 cycles
 SCF Done:  E(RB3LYP) =  -636.600377375     A.U. after   13 cycles
 SCF Done:  E(RB3LYP) =  -636.600941578     A.U. after   13 cycles
 SCF Done:  E(RB3LYP) =  -636.601029108     A.U. after   11 cycles
 SCF Done:  E(RB3LYP) =  -636.601112940     A.U. after   12 cycles
 SCF Done:  E(RB3LYP) =  -636.601161133     A.U. after   10 cycles
 SCF Done:  E(RB3LYP) =  -636.601169355     A.U. after   11 cycles
 SCF Done:  E(RB3LYP) =  -636.601175647     A.U. after    9 cycles
 SCF Done:  E(RB3LYP) =  -636.601173919     A.U. after    9 cycles
 SCF Done:  E(RB3LYP) =  -636.601175037     A.U. after    9 cycles
 SCF Done:  E(RB3LYP) =  -636.601176095     A.U. after    8 cycles
 SCF Done:  E(RB3LYP) =  -636.601176212     A.U. after    7 cycles
 Optimization completed.
    -- Stationary point found.
 Normal termination of Gaussian 16 at Sun Dec 13 12:31:51 2020.

 --------------------------------------------------------------------
 #N Geom=AllCheck Guess=TCheck SCRF=Check GenChk RB3LYP/6-31G(d) Freq
 --------------------------------------------------------------------

 Structure from the checkpoint file:  "JID_5809.chk"
 -------------------------------
 CID_150317175_JID_5809_neutraal
 -------------------------------
 Charge =  0 Multiplicity = 1

 SCF Done:  E(RB3LYP) =  -636.601176212     A.U. after    1 cycles

  Exact polarizability: 146.363  -5.830 161.640  -2.731  10.736 137.353
 Approx polarizability: 187.085  -1.519 247.880  -3.369  38.599 206.974

 ******    1 imaginary frequencies (negative Signs) ******

                      1                      2                      3
                      A                      A                      A
 Frequencies --     -5.5348                26.7894                41.3374
 Red. masses --      6.8341                 5.1346                 2.9408
 Frc consts  --      0.0001                 0.0022                 0.0030
 IR Inten    --      0.2008                 0.7834                 0.0361

                      4                      5                      6
                      A                      A                      A
 Frequencies --     55.7220                70.2987               106.6835
 Red. masses --      2.7703                 3.3176                 3.0316
 Frc consts  --      0.0051                 0.0097                 0.0203
 IR Inten    --      0.0402                 0.3328                 0.6118

                      7                      8                      9
                      A                      A                      A
 Frequencies --    129.7275               150.9673               160.6899
 Red. masses --      3.4740                 2.7102                 4.2174
 Frc consts  --      0.0344                 0.0364                 0.0642
 IR Inten    --      0.3229                 0.7287                 0.8995

                     10                     11                     12
                      A                      A                      A
 Frequencies --    175.6319               215.9740               226.0963
 Red. masses --      1.8966                 1.5971                 1.3864
 Frc consts  --      0.0345                 0.0439                 0.0418
 IR Inten    --      0.2944                 0.6562                 0.2347

                     13                     14                     15
                      A                      A                      A
 Frequencies --    236.8323               257.0384               264.2452
 Red. masses --      1.2629                 1.2447                 3.7596
 Frc consts  --      0.0417                 0.0485                 0.1547
 IR Inten    --      0.2366                 0.2569                 3.3573

                     16                     17                     18
                      A                      A                      A
 Frequencies --    289.8737               306.7116               340.3317
 Red. masses --      1.4346                 1.9560                 1.9412
 Frc consts  --      0.0710                 0.1084                 0.1325
 IR Inten    --      0.0529                 0.0550                 0.0396

                     19                     20                     21
                      A                      A                      A
 Frequencies --    351.6611               360.0726               383.5545
 Red. masses --      2.2447                 2.2452                 2.0651
 Frc consts  --      0.1635                 0.1715                 0.1790
 IR Inten    --      0.1440                 0.2256                 0.0687

                     22                     23                     24
                      A                      A                      A
 Frequencies --    404.9165               434.1158               442.9273
 Red. masses --      2.4277                 2.0279                 2.2947
 Frc consts  --      0.2345                 0.2252                 0.2652
 IR Inten    --      1.3725                 0.0618                 1.2389

                     25                     26                     27
                      A                      A                      A
 Frequencies --    485.9957               494.2397               566.8485
 Red. masses --      2.3443                 3.2825                13.3923
 Frc consts  --      0.3262                 0.4724                 2.5354
 IR Inten    --      0.7118                 3.8496                 8.1105

                     28                     29                     30
                      A                      A                      A
 Frequencies --    590.5803               660.5112               732.4537
 Red. masses --      2.2175                 6.1762                 2.1734
 Frc consts  --      0.4557                 1.5876                 0.6870
 IR Inten    --      1.8007                 8.2077                 2.1755

                     31                     32                     33
                      A                      A                      A
 Frequencies --    751.9824               818.5803               828.8585
 Red. masses --      1.7241                 1.9055                 1.4169
 Frc consts  --      0.5744                 0.7523                 0.5735
 IR Inten    --      4.0257                 4.0741                 2.6827

                     34                     35                     36
                      A                      A                      A
 Frequencies --    871.3412               898.9278               922.0922
 Red. masses --      1.9393                 1.9642                 1.8278
 Frc consts  --      0.8675                 0.9352                 0.9156
 IR Inten    --      0.8662                 6.1609                 1.7414

                     37                     38                     39
                      A                      A                      A
 Frequencies --    933.5274               939.9711               943.9075
 Red. masses --      1.6176                 2.0985                 1.2218
 Frc consts  --      0.8305                 1.0924                 0.6414
 IR Inten    --      1.8743                 4.9803                 1.3166

                     40                     41                     42
                      A                      A                      A
 Frequencies --    972.3872               978.0466               981.5739
 Red. masses --      1.7725                 1.6710                 2.1630
 Frc consts  --      0.9874                 0.9418                 1.2279
 IR Inten    --      4.6252                 4.6469                11.1338

                     43                     44                     45
                      A                      A                      A
 Frequencies --   1011.5689              1019.4855              1051.1822
 Red. masses --      1.6800                 1.5985                 2.1522
 Frc consts  --      1.0129                 0.9789                 1.4012
 IR Inten    --      1.8198                 0.0661                 0.3032

                     46                     47                     48
                      A                      A                      A
 Frequencies --   1078.3602              1086.3115              1104.0718
 Red. masses --      1.9340                 2.1385                 1.9570
 Frc consts  --      1.3251                 1.4868                 1.4055
 IR Inten    --      0.3687                 0.6903                 2.0954

                     49                     50                     51
                      A                      A                      A
 Frequencies --   1119.2438              1160.0234              1170.4620
 Red. masses --      1.5060                 2.2492                 2.0604
 Frc consts  --      1.1115                 1.7833                 1.6631
 IR Inten    --      0.4301                 0.9156                 0.3531

                     52                     53                     54
                      A                      A                      A
 Frequencies --   1177.3663              1187.3522              1208.6177
 Red. masses --      2.1206                 2.0681                 1.7765
 Frc consts  --      1.7320                 1.7179                 1.5290
 IR Inten    --      5.5054                 0.2158                 5.7968

                     55                     56                     57
                      A                      A                      A
 Frequencies --   1246.3971              1257.5244              1276.7976
 Red. masses --      1.3389                 1.2752                 1.3448
 Frc consts  --      1.2255                 1.1882                 1.2917
 IR Inten    --      1.7478                 2.5576                 2.8650

                     58                     59                     60
                      A                      A                      A
 Frequencies --   1304.5186              1328.8419              1335.9659
 Red. masses --      1.2894                 1.3650                 1.5040
 Frc consts  --      1.2929                 1.4201                 1.5816
 IR Inten    --      2.0583                 6.7861                82.9994

                     61                     62                     63
                      A                      A                      A
 Frequencies --   1344.1446              1358.3495              1365.5130
 Red. masses --      1.2742                 2.1667                 1.3352
 Frc consts  --      1.3564                 2.3555                 1.4668
 IR Inten    --      2.6151                54.8447                14.8442

                     64                     65                     66
                      A                      A                      A
 Frequencies --   1372.4700              1392.0517              1397.3940
 Red. masses --      1.2360                 1.4229                 1.3282
 Frc consts  --      1.3718                 1.6245                 1.5281
 IR Inten    --      4.5636                 5.5369                 2.5167

                     67                     68                     69
                      A                      A                      A
 Frequencies --   1408.5108              1412.2580              1419.9064
 Red. masses --      1.3616                 1.3507                 1.4058
 Frc consts  --      1.5915                 1.5873                 1.6699
 IR Inten    --      9.3519                18.6013                 5.9475

                     70                     71                     72
                      A                      A                      A
 Frequencies --   1423.3962              1427.7509              1430.8705
 Red. masses --      1.3930                 1.4077                 1.3248
 Frc consts  --      1.6628                 1.6908                 1.5981
 IR Inten    --      2.6877                 3.4120                 7.5446

                     73                     74                     75
                      A                      A                      A
 Frequencies --   1442.4653              1444.1378              1449.2208
 Red. masses --      1.2382                 1.2222                 1.2412
 Frc consts  --      1.5179                 1.5018                 1.5359
 IR Inten    --      6.0041                 8.0662                 3.6739

                     76                     77                     78
                      A                      A                      A
 Frequencies --   1511.0139              1516.1158              1516.4492
 Red. masses --      1.0676                 1.0645                 1.0756
 Frc consts  --      1.4361                 1.4417                 1.4573
 IR Inten    --      1.6995                 2.4462                 7.0899

                     79                     80                     81
                      A                      A                      A
 Frequencies --   1520.8016              1526.9451              1529.4878
 Red. masses --      1.0513                 1.0625                 1.0585
 Frc consts  --      1.4326                 1.4595                 1.4589
 IR Inten    --      2.7334                 3.6588                 2.0045

                     82                     83                     84
                      A                      A                      A
 Frequencies --   1531.0144              1533.2806              1534.9326
 Red. masses --      1.0586                 1.0614                 1.0612
 Frc consts  --      1.4620                 1.4701                 1.4731
 IR Inten    --      4.0416                17.2995                 2.4661

                     85                     86                     87
                      A                      A                      A
 Frequencies --   1536.3527              1543.7139              1544.6063
 Red. masses --      1.0638                 1.0519                 1.0533
 Frc consts  --      1.4795                 1.4769                 1.4806
 IR Inten    --      1.2253                 6.2381                 2.5032

                     88                     89                     90
                      A                      A                      A
 Frequencies --   1549.9788              2264.5138              2975.9884
 Red. masses --      1.0694                13.4696                 1.0824
 Frc consts  --      1.5137                40.6962                 5.6479
 IR Inten    --      3.7504               646.0875                26.4154

                     91                     92                     93
                      A                      A                      A
 Frequencies --   3015.8315              3020.1626              3032.7558
 Red. masses --      1.0639                 1.0563                 1.0363
 Frc consts  --      5.7014                 5.6770                 5.6159
 IR Inten    --     22.4714                28.8990                34.0784

                     94                     95                     96
                      A                      A                      A
 Frequencies --   3035.8104              3040.6410              3043.6053
 Red. masses --      1.0570                 1.0547                 1.0629
 Frc consts  --      5.7392                 5.7452                 5.8014
 IR Inten    --     14.3199                11.1210                18.0283

                     97                     98                     99
                      A                      A                      A
 Frequencies --   3046.6874              3048.2796              3050.0950
 Red. masses --      1.0417                 1.0464                 1.0783
 Frc consts  --      5.6968                 5.7287                 5.9104
 IR Inten    --     23.5654                34.3207                15.4969

                    100                    101                    102
                      A                      A                      A
 Frequencies --   3056.4249              3059.9274              3062.5490
 Red. masses --      1.0723                 1.0852                 1.1049
 Frc consts  --      5.9017                 5.9864                 6.1060
 IR Inten    --     57.3153                46.9568                23.7632

                    103                    104                    105
                      A                      A                      A
 Frequencies --   3075.6685              3091.7404              3095.7454
 Red. masses --      1.1003                 1.0950                 1.1007
 Frc consts  --      6.1325                 6.1668                 6.2154
 IR Inten    --     66.2028                16.0300                31.3246

                    106                    107                    108
                      A                      A                      A
 Frequencies --   3098.9302              3102.2296              3108.0982
 Red. masses --      1.0938                 1.1009                 1.1006
 Frc consts  --      6.1886                 6.2426                 6.2643
 IR Inten    --      9.9345                40.0116                35.1962

                    109                    110                    111
                      A                      A                      A
 Frequencies --   3108.8331              3117.2669              3117.7726
 Red. masses --      1.1013                 1.0952                 1.0958
 Frc consts  --      6.2714                 6.2705                 6.2760
 IR Inten    --     63.2660                 0.5062                81.7291

                    112                    113                    114
                      A                      A                      A
 Frequencies --   3126.6097              3130.9990              3141.8668
 Red. masses --      1.0906                 1.0999                 1.0982
 Frc consts  --      6.2816                 6.3527                 6.3871
 IR Inten    --     35.5568                41.4407                23.2464

 - Thermochemistry -
 -------------------
 Temperature   298.150 Kelvin.  Pressure   1.00000 Atm.
 Atom     1 has atomic number  6 and mass  12.00000

 Molecular mass:   211.20485 amu.
 Principal axes and moments of inertia in atomic units:
                           1         2         3
     Eigenvalues --  3772.466123793.534395624.67357
           X           -0.57587   0.81754   0.00249
           Y            0.81704   0.57561  -0.03342
           Z            0.02876   0.01721   0.99944
 This molecule is an asymmetric top.
 Rotational symmetry number  1.
 Warning -- assumption of classical behavior for rotation
           may cause significant error
 Rotational temperatures (Kelvin)      0.02296     0.02283     0.01540
 Rotational constants (GHZ):           0.47840     0.47574     0.32086
    1 imaginary frequencies ignored.
 Zero-point vibrational energy     962875.9 (Joules/Mol)
                                  230.13286 (Kcal/Mol)
 Warning -- explicit consideration of  27 degrees of freedom as
           vibrations may cause significant error
 Vibrational temperatures:     38.54    59.48    80.17   101.14   153.49
          (Kelvin)            186.65   217.21   231.20   252.70   310.74
                              325.30   340.75   369.82   380.19   417.06
                              441.29   489.66   505.96   518.06   551.85
                              582.58   624.60   637.27   699.24   711.10
                              815.57   849.71   950.33  1053.84  1081.93
                             1177.75  1192.54  1253.67  1293.36  1326.68
                             1343.14  1352.41  1358.07  1399.05  1407.19
                             1412.27  1455.42  1466.81  1512.42  1551.52
                             1562.96  1588.51  1610.34  1669.01  1684.03
                             1693.97  1708.34  1738.93  1793.29  1809.30
                             1837.03  1876.91  1911.91  1922.16  1933.92
                             1954.36  1964.67  1974.68  2002.85  2010.54
                             2026.53  2031.92  2042.93  2047.95  2054.22
                             2058.70  2075.39  2077.79  2085.11  2174.01
                             2181.35  2181.83  2188.09  2196.93  2200.59
                             2202.79  2206.05  2208.43  2210.47  2221.06
                             2222.34  2230.07  3258.13  4281.78  4339.11
                             4345.34  4363.46  4367.85  4374.80  4379.07
                             4383.50  4385.79  4388.41  4397.51  4402.55
                             4406.32  4425.20  4448.32  4454.09  4458.67
                             4463.42  4471.86  4472.92  4485.05  4485.78
                             4498.49  4504.81  4520.45

 Zero-point correction=                           0.366740 (Hartree/Particle)
 Thermal correction to Energy=                    0.384031
 Thermal correction to Enthalpy=                  0.384975
 Thermal correction to Gibbs Free Energy=         0.321515
 Sum of electronic and zero-point Energies=           -636.234436
 Sum of electronic and thermal Energies=              -636.217145
 Sum of electronic and thermal Enthalpies=            -636.216201
 Sum of electronic and thermal Free Energies=         -636.279661

                     E (Thermal)             CV                S
                      KCal/Mol        Cal/Mol-Kelvin    Cal/Mol-Kelvin
 Total                  240.983             65.138            133.562
 Electronic               0.000              0.000              0.000
 Translational            0.889              2.981             41.947
 Rotational               0.889              2.981             32.754
 Vibrational            239.206             59.177             58.862
 Vibration     1          0.593              1.984              6.054
 Vibration     2          0.594              1.981              5.194
 Vibration     3          0.596              1.975              4.603
 Vibration     4          0.598              1.968              4.145
 Vibration     5          0.606              1.944              3.328
 Vibration     6          0.612              1.924              2.950
 Vibration     7          0.618              1.902              2.660
 Vibration     8          0.622              1.891              2.542
 Vibration     9          0.628              1.872              2.374
 Vibration    10          0.645              1.817              1.993
 Vibration    11          0.650              1.801              1.910
 Vibration    12          0.656              1.784              1.827
 Vibration    13          0.667              1.751              1.682
 Vibration    14          0.671              1.738              1.634
 Vibration    15          0.686              1.693              1.475
 Vibration    16          0.697              1.661              1.380
 Vibration    17          0.720              1.595              1.211
 Vibration    18          0.728              1.572              1.159
 Vibration    19          0.735              1.555              1.122
 Vibration    20          0.753              1.505              1.025
 Vibration    21          0.770              1.460              0.945
 Vibration    22          0.795              1.396              0.845
 Vibration    23          0.803              1.376              0.817
 Vibration    24          0.842              1.281              0.694
 Vibration    25          0.850              1.263              0.673
 Vibration    26          0.923              1.103              0.510
 Vibration    27          0.948              1.052              0.466

                           ! Non-Optimized Parameters !
 Normal termination of Gaussian 16 at Sun Dec 13 12:46:32 2020.

 ----------------------------------------------------------------------
 # B3LYP/6-311++G(d,p) empiricaldispersion=gd3bj scf=xqc pop=npa geom=c
 heck
 ----------------------------------------------------------------------

 ---------------------------------------
 CID_150317175_JID_5809_Energie_neutraal
 ---------------------------------------
 Structure from the checkpoint file:  "JID_5809.chk"
 Charge =  0 Multiplicity = 1

 SCF Done:  E(RB3LYP) =  -636.777703720     A.U. after   15 cycles
 Normal termination of Gaussian 16 at Sun Dec 13 12:54:55 2020.

 ----------------------------------------------------------------------
 # B3LYP/6-311++G(d,p) empiricaldispersion=gd3bj scf=xqc pop=npa geom=c
 heck
 ----------------------------------------------------------------------

 -------------------------------------
 CID_150317175_JID_5809_Energie_kation
 -------------------------------------
 Structure from the checkpoint file:  "JID_5809.chk"
 Charge =  1 Multiplicity = 2

 SCF Done:  E(UB3LYP) =  -636.447471623     A.U. after   26 cycles
 Normal termination of Gaussian 16 at Sun Dec 13 13:15:07 2020.
 Gaussian 16:  ES64L-G16RevA.03 25-Dec-2016

 ----------------------------------------------------------------------
 # B3LYP/6-311++G(d,p) empiricaldispersion=gd3bj scf=xqc pop=npa geom=c
 heck
 ----------------------------------------------------------------------

 ------------------------------------
 CID_150317175_JID_5809_Energie_anion
 ------------------------------------
 Structure from the checkpoint file:  "JID_5809.chk"
 Charge = -1 Multiplicity = 2

                         Standard orientation:
 ---------------------------------------------------------------------
 Center     Atomic      Atomic             Coordinates (Angstroms)
 Number     Number       Type             X           Y           Z
 ---------------------------------------------------------------------
      1          6           0       -3.067949    2.147990   -1.166992
      2          6           0       -2.425909    1.534228    0.081917
      3          6           0       -1.563300    0.290055   -0.214494
      4          6           0       -0.449177    0.603475   -1.249907
      5          6           0        0.400943    1.870294   -1.031814
      6          6           0        1.331425    1.900524    0.190554
      7          6           0        2.383834    0.779303    0.268043
      8          6           0        3.336255    0.801625   -0.933917
      9          6           0        3.166969    0.883512    1.582577
     10          6           0       -1.038592   -0.432453    1.067690
     11          6           0       -1.961847   -0.292270    2.289737
     12          6           0       -0.834541   -1.937628    0.840214
     13          7           0        0.267408   -2.214950   -0.112758
     14          7           0        0.201688   -3.288729   -0.713203
     15          7           0        0.245509   -4.248925   -1.332703
     16          1           0       -2.326434    2.553503   -1.861789
     17          1           0       -3.745101    2.964498   -0.892763
     18          1           0       -3.654941    1.397547   -1.711202
     19          1           0       -1.827022    2.294069    0.601719
     20          1           0       -3.231170    1.260119    0.770711
     21          1           0       -2.239086   -0.430228   -0.705108
     22          1           0        0.206757   -0.265671   -1.338024
     23          1           0       -0.933139    0.709018   -2.228927
     24          1           0        1.006657    2.011725   -1.936047
     25          1           0       -0.252095    2.750160   -0.982986
     26          1           0        1.860023    2.865635    0.192946
     27          1           0        0.732515    1.894503    1.111162
     28          1           0        1.869538   -0.189944    0.261533
     29          1           0        3.853323    1.767786   -1.006203
     30          1           0        4.099745    0.020756   -0.840634
     31          1           0        2.807046    0.633522   -1.877688
     32          1           0        2.498084    0.827805    2.450363
     33          1           0        3.902510    0.075773    1.672945
     34          1           0        3.708691    1.836641    1.642230
     35          1           0       -0.067536   -0.013796    1.345623
     36          1           0       -2.966869   -0.682532    2.085725
     37          1           0       -1.556330   -0.849227    3.142069
     38          1           0       -2.064660    0.750491    2.598925
     39          1           0       -0.581465   -2.417630    1.794740
     40          1           0       -1.769949   -2.388226    0.479677
 ---------------------------------------------------------------------

 SCF Done:  E(UB3LYP) =  -636.768031820     A.U. after   31 cycles

 The electronic state is 2-A.
 Alpha  occ. eigenvalues --  -14.34853 -14.25000 -14.23825 -10.10467 -10.07424
 Alpha  occ. eigenvalues --  -10.07118 -10.07058 -10.06433 -10.06409 -10.06299
 Alpha  occ. eigenvalues --  -10.06287 -10.06177 -10.06161 -10.05686 -10.05581
 Alpha  occ. eigenvalues --   -1.01572  -0.85899  -0.73213  -0.71202  -0.67812
 Alpha  occ. eigenvalues --   -0.65240  -0.60468  -0.60161  -0.58928  -0.55561
 Alpha  occ. eigenvalues --   -0.51353  -0.49284  -0.46211  -0.43898  -0.42981
 Alpha  occ. eigenvalues --   -0.39954  -0.39489  -0.38037  -0.37067  -0.35369
 Alpha  occ. eigenvalues --   -0.34405  -0.33772  -0.33319  -0.32953  -0.31864
 Alpha  occ. eigenvalues --   -0.31329  -0.30156  -0.29360  -0.28924  -0.28327
 Alpha  occ. eigenvalues --   -0.27417  -0.26634  -0.26502  -0.25639  -0.24812
 Alpha  occ. eigenvalues --   -0.24541  -0.23159  -0.22682  -0.22197  -0.20750
 Alpha  occ. eigenvalues --   -0.20239  -0.19989  -0.18480  -0.13606   0.04379
 Alpha virt. eigenvalues --    0.06365   0.06705   0.07006   0.08061   0.08577
 Alpha virt. eigenvalues --    0.08791   0.09128   0.09670   0.10257   0.10866
 Alpha virt. eigenvalues --    0.11179   0.11550   0.11689   0.12158   0.12358

  Beta  occ. eigenvalues --  -14.34634 -14.24704 -14.23872 -10.10389 -10.07415
  Beta  occ. eigenvalues --  -10.07111 -10.07051 -10.06426 -10.06401 -10.06288
  Beta  occ. eigenvalues --  -10.06271 -10.06161 -10.06140 -10.05647 -10.05576
  Beta  occ. eigenvalues --   -1.01145  -0.85688  -0.73181  -0.71177  -0.67757
  Beta  occ. eigenvalues --   -0.65215  -0.60348  -0.60095  -0.58899  -0.55521
  Beta  occ. eigenvalues --   -0.51288  -0.49205  -0.46159  -0.43831  -0.42888
  Beta  occ. eigenvalues --   -0.39840  -0.38781  -0.37836  -0.37027  -0.35272
  Beta  occ. eigenvalues --   -0.34354  -0.33644  -0.33063  -0.32566  -0.31766
  Beta  occ. eigenvalues --   -0.31280  -0.30049  -0.29344  -0.28908  -0.28303
  Beta  occ. eigenvalues --   -0.27360  -0.26589  -0.26463  -0.25603  -0.24772
  Beta  occ. eigenvalues --   -0.24483  -0.23131  -0.22589  -0.22164  -0.20703
  Beta  occ. eigenvalues --   -0.20205  -0.19966  -0.18068  -0.13528
  Beta virt. eigenvalues --    0.06359   0.07038   0.07461   0.07957   0.08747
  Beta virt. eigenvalues --    0.09075   0.09106   0.09595   0.09993   0.10437
  Beta virt. eigenvalues --    0.11030   0.11327   0.11740   0.11939   0.12309

 Mulliken charges and spin densities:
               1          2
     1  C    0.591685  -1.266602
     2  C   -1.100823   0.787818
     3  C    0.738570  -0.389618
     4  C   -0.303987  -0.129349
     5  C   -0.210011  -0.357960
     6  C    0.179280  -0.330416
     7  C   -0.458563   0.608776
     8  C   -0.383731  -0.310689
     9  C   -0.059014  -0.538269
    10  C   -1.406440   1.739390
    11  C    1.596268  -2.262620
    12  C   -0.319063  -0.617917
    13  N   -0.382808   0.059629
    14  N    0.708900   0.178283
    15  N   -0.389514   0.097620
    16  H   -0.003623   0.130627
    17  H   -0.279422   0.420461
    18  H   -0.085994   0.225865
    19  H   -0.000631   0.153930
    20  H   -0.022261   0.171675
    21  H    0.099677   0.098015
    22  H    0.084769   0.083826
    23  H    0.088529   0.093297
    24  H    0.108552   0.034037
    25  H    0.092248   0.062341
    26  H    0.006544   0.155637
    27  H    0.041037   0.121409
    28  H    0.069978   0.192552
    29  H    0.058842   0.075055
    30  H    0.025889   0.108956
    31  H    0.056493   0.082265
    32  H   -0.275245   0.419952
    33  H    0.037579   0.096658
    34  H    0.044080   0.079302
    35  H    1.127720  -0.961402
    36  H   -0.219375   0.378406
    37  H   -0.264290   0.400845
    38  H   -0.413836   0.577544
    39  H   -0.156417   0.354318
    40  H   -0.021595   0.176355
 Sum of Mulliken charges =  -1.00000   1.00000

 Dipole moment (field-independent basis, Debye):
    X=              2.7463    Y=              2.0606    Z=             -2.3727  Tot=              4.1735
 Quadrupole moment (field-independent basis, Debye-Ang):
   XX=           -152.6793   YY=           -155.2649   ZZ=           -141.9493
   XY=              7.7533   XZ=              4.3848   YZ=             -5.4240

 Summary of Natural Population Analysis:

                                       Natural Population
                Natural  -----------------------------------------------
    Atom  No    Charge         Core      Valence    Rydberg      Total
 -----------------------------------------------------------------------
      C    1   -0.28516      0.99966     2.28015    0.00535     3.28516
      C    2   -0.19337      0.99962     2.18516    0.00859     3.19337
      C    3   -0.10410      0.99958     2.09266    0.01187     3.10410
      C    4   -0.19733      0.99960     2.18914    0.00859     3.19733
      C    5   -0.19116      0.99962     2.18317    0.00836     3.19116
      C    6   -0.18792      0.99961     2.17971    0.00860     3.18792
      C    7   -0.13218      0.99961     2.12284    0.00973     3.13218
      C    8   -0.28287      0.99965     2.27836    0.00486     3.28287
      C    9   -0.27995      0.99965     2.27551    0.00479     3.27995
      C   10   -0.12005      0.99957     2.10957    0.01091     3.12005
      C   11   -0.28567      0.99965     2.27960    0.00642     3.28567
      C   12   -0.08075      0.99955     2.06963    0.01157     3.08075
      N   13   -0.20602      0.99969     2.69257    0.01376     3.70602
      N   14    0.13607      0.99970     2.34909    0.01514     3.36393
      N   15   -0.02947      0.99982     2.51599    0.01366     3.52947
      H   16    0.09511      0.00000     0.40397    0.00092     0.40489
      H   17    0.09869      0.00000     0.40051    0.00081     0.40131
      H   18    0.09559      0.00000     0.40351    0.00090     0.40441
      H   19    0.09429      0.00000     0.40446    0.00125     0.40571
      H   20    0.10096      0.00000     0.39771    0.00133     0.39904
      H   21    0.09303      0.00000     0.40525    0.00172     0.40697
      H   22    0.11239      0.00000     0.38607    0.00154     0.38761
      H   23    0.09598      0.00000     0.40309    0.00093     0.40402
      H   24    0.09465      0.00000     0.40430    0.00106     0.40535
      H   25    0.09545      0.00000     0.40343    0.00112     0.40455
      H   26    0.09316      0.00000     0.40586    0.00098     0.40684
      H   27    0.09652      0.00000     0.40200    0.00148     0.40348
      H   28    0.10823      0.00000     0.38916    0.00261     0.39177
      H   29    0.09223      0.00000     0.40691    0.00086     0.40777
      H   30    0.09810      0.00000     0.40113    0.00077     0.40190
      H   31    0.09974      0.00000     0.39945    0.00081     0.40026
      H   32    0.10016      0.00000     0.39878    0.00105     0.39984
      H   33    0.09725      0.00000     0.40190    0.00085     0.40275
      H   34    0.09237      0.00000     0.40670    0.00093     0.40763
      H   35    0.09996      0.00000     0.39644    0.00360     0.40004
      H   36    0.09809      0.00000     0.40062    0.00128     0.40191
      H   37    0.10118      0.00000     0.39763    0.00118     0.39882
      H   38    0.10361      0.00000     0.39501    0.00138     0.39639
      H   39    0.09390      0.00000     0.40486    0.00124     0.40610
      H   40    0.08929      0.00000     0.40923    0.00148     0.41071
 =======================================================================
   * Total *    0.00000     14.99459    43.83114    0.17427    59.00000

 Normal termination of Gaussian 16 at Sun Dec 13 13:39:41 2020.
