 Gaussian 16, Revision A.03,

 -----------------------------------------------------------
 # opt freq B3LYP/6-31G(d) empiricaldispersion=gd3bj scf=xqc
 -----------------------------------------------------------

 -------------------------------
 CID_131260869_JID_6964_neutraal
 -------------------------------
 Symbolic Z-matrix:
 Charge =  0 Multiplicity = 1

 SCF Done:  E(RB3LYP) =  -781.497854858     A.U. after   15 cycles
 SCF Done:  E(RB3LYP) =  -781.502469708     A.U. after   13 cycles
 SCF Done:  E(RB3LYP) =  -781.502269377     A.U. after   13 cycles
 SCF Done:  E(RB3LYP) =  -781.503879874     A.U. after   13 cycles
 SCF Done:  E(RB3LYP) =  -781.503731735     A.U. after   13 cycles
 SCF Done:  E(RB3LYP) =  -781.504328247     A.U. after   12 cycles
 SCF Done:  E(RB3LYP) =  -781.504404933     A.U. after   13 cycles
 SCF Done:  E(RB3LYP) =  -781.504532593     A.U. after   12 cycles
 SCF Done:  E(RB3LYP) =  -781.504526993     A.U. after   11 cycles
 SCF Done:  E(RB3LYP) =  -781.504562633     A.U. after   10 cycles
 SCF Done:  E(RB3LYP) =  -781.504567634     A.U. after    9 cycles
 SCF Done:  E(RB3LYP) =  -781.504568618     A.U. after    8 cycles
 SCF Done:  E(RB3LYP) =  -781.504568877     A.U. after    8 cycles
 SCF Done:  E(RB3LYP) =  -781.504568954     A.U. after    8 cycles
 Optimization completed.
    -- Stationary point found.
 Normal termination of Gaussian 16 at Fri Dec 11 01:14:56 2020.

 --------------------------------------------------------------------
 #N Geom=AllCheck Guess=TCheck SCRF=Check GenChk RB3LYP/6-31G(d) Freq
 --------------------------------------------------------------------

 Structure from the checkpoint file:  "JID_6964.chk"
 -------------------------------
 CID_131260869_JID_6964_neutraal
 -------------------------------
 Charge =  0 Multiplicity = 1

 SCF Done:  E(RB3LYP) =  -781.504568954     A.U. after    1 cycles

  Exact polarizability: 218.331  -3.778 128.768   5.644  -6.226  70.284
 Approx polarizability: 297.302 -18.479 231.840  14.934 -18.111 117.090

                      1                      2                      3
                      A                      A                      A
 Frequencies --     34.4526                36.1401                55.8393
 Red. masses --      5.8405                 9.1025                 5.3137
 Frc consts  --      0.0041                 0.0070                 0.0098
 IR Inten    --      6.7412                 1.3835                 0.9036

                      4                      5                      6
                      A                      A                      A
 Frequencies --     67.5322                84.9430               118.1307
 Red. masses --      4.3561                 3.9558                 5.7302
 Frc consts  --      0.0117                 0.0168                 0.0471
 IR Inten    --      2.2543                 2.3525                 0.2653

                      7                      8                      9
                      A                      A                      A
 Frequencies --    167.7544               191.8061               204.3395
 Red. masses --      3.4271                 2.0597                 1.9486
 Frc consts  --      0.0568                 0.0446                 0.0479
 IR Inten    --      3.6191                 2.2066                 1.2596

                     10                     11                     12
                      A                      A                      A
 Frequencies --    226.0139               243.6711               270.0966
 Red. masses --      1.2076                 5.4605                 6.5805
 Frc consts  --      0.0363                 0.1910                 0.2828
 IR Inten    --      0.8409                 0.1724                 9.2781

                     13                     14                     15
                      A                      A                      A
 Frequencies --    329.1263               370.2195               377.3042
 Red. masses --      5.1575                 4.8714                 5.5611
 Frc consts  --      0.3292                 0.3934                 0.4664
 IR Inten    --      3.1149                 3.0167                 1.8958

                     16                     17                     18
                      A                      A                      A
 Frequencies --    403.0872               419.7484               427.1212
 Red. masses --      4.9491                 3.2261                 3.0294
 Frc consts  --      0.4738                 0.3349                 0.3256
 IR Inten    --      3.1586                 5.5425                 2.9816

                     19                     20                     21
                      A                      A                      A
 Frequencies --    482.1565               522.0162               594.8182
 Red. masses --      3.9171                 3.1990                 3.0598
 Frc consts  --      0.5365                 0.5136                 0.6379
 IR Inten    --      7.2982                 4.9375                 2.6898

                     22                     23                     24
                      A                      A                      A
 Frequencies --    597.4659               609.3850               627.5426
 Red. masses --      3.4324                 3.2855                 3.4809
 Frc consts  --      0.7219                 0.7188                 0.8077
 IR Inten    --      8.0343                28.4636                34.1841

                     25                     26                     27
                      A                      A                      A
 Frequencies --    655.1530               671.5272               703.6395
 Red. masses --      4.6150                 2.5916                 3.1415
 Frc consts  --      1.1671                 0.6886                 0.9164
 IR Inten    --      5.6487               164.4044                71.5011

                     28                     29                     30
                      A                      A                      A
 Frequencies --    741.5934               771.6504               816.9002
 Red. masses --      4.2350                 5.1642                 4.0106
 Frc consts  --      1.3723                 1.8117                 1.5769
 IR Inten    --     17.3835                 4.4627                13.3758

                     31                     32                     33
                      A                      A                      A
 Frequencies --    841.3828               870.4310               894.3962
 Red. masses --      1.2668                 2.2017                 3.6160
 Frc consts  --      0.5284                 0.9828                 1.7043
 IR Inten    --      0.3932                21.9760                11.8511

                     34                     35                     36
                      A                      A                      A
 Frequencies --    978.0850               985.5693               989.9938
 Red. masses --      1.3304                 2.4355                 2.1182
 Frc consts  --      0.7499                 1.3938                 1.2232
 IR Inten    --      0.5850                65.0544                32.3835

                     37                     38                     39
                      A                      A                      A
 Frequencies --   1021.1421              1042.6740              1061.6146
 Red. masses --      1.5821                 2.5356                 1.7331
 Frc consts  --      0.9720                 1.6242                 1.1508
 IR Inten    --     79.2540                 2.4292                 8.8658

                     40                     41                     42
                      A                      A                      A
 Frequencies --   1141.2718              1154.2387              1157.6387
 Red. masses --      1.9413                 1.7274                 1.4615
 Frc consts  --      1.4898                 1.3559                 1.1540
 IR Inten    --     80.5553                36.1737                68.8457

                     43                     44                     45
                      A                      A                      A
 Frequencies --   1179.9746              1186.8306              1231.1145
 Red. masses --      2.1197                 2.1305                 1.2218
 Frc consts  --      1.7389                 1.7681                 1.0911
 IR Inten    --    282.5508               231.7651                15.3523

                     46                     47                     48
                      A                      A                      A
 Frequencies --   1290.5676              1292.2785              1355.1525
 Red. masses --      2.8448                 3.4261                 1.5113
 Frc consts  --      2.7917                 3.3710                 1.6352
 IR Inten    --     59.2090                79.7712                80.5665

                     49                     50                     51
                      A                      A                      A
 Frequencies --   1363.9106              1381.0906              1410.1058
 Red. masses --      4.9971                 3.4508                 3.4211
 Frc consts  --      5.4769                 3.8780                 4.0079
 IR Inten    --    108.1695               214.8158                13.7255

                     52                     53                     54
                      A                      A                      A
 Frequencies --   1423.0182              1470.9632              1488.4632
 Red. masses --      1.4027                 2.9528                 1.1374
 Frc consts  --      1.6735                 3.7643                 1.4847
 IR Inten    --    109.2198                39.8742                15.8643

                     55                     56                     57
                      A                      A                      A
 Frequencies --   1502.3363              1517.7199              1535.6400
 Red. masses --      1.0939                 1.0616                 1.0448
 Frc consts  --      1.4547                 1.4408                 1.4517
 IR Inten    --     13.1589                21.9392                 9.4760

                     58                     59                     60
                      A                      A                      A
 Frequencies --   1547.5937              1560.2645              1616.1210
 Red. masses --      1.0633                 2.4298                 6.7227
 Frc consts  --      1.5005                 3.4851                10.3453
 IR Inten    --     39.9081                44.1893                17.4326

                     61                     62                     63
                      A                      A                      A
 Frequencies --   1661.4293              1762.2722              1785.8786
 Red. masses --      5.6180                12.6183                10.5783
 Frc consts  --      9.1369                23.0885                19.8778
 IR Inten    --    246.3675               226.2273               200.6511

                     64                     65                     66
                      A                      A                      A
 Frequencies --   1825.7412              3044.6507              3060.5495
 Red. masses --     10.5176                 1.0509                 1.0400
 Frc consts  --     20.6559                 5.7397                 5.7395
 IR Inten    --    219.1259                40.3616                 6.8142

                     67                     68                     69
                      A                      A                      A
 Frequencies --   3122.3647              3138.9704              3178.8190
 Red. masses --      1.1004                 1.0867                 1.1023
 Frc consts  --      6.3206                 6.3089                 6.5625
 IR Inten    --     10.3332                15.4935                16.6494

                     70                     71                     72
                      A                      A                      A
 Frequencies --   3183.0934              3215.5445              3230.7339
 Red. masses --      1.1005                 1.0874                 1.0939
 Frc consts  --      6.5697                 6.6246                 6.7272
 IR Inten    --      4.4107                 5.0055                 6.8066

                     73                     74                     75
                      A                      A                      A
 Frequencies --   3247.6562              3281.8244              3673.6747
 Red. masses --      1.0900                 1.0927                 1.0639
 Frc consts  --      6.7738                 6.9342                 8.4599
 IR Inten    --      0.3738                 0.3367                62.8773

 - Thermochemistry -
 -------------------
 Temperature   298.150 Kelvin.  Pressure   1.00000 Atm.
 Atom     1 has atomic number  6 and mass  12.00000

 Molecular mass:   221.06881 amu.
 Principal axes and moments of inertia in atomic units:
                           1         2         3
     Eigenvalues --  1252.496987799.419468678.95952
           X            0.99995   0.00924   0.00340
           Y           -0.00925   0.99994   0.00504
           Z           -0.00336  -0.00507   0.99998
 This molecule is an asymmetric top.
 Rotational symmetry number  1.
 Warning -- assumption of classical behavior for rotation
           may cause significant error
 Rotational temperatures (Kelvin)      0.06915     0.01111     0.00998
 Rotational constants (GHZ):           1.44091     0.23139     0.20794
 Zero-point vibrational energy     548643.1 (Joules/Mol)
                                  131.12884 (Kcal/Mol)
 Warning -- explicit consideration of  23 degrees of freedom as
           vibrations may cause significant error
 Vibrational temperatures:     49.57    52.00    80.34    97.16   122.21
          (Kelvin)            169.96   241.36   275.97   294.00   325.18
                              350.59   388.61   473.54   532.66   542.86
                              579.95   603.92   614.53   693.72   751.06
                              855.81   859.62   876.77   902.89   942.62
                              966.18  1012.38  1066.99  1110.23  1175.34
                             1210.56  1252.36  1286.84  1407.25  1418.01
                             1424.38  1469.20  1500.18  1527.43  1642.04
                             1660.69  1665.58  1697.72  1707.58  1771.30
                             1856.84  1859.30  1949.76  1962.36  1987.08
                             2028.83  2047.41  2116.39  2141.57  2161.53
                             2183.66  2209.44  2226.64  2244.87  2325.24
                             2390.43  2535.52  2569.48  2626.83  4380.57
                             4403.45  4492.39  4516.28  4573.61  4579.76
                             4626.45  4648.31  4672.65  4721.81  5285.60

 Zero-point correction=                           0.208967 (Hartree/Particle)
 Thermal correction to Energy=                    0.224078
 Thermal correction to Enthalpy=                  0.225022
 Thermal correction to Gibbs Free Energy=         0.165118
 Sum of electronic and zero-point Energies=           -781.295602
 Sum of electronic and thermal Energies=              -781.280491
 Sum of electronic and thermal Enthalpies=            -781.279547
 Sum of electronic and thermal Free Energies=         -781.339451

                     E (Thermal)             CV                S
                      KCal/Mol        Cal/Mol-Kelvin    Cal/Mol-Kelvin
 Total                  140.611             55.543            126.078
 Electronic               0.000              0.000              0.000
 Translational            0.889              2.981             42.083
 Rotational               0.889              2.981             32.805
 Vibrational            138.833             49.582             51.190
 Vibration     1          0.594              1.983              5.555
 Vibration     2          0.594              1.982              5.460
 Vibration     3          0.596              1.975              4.599
 Vibration     4          0.598              1.970              4.224
 Vibration     5          0.601              1.960              3.773
 Vibration     6          0.608              1.934              3.131
 Vibration     7          0.624              1.882              2.460
 Vibration     8          0.634              1.851              2.210
 Vibration     9          0.640              1.834              2.094
 Vibration    10          0.650              1.801              1.910
 Vibration    11          0.659              1.773              1.776
 Vibration    12          0.674              1.728              1.596
 Vibration    13          0.712              1.617              1.264
 Vibration    14          0.742              1.533              1.079
 Vibration    15          0.748              1.518              1.050
 Vibration    16          0.768              1.463              0.951
 Vibration    17          0.782              1.427              0.893
 Vibration    18          0.789              1.411              0.868
 Vibration    19          0.838              1.290              0.704
 Vibration    20          0.877              1.201              0.605
 Vibration    21          0.953              1.043              0.459
 Vibration    22          0.955              1.037              0.454
 Vibration    23          0.968              1.012              0.434

                           ! Non-Optimized Parameters !
 Normal termination of Gaussian 16 at Fri Dec 11 01:21:56 2020.

 ----------------------------------------------------------------------
 # B3LYP/6-311++G(d,p) empiricaldispersion=gd3bj scf=xqc pop=npa geom=c
 heck
 ----------------------------------------------------------------------

 ---------------------------------------
 CID_131260869_JID_6964_Energie_neutraal
 ---------------------------------------
 Structure from the checkpoint file:  "JID_6964.chk"
 Charge =  0 Multiplicity = 1

 SCF Done:  E(RB3LYP) =  -781.733845206     A.U. after   15 cycles
 Normal termination of Gaussian 16 at Fri Dec 11 01:24:35 2020.

 ----------------------------------------------------------------------
 # B3LYP/6-311++G(d,p) empiricaldispersion=gd3bj scf=xqc pop=npa geom=c
 heck
 ----------------------------------------------------------------------

 -------------------------------------
 CID_131260869_JID_6964_Energie_kation
 -------------------------------------
 Structure from the checkpoint file:  "JID_6964.chk"
 Charge =  1 Multiplicity = 2

 SCF Done:  E(UB3LYP) =  -781.424632418     A.U. after   29 cycles
 Normal termination of Gaussian 16 at Fri Dec 11 01:31:24 2020.
 Gaussian 16:  ES64L-G16RevA.03 25-Dec-2016

 ----------------------------------------------------------------------
 # B3LYP/6-311++G(d,p) empiricaldispersion=gd3bj scf=xqc pop=npa geom=c
 heck
 ----------------------------------------------------------------------

 ------------------------------------
 CID_131260869_JID_6964_Energie_anion
 ------------------------------------
 Structure from the checkpoint file:  "JID_6964.chk"
 Charge = -1 Multiplicity = 2

                         Standard orientation:
 ---------------------------------------------------------------------
 Center     Atomic      Atomic             Coordinates (Angstroms)
 Number     Number       Type             X           Y           Z
 ---------------------------------------------------------------------
      1          6           0        5.033518   -0.680814   -0.230097
      2          6           0        3.518306   -0.805739   -0.281160
      3          8           0        2.989372   -1.810982   -0.727155
      4          7           0        2.783250    0.279142    0.201842
      5          6           0        3.454791    1.503061    0.643895
      6          6           0        1.367334    0.305688    0.112166
      7          6           0        0.716723    1.523367   -0.160681
      8          6           0       -0.665828    1.585308   -0.216275
      9          6           0       -1.444895    0.438086    0.001237
     10          6           0       -0.793117   -0.776987    0.271188
     11          6           0        0.592363   -0.846245    0.326445
     12          6           0       -2.910647    0.582335   -0.106871
     13          8           0       -3.466923    1.638901   -0.359310
     14          6           0       -3.797216   -0.648916    0.152804
     15          8           0       -3.618831   -1.454811    1.040515
     16          8           0       -4.838912   -0.687328   -0.694771
     17          1           0        5.441720   -1.564993   -0.719611
     18          1           0        5.399883   -0.649658    0.802577
     19          1           0        5.397207    0.216446   -0.741573
     20          1           0        3.683279    2.182938   -0.187121
     21          1           0        2.809991    2.022857    1.354179
     22          1           0        4.384286    1.257086    1.155941
     23          1           0        1.294820    2.420094   -0.352653
     24          1           0       -1.169812    2.519505   -0.439077
     25          1           0       -1.372639   -1.670652    0.464524
     26          1           0        1.077709   -1.788019    0.532735
     27          1           0       -5.374833   -1.460698   -0.432942
 ---------------------------------------------------------------------

 SCF Done:  E(UB3LYP) =  -781.768264852     A.U. after   25 cycles

 The electronic state is 2-A.
 Alpha  occ. eigenvalues --  -19.03455 -18.98319 -18.96879 -18.92194 -14.24773
 Alpha  occ. eigenvalues --  -10.17025 -10.14800 -10.11838 -10.09112 -10.07598
 Alpha  occ. eigenvalues --  -10.06864 -10.04367 -10.03280 -10.02840 -10.02825
 Alpha  occ. eigenvalues --  -10.02632  -0.97315  -0.93803  -0.88075  -0.86463
 Alpha  occ. eigenvalues --   -0.83994  -0.71710  -0.65972  -0.62994  -0.61535
 Alpha  occ. eigenvalues --   -0.59751  -0.54251  -0.50764  -0.47483  -0.44434
 Alpha  occ. eigenvalues --   -0.42102  -0.39809  -0.39098  -0.38076  -0.36091
 Alpha  occ. eigenvalues --   -0.34999  -0.33887  -0.33016  -0.32108  -0.31562
 Alpha  occ. eigenvalues --   -0.31129  -0.30317  -0.29345  -0.28861  -0.28248
 Alpha  occ. eigenvalues --   -0.27271  -0.25356  -0.24921  -0.23575  -0.22059
 Alpha  occ. eigenvalues --   -0.21033  -0.19040  -0.16847  -0.16033  -0.15458
 Alpha  occ. eigenvalues --   -0.12275  -0.10070  -0.08305   0.02642
 Alpha virt. eigenvalues --    0.05713   0.08094   0.08861   0.09369   0.09687
 Alpha virt. eigenvalues --    0.10314   0.11311   0.11844   0.12454   0.12791
 Alpha virt. eigenvalues --    0.12881   0.13427   0.13923   0.14956   0.15797

  Beta  occ. eigenvalues --  -19.03412 -18.98246 -18.96697 -18.91475 -14.24820
  Beta  occ. eigenvalues --  -10.16942 -10.14701 -10.11829 -10.09117 -10.07317
  Beta  occ. eigenvalues --  -10.06539 -10.04452 -10.03323 -10.02720 -10.02668
  Beta  occ. eigenvalues --  -10.02608  -0.97134  -0.93666  -0.87803  -0.85197
  Beta  occ. eigenvalues --   -0.83911  -0.71488  -0.65846  -0.62842  -0.61315
  Beta  occ. eigenvalues --   -0.59527  -0.53543  -0.50551  -0.47359  -0.44055
  Beta  occ. eigenvalues --   -0.41833  -0.39695  -0.39008  -0.37972  -0.35853
  Beta  occ. eigenvalues --   -0.34756  -0.33819  -0.32894  -0.31867  -0.31416
  Beta  occ. eigenvalues --   -0.30692  -0.30212  -0.29110  -0.28754  -0.27892
  Beta  occ. eigenvalues --   -0.26973  -0.25002  -0.23843  -0.23162  -0.21065
  Beta  occ. eigenvalues --   -0.19839  -0.18288  -0.15928  -0.15657  -0.15357
  Beta  occ. eigenvalues --   -0.11716  -0.08882  -0.07674
  Beta virt. eigenvalues --    0.05671   0.08054   0.08609   0.09049   0.09381
  Beta virt. eigenvalues --    0.10043   0.10754   0.11553   0.12017   0.12628
  Beta virt. eigenvalues --    0.12874   0.13080   0.13628   0.14790   0.14982

 Mulliken charges and spin densities:
               1          2
     1  C   -0.596977  -0.026826
     2  C    0.167076   0.058851
     3  O   -0.325846   0.026568
     4  N    0.178175  -0.024555
     5  C   -0.412350  -0.006443
     6  C   -0.685840   0.187646
     7  C   -0.060829  -0.056348
     8  C    0.113719   0.166052
     9  C    1.777687  -0.007280
    10  C   -1.091724   0.087803
    11  C   -0.309317  -0.027360
    12  C   -0.723124   0.170435
    13  O   -0.368101   0.261555
    14  C    0.040411   0.108565
    15  O   -0.341161   0.060086
    16  O   -0.128429  -0.000161
    17  H    0.171722   0.000236
    18  H    0.140527   0.013706
    19  H    0.146940   0.001223
    20  H    0.165886  -0.001079
    21  H    0.158063   0.003255
    22  H    0.112872   0.013793
    23  H    0.123582   0.003888
    24  H    0.167840  -0.012483
    25  H    0.148791  -0.004317
    26  H    0.200212   0.001813
    27  H    0.230195   0.001375
 Sum of Mulliken charges =  -1.00000   1.00000

 Dipole moment (field-independent basis, Debye):
    X=              9.3600    Y=              0.6495    Z=              0.9407  Tot=              9.4296
 Quadrupole moment (field-independent basis, Debye-Ang):
   XX=           -133.8587   YY=           -110.6596   ZZ=           -104.4901
   XY=             20.9348   XZ=              4.8990   YZ=              2.0052

 Summary of Natural Population Analysis:

                                       Natural Population
                Natural  -----------------------------------------------
    Atom  No    Charge         Core      Valence    Rydberg      Total
 -----------------------------------------------------------------------
      C    1   -0.33272      0.99964     2.32907    0.00402     3.33272
      C    2    0.35343      0.99970     1.62584    0.02104     2.64657
      O    3   -0.30787      0.99988     3.30113    0.00687     4.30787
      N    4   -0.25631      0.99962     2.74666    0.01004     3.75631
      C    5   -0.17701      0.99965     2.17113    0.00623     3.17701
      C    6    0.12566      0.99948     1.86486    0.00999     2.87434
      C    7   -0.14760      0.99954     2.14063    0.00742     3.14760
      C    8   -0.04594      0.99954     2.03691    0.00948     3.04594
      C    9   -0.06694      0.99948     2.05800    0.00945     3.06694
      C   10   -0.05616      0.99955     2.04883    0.00779     3.05616
      C   11   -0.12116      0.99954     2.11350    0.00812     3.12116
      C   12    0.25634      0.99958     1.72148    0.02261     2.74366
      O   13   -0.20934      0.99988     3.20334    0.00612     4.20934
      C   14    0.38889      0.99973     1.58428    0.02710     2.61111
      O   15   -0.30749      0.99987     3.30011    0.00751     4.30749
      O   16   -0.33753      0.99987     3.32970    0.00795     4.33753
      H   17    0.11130      0.00000     0.38763    0.00107     0.38870
      H   18    0.10382      0.00000     0.39530    0.00088     0.39618
      H   19    0.10269      0.00000     0.39644    0.00087     0.39731
      H   20    0.08805      0.00000     0.41073    0.00122     0.41195
      H   21    0.10516      0.00000     0.39368    0.00116     0.39484
      H   22    0.09486      0.00000     0.40419    0.00095     0.40514
      H   23    0.09244      0.00000     0.40651    0.00106     0.40756
      H   24    0.10503      0.00000     0.39303    0.00194     0.39497
      H   25    0.10650      0.00000     0.39240    0.00109     0.39350
      H   26    0.10814      0.00000     0.39087    0.00099     0.39186
      H   27    0.22378      0.00000     0.27037    0.00586     0.27622
 =======================================================================
   * Total *   -0.00000     15.99454    41.81662    0.18884    58.00000

 Normal termination of Gaussian 16 at Fri Dec 11 01:37:19 2020.
