 Gaussian 16, Revision A.03,

 -----------------------------------------------------------
 # opt freq B3LYP/6-31G(d) empiricaldispersion=gd3bj scf=xqc
 -----------------------------------------------------------

 -------------------------------
 CID_65196098_JID_10491_neutraal
 -------------------------------
 Symbolic Z-matrix:
 Charge =  0 Multiplicity = 1

 SCF Done:  E(RB3LYP) =  -927.400540316     A.U. after   15 cycles
 SCF Done:  E(RB3LYP) =  -927.406411120     A.U. after   13 cycles
 SCF Done:  E(RB3LYP) =  -927.407960105     A.U. after   12 cycles
 SCF Done:  E(RB3LYP) =  -927.409239344     A.U. after   15 cycles
 SCF Done:  E(RB3LYP) =  -927.409599141     A.U. after   12 cycles
 SCF Done:  E(RB3LYP) =  -927.409704578     A.U. after   12 cycles
 SCF Done:  E(RB3LYP) =  -927.409750312     A.U. after   11 cycles
 SCF Done:  E(RB3LYP) =  -927.409764710     A.U. after   10 cycles
 SCF Done:  E(RB3LYP) =  -927.409775951     A.U. after   12 cycles
 SCF Done:  E(RB3LYP) =  -927.409778646     A.U. after   10 cycles
 SCF Done:  E(RB3LYP) =  -927.409781211     A.U. after    9 cycles
 SCF Done:  E(RB3LYP) =  -927.409781387     A.U. after    8 cycles
 SCF Done:  E(RB3LYP) =  -927.409781476     A.U. after    7 cycles
 SCF Done:  E(RB3LYP) =  -927.409781502     A.U. after    7 cycles
 SCF Done:  E(RB3LYP) =  -927.409781506     A.U. after    6 cycles
 Optimization completed.
    -- Stationary point found.
 Normal termination of Gaussian 16 at Mon Dec 14 14:02:38 2020.

 --------------------------------------------------------------------
 #N Geom=AllCheck Guess=TCheck SCRF=Check GenChk RB3LYP/6-31G(d) Freq
 --------------------------------------------------------------------

 Structure from the checkpoint file:  "JID_10491.chk"
 -------------------------------
 CID_65196098_JID_10491_neutraal
 -------------------------------
 Charge =  0 Multiplicity = 1

 SCF Done:  E(RB3LYP) =  -927.409781506     A.U. after    1 cycles

  Exact polarizability: 185.245  -6.426 168.684 -26.483  -8.923 143.376
 Approx polarizability: 245.429 -14.380 283.867 -52.320 -32.282 252.823

                      1                      2                      3
                      A                      A                      A
 Frequencies --     11.0171                16.7057                21.8703
 Red. masses --      5.7101                 4.5763                 1.0999
 Frc consts  --      0.0004                 0.0008                 0.0003
 IR Inten    --      0.1664                 0.8148                 0.1070

                      4                      5                      6
                      A                      A                      A
 Frequencies --     35.9723                65.9752                76.3716
 Red. masses --      4.3092                 7.0311                 5.5243
 Frc consts  --      0.0033                 0.0180                 0.0190
 IR Inten    --      1.9504                 0.6347                 0.1330

                      7                      8                      9
                      A                      A                      A
 Frequencies --     93.0725               135.7292               138.1846
 Red. masses --      6.7810                 4.3719                 5.4836
 Frc consts  --      0.0346                 0.0475                 0.0617
 IR Inten    --      0.2166                 3.4478                 1.7793

                     10                     11                     12
                      A                      A                      A
 Frequencies --    205.2046               228.6778               256.1915
 Red. masses --      3.4907                 3.8572                 5.2607
 Frc consts  --      0.0866                 0.1188                 0.2034
 IR Inten    --      0.9353                 5.3365                 2.8550

                     13                     14                     15
                      A                      A                      A
 Frequencies --    285.4610               296.7857               337.5589
 Red. masses --      3.0512                 1.0731                 4.8546
 Frc consts  --      0.1465                 0.0557                 0.3259
 IR Inten    --      1.7110                19.8165                 1.7967

                     16                     17                     18
                      A                      A                      A
 Frequencies --    342.2777               359.5917               383.1053
 Red. masses --      4.8188                 4.0513                 4.9448
 Frc consts  --      0.3326                 0.3087                 0.4276
 IR Inten    --      0.8237                 6.0905                 2.9632

                     19                     20                     21
                      A                      A                      A
 Frequencies --    441.5834               473.3326               481.7578
 Red. masses --      4.2817                 3.2432                 4.6026
 Frc consts  --      0.4919                 0.4281                 0.6294
 IR Inten    --      0.4519                12.4895                10.9423

                     22                     23                     24
                      A                      A                      A
 Frequencies --    519.9555               530.5348               541.5129
 Red. masses --      5.5142                 5.7557                 6.3965
 Frc consts  --      0.8784                 0.9545                 1.1051
 IR Inten    --      0.6739                 3.1967                12.3600

                     25                     26                     27
                      A                      A                      A
 Frequencies --    613.8473               627.9596               662.7965
 Red. masses --      1.5947                 4.2840                 6.5333
 Frc consts  --      0.3540                 0.9953                 1.6910
 IR Inten    --    251.3623                 2.5175                 6.0913

                     28                     29                     30
                      A                      A                      A
 Frequencies --    673.0927               675.9713               709.4988
 Red. masses --      4.2105                 3.0548                 2.2248
 Frc consts  --      1.1239                 0.8224                 0.6599
 IR Inten    --      8.9208                73.7813                19.0012

                     31                     32                     33
                      A                      A                      A
 Frequencies --    722.1249               748.9157               756.2796
 Red. masses --      4.4247                 5.2877                 3.9810
 Frc consts  --      1.3594                 1.7474                 1.3416
 IR Inten    --      1.5819                 4.7747                30.8441

                     34                     35                     36
                      A                      A                      A
 Frequencies --    786.6912               797.2207               820.8597
 Red. masses --      2.7080                 1.9195                 1.5319
 Frc consts  --      0.9874                 0.7188                 0.6082
 IR Inten    --     26.3382                33.4754                 2.1733

                     37                     38                     39
                      A                      A                      A
 Frequencies --    856.8468               879.2833               885.5181
 Red. masses --      1.6660                 1.4851                 1.4133
 Frc consts  --      0.7207                 0.6765                 0.6529
 IR Inten    --     22.0335                 6.4660                10.7822

                     40                     41                     42
                      A                      A                      A
 Frequencies --    919.3035               957.1111               962.8848
 Red. masses --     12.1532                 3.5351                 6.9429
 Frc consts  --      6.0515                 1.9080                 3.7927
 IR Inten    --     79.3926                11.0679                14.3614

                     43                     44                     45
                      A                      A                      A
 Frequencies --    963.7099              1002.4030              1014.0207
 Red. masses --      1.3029                 3.8550                 3.7824
 Frc consts  --      0.7129                 2.2822                 2.2915
 IR Inten    --      2.1356                25.3395                 8.3793

                     46                     47                     48
                      A                      A                      A
 Frequencies --   1019.6479              1040.8058              1055.0710
 Red. masses --      5.9236                 5.0730                 3.5273
 Frc consts  --      3.6286                 3.2378                 2.3134
 IR Inten    --      5.8342                21.7756                58.9000

                     49                     50                     51
                      A                      A                      A
 Frequencies --   1078.6515              1084.0422              1098.6170
 Red. masses --      3.7858                 1.5374                 1.6011
 Frc consts  --      2.5952                 1.0645                 1.1386
 IR Inten    --     41.6570                30.3669                 2.6384

                     52                     53                     54
                      A                      A                      A
 Frequencies --   1144.8901              1150.1507              1162.6871
 Red. masses --      1.2504                 2.2698                 1.3070
 Frc consts  --      0.9656                 1.7691                 1.0410
 IR Inten    --      2.6549                 1.8176                 0.0130

                     55                     56                     57
                      A                      A                      A
 Frequencies --   1187.0751              1205.1648              1220.4451
 Red. masses --      1.5114                 1.4622                 1.5531
 Frc consts  --      1.2548                 1.2513                 1.3630
 IR Inten    --    133.7278                52.7807                 6.7480

                     58                     59                     60
                      A                      A                      A
 Frequencies --   1271.5649              1295.7004              1322.2312
 Red. masses --      2.0489                 3.0428                 1.8962
 Frc consts  --      1.9519                 3.0098                 1.9532
 IR Inten    --     43.5037                72.6837                30.3731

                     61                     62                     63
                      A                      A                      A
 Frequencies --   1332.7564              1349.7219              1353.4815
 Red. masses --      3.5017                 2.3307                 2.3390
 Frc consts  --      3.6647                 2.5016                 2.5245
 IR Inten    --     10.6437                16.2142                13.5224

                     64                     65                     66
                      A                      A                      A
 Frequencies --   1371.9036              1408.4487              1417.0701
 Red. masses --      5.1288                 1.3557                 5.8293
 Frc consts  --      5.6874                 1.5845                 6.8968
 IR Inten    --     12.8811                44.3453                10.9728

                     67                     68                     69
                      A                      A                      A
 Frequencies --   1460.8600              1470.7354              1494.7305
 Red. masses --      9.4761                 1.6539                 2.0768
 Frc consts  --     11.9151                 2.1078                 2.7338
 IR Inten    --     32.2703                51.9749                11.1052

                     70                     71                     72
                      A                      A                      A
 Frequencies --   1502.3147              1503.5317              1517.7648
 Red. masses --      1.2856                 1.0420                 2.1475
 Frc consts  --      1.7096                 1.3878                 2.9147
 IR Inten    --      1.3424                 6.7574                14.6127

                     73                     74                     75
                      A                      A                      A
 Frequencies --   1538.0655              1545.3910              1558.9654
 Red. masses --      1.8144                 2.6068                 2.1477
 Frc consts  --      2.5290                 3.6680                 3.0754
 IR Inten    --      6.2990                76.7906                 8.7540

                     76                     77                     78
                      A                      A                      A
 Frequencies --   1638.9139              1648.1463              1660.2245
 Red. masses --     10.1315                 6.1174                 7.6445
 Frc consts  --     16.0338                 9.7905                12.4145
 IR Inten    --     54.3430                41.4603               178.1293

                     79                     80                     81
                      A                      A                      A
 Frequencies --   1669.5982              1696.3256              3067.4325
 Red. masses --      3.7861                 1.2878                 1.0598
 Frc consts  --      6.2182                 2.1833                 5.8754
 IR Inten    --     95.2089               144.3915                23.0038

                     82                     83                     84
                      A                      A                      A
 Frequencies --   3076.1851              3127.7755              3145.7795
 Red. masses --      1.0320                 1.1053                 1.1064
 Frc consts  --      5.7540                 6.3709                 6.4508
 IR Inten    --     44.1168                13.2682                12.2483

                     85                     86                     87
                      A                      A                      A
 Frequencies --   3170.8589              3179.9957              3191.5303
 Red. masses --      1.1051                 1.0876                 1.0906
 Frc consts  --      6.5463                 6.4797                 6.5453
 IR Inten    --      8.5728                12.2019                10.9044

                     88                     89                     90
                      A                      A                      A
 Frequencies --   3201.1244              3234.6230              3274.8162
 Red. masses --      1.0928                 1.0937                 1.0968
 Frc consts  --      6.5978                 6.7419                 6.9300
 IR Inten    --     16.8896                 1.3996                 0.8260

                     91                     92                     93
                      A                      A                      A
 Frequencies --   3294.1511              3550.8152              3649.3728
 Red. masses --      1.0984                 1.0479                 1.0980
 Frc consts  --      7.0226                 7.7847                 8.6160
 IR Inten    --      0.5426                13.6394                 8.4280

 - Thermochemistry -
 -------------------
 Temperature   298.150 Kelvin.  Pressure   1.00000 Atm.
 Atom     1 has atomic number  6 and mass  12.00000

 Molecular mass:   271.10692 amu.
 Principal axes and moments of inertia in atomic units:
                           1         2         3
     Eigenvalues --  3181.81201********************
           X            0.99999  -0.00372   0.00179
           Y            0.00373   0.99999  -0.00393
           Z           -0.00178   0.00394   0.99999
 This molecule is an asymmetric top.
 Rotational symmetry number  1.
 Warning -- assumption of classical behavior for rotation
           may cause significant error
 Rotational temperatures (Kelvin)      0.02722     0.00830     0.00721
 Rotational constants (GHZ):           0.56721     0.17294     0.15034
 Zero-point vibrational energy     675620.5 (Joules/Mol)
                                  161.47717 (Kcal/Mol)
 Warning -- explicit consideration of  25 degrees of freedom as
           vibrations may cause significant error
 Vibrational temperatures:     15.85    24.04    31.47    51.76    94.92
          (Kelvin)            109.88   133.91   195.28   198.82   295.24
                              329.02   368.60   410.71   427.01   485.67
                              492.46   517.37   551.20   635.34   681.02
                              693.14   748.10   763.32   779.12   883.19
                              903.49   953.62   968.43   972.57  1020.81
                             1038.98  1077.52  1088.12  1131.87  1147.02
                             1181.03  1232.81  1265.09  1274.06  1322.67
                             1377.07  1385.38  1386.56  1442.23  1458.95
                             1467.05  1497.49  1518.01  1551.94  1559.70
                             1580.66  1647.24  1654.81  1672.85  1707.94
                             1733.96  1755.95  1829.50  1864.22  1902.40
                             1917.54  1941.95  1947.36  1973.86  2026.44
                             2038.85  2101.85  2116.06  2150.58  2161.50
                             2163.25  2183.73  2212.93  2223.47  2243.00
                             2358.03  2371.31  2388.69  2402.18  2440.63
                             4413.35  4425.94  4500.17  4526.08  4562.16
                             4575.30  4591.90  4605.70  4653.90  4711.73
                             4739.55  5108.83  5250.63

 Zero-point correction=                           0.257330 (Hartree/Particle)
 Thermal correction to Energy=                    0.274765
 Thermal correction to Enthalpy=                  0.275709
 Thermal correction to Gibbs Free Energy=         0.207194
 Sum of electronic and zero-point Energies=           -927.152451
 Sum of electronic and thermal Energies=              -927.135017
 Sum of electronic and thermal Enthalpies=            -927.134072
 Sum of electronic and thermal Free Energies=         -927.202587

                     E (Thermal)             CV                S
                      KCal/Mol        Cal/Mol-Kelvin    Cal/Mol-Kelvin
 Total                  172.418             65.118            144.202
 Electronic               0.000              0.000              0.000
 Translational            0.889              2.981             42.691
 Rotational               0.889              2.981             34.343
 Vibrational            170.640             59.157             67.168
 Vibration     1          0.593              1.987              7.819
 Vibration     2          0.593              1.986              6.992
 Vibration     3          0.593              1.985              6.457
 Vibration     4          0.594              1.982              5.469
 Vibration     5          0.597              1.971              4.270
 Vibration     6          0.599              1.965              3.982
 Vibration     7          0.602              1.954              3.594
 Vibration     8          0.614              1.918              2.863
 Vibration     9          0.614              1.915              2.829
 Vibration    10          0.640              1.832              2.086
 Vibration    11          0.651              1.797              1.889
 Vibration    12          0.666              1.752              1.688
 Vibration    13          0.683              1.701              1.501
 Vibration    14          0.690              1.680              1.435
 Vibration    15          0.718              1.600              1.224
 Vibration    16          0.721              1.591              1.202
 Vibration    17          0.734              1.556              1.124
 Vibration    18          0.752              1.506              1.027
 Vibration    19          0.801              1.379              0.822
 Vibration    20          0.830              1.309              0.728
 Vibration    21          0.838              1.291              0.705
 Vibration    22          0.875              1.206              0.610
 Vibration    23          0.885              1.182              0.586
 Vibration    24          0.897              1.158              0.562
 Vibration    25          0.973              1.003              0.426

 Optimization completed.
    -- Stationary point found.
 Normal termination of Gaussian 16 at Mon Dec 14 14:17:08 2020.

 ----------------------------------------------------------------------
 # B3LYP/6-311++G(d,p) empiricaldispersion=gd3bj scf=xqc pop=npa geom=c
 heck
 ----------------------------------------------------------------------

 ---------------------------------------
 CID_65196098_JID_10491_Energie_neutraal
 ---------------------------------------
 Structure from the checkpoint file:  "JID_10491.chk"
 Charge =  0 Multiplicity = 1

 SCF Done:  E(RB3LYP) =  -927.661340190     A.U. after   15 cycles
 Normal termination of Gaussian 16 at Mon Dec 14 14:23:20 2020.

 ----------------------------------------------------------------------
 # B3LYP/6-311++G(d,p) empiricaldispersion=gd3bj scf=xqc pop=npa geom=c
 heck
 ----------------------------------------------------------------------

 -------------------------------------
 CID_65196098_JID_10491_Energie_kation
 -------------------------------------
 Structure from the checkpoint file:  "JID_10491.chk"
 Charge =  1 Multiplicity = 2

 SCF Done:  E(UB3LYP) =  -927.378533091     A.U. after   28 cycles
 Normal termination of Gaussian 16 at Mon Dec 14 14:39:51 2020.
 Gaussian 16:  ES64L-G16RevA.03 25-Dec-2016

 ----------------------------------------------------------------------
 # B3LYP/6-311++G(d,p) empiricaldispersion=gd3bj scf=xqc pop=npa geom=c
 heck
 ----------------------------------------------------------------------

 ------------------------------------
 CID_65196098_JID_10491_Energie_anion
 ------------------------------------
 Structure from the checkpoint file:  "JID_10491.chk"
 Charge = -1 Multiplicity = 2

                         Standard orientation:
 ---------------------------------------------------------------------
 Center     Atomic      Atomic             Coordinates (Angstroms)
 Number     Number       Type             X           Y           Z
 ---------------------------------------------------------------------
      1          6           0       -5.153708    2.323625   -0.820481
      2          7           0       -4.355170    1.238577   -0.286230
      3          6           0       -3.154040    0.793746   -0.720815
      4          6           0       -2.796377   -0.259740    0.110138
      5          6           0       -3.873363   -0.365833    1.026937
      6          7           0       -4.814135    0.540758    0.784404
      7          6           0       -1.582743   -1.041093    0.024289
      8          7           0       -1.284408   -2.011478    0.862347
      9          8           0       -0.034977   -2.469177    0.393926
     10          6           0        0.277344   -1.710488   -0.669644
     11          7           0       -0.623481   -0.819397   -0.954378
     12          6           0        1.588404   -1.949132   -1.356971
     13          8           0        2.692241   -1.850108   -0.465980
     14          6           0        2.872607   -0.580013    0.073192
     15          6           0        2.360174   -0.295276    1.337555
     16          6           0        2.580913    0.977822    1.865540
     17          6           0        3.291579    1.939263    1.153375
     18          6           0        3.807965    1.642377   -0.119749
     19          6           0        3.588628    0.364637   -0.656207
     20          7           0        4.480333    2.617127   -0.861679
     21          1           0       -6.123672    1.944295   -1.152968
     22          1           0       -5.312148    3.083203   -0.050406
     23          1           0       -4.624726    2.765954   -1.666549
     24          1           0       -2.636844    1.232461   -1.560687
     25          1           0       -3.985717   -1.066824    1.842262
     26          1           0        1.624193   -2.965269   -1.759811
     27          1           0        1.663379   -1.229241   -2.180086
     28          1           0        1.809871   -1.055185    1.879780
     29          1           0        2.193294    1.223911    2.850063
     30          1           0        3.451641    2.927302    1.577573
     31          1           0        3.980380    0.097971   -1.634053
     32          1           0        5.120876    2.253513   -1.556388
     33          1           0        4.915094    3.343703   -0.306511
 ---------------------------------------------------------------------

 SCF Done:  E(UB3LYP) =  -927.658086855     A.U. after   33 cycles
 SCF Done:  E(UB3LYP) =  -927.658086855     a.u. after    1 cycles

 The electronic state is 2-A.
 Alpha  occ. eigenvalues --  -19.09058 -19.04562 -14.30498 -14.24053 -14.23547
 Alpha  occ. eigenvalues --  -14.22190 -14.20619 -10.15024 -10.14405 -10.13606
 Alpha  occ. eigenvalues --  -10.13163 -10.12293 -10.12189 -10.11590 -10.09974
 Alpha  occ. eigenvalues --  -10.08324 -10.08253 -10.07333 -10.07276 -10.06662
 Alpha  occ. eigenvalues --   -1.04225  -0.96428  -0.96316  -0.82589  -0.82349
 Alpha  occ. eigenvalues --   -0.76545  -0.75519  -0.74287  -0.70062  -0.66086
 Alpha  occ. eigenvalues --   -0.63981  -0.62559  -0.61248  -0.55279  -0.52615
 Alpha  occ. eigenvalues --   -0.51261  -0.50177  -0.48440  -0.47489  -0.45032
 Alpha  occ. eigenvalues --   -0.42745  -0.41880  -0.40103  -0.39758  -0.39699
 Alpha  occ. eigenvalues --   -0.38647  -0.37068  -0.36234  -0.35797  -0.35375
 Alpha  occ. eigenvalues --   -0.33930  -0.33542  -0.32835  -0.31680  -0.31536
 Alpha  occ. eigenvalues --   -0.29765  -0.29426  -0.28028  -0.27217  -0.25671
 Alpha  occ. eigenvalues --   -0.23609  -0.22927  -0.21440  -0.20845  -0.19532
 Alpha  occ. eigenvalues --   -0.18926  -0.18474  -0.17229  -0.15356  -0.13952
 Alpha  occ. eigenvalues --   -0.11633   0.03812
 Alpha virt. eigenvalues --    0.04890   0.05289   0.07287   0.07776   0.07956
 Alpha virt. eigenvalues --    0.08223   0.08503   0.09112   0.09570   0.09621
 Alpha virt. eigenvalues --    0.10207   0.10593   0.11020   0.11189   0.12114

  Beta  occ. eigenvalues --  -19.08827 -19.04524 -14.30495 -14.24060 -14.23213
  Beta  occ. eigenvalues --  -14.22127 -14.20659 -10.14824 -10.14412 -10.13585
  Beta  occ. eigenvalues --  -10.13161 -10.12228 -10.12173 -10.11532 -10.09946
  Beta  occ. eigenvalues --  -10.08323 -10.08248 -10.07328 -10.07264 -10.06658
  Beta  occ. eigenvalues --   -1.03836  -0.96410  -0.96233  -0.82513  -0.82188
  Beta  occ. eigenvalues --   -0.76365  -0.75286  -0.74219  -0.69963  -0.66026
  Beta  occ. eigenvalues --   -0.63926  -0.62485  -0.61109  -0.55100  -0.52507
  Beta  occ. eigenvalues --   -0.51172  -0.50088  -0.48362  -0.47371  -0.44943
  Beta  occ. eigenvalues --   -0.42670  -0.41811  -0.39812  -0.39700  -0.39519
  Beta  occ. eigenvalues --   -0.38491  -0.37020  -0.36111  -0.35639  -0.34932
  Beta  occ. eigenvalues --   -0.33874  -0.33514  -0.32786  -0.31586  -0.31423
  Beta  occ. eigenvalues --   -0.29628  -0.29378  -0.27992  -0.27165  -0.25615
  Beta  occ. eigenvalues --   -0.22911  -0.22645  -0.21383  -0.20824  -0.19088
  Beta  occ. eigenvalues --   -0.18550  -0.18242  -0.17058  -0.15328  -0.13099
  Beta  occ. eigenvalues --   -0.11574
  Beta virt. eigenvalues --    0.05419   0.06515   0.07512   0.07728   0.08122
  Beta virt. eigenvalues --    0.08147   0.08268   0.08687   0.09411   0.09671
  Beta virt. eigenvalues --    0.09794   0.10446   0.10686   0.11204   0.11393

 Mulliken charges and spin densities:
               1          2
     1  C    0.199437  -0.514205
     2  N    0.137903   0.034600
     3  C   -0.385873   0.161156
     4  C   -0.437158  -0.073175
     5  C    0.191232  -0.034911
     6  N   -0.276832   0.041536
     7  C   -0.126970   0.006111
     8  N   -0.298937   0.158848
     9  O    0.153777   0.044586
    10  C    0.358742   0.006993
    11  N    0.082102  -0.033653
    12  C   -0.660683   0.133072
    13  O   -0.041833  -0.022807
    14  C   -0.299181  -0.141355
    15  C    0.268370  -0.214671
    16  C   -0.186186  -0.040962
    17  C   -0.384911   0.091643
    18  C    0.118530  -0.283875
    19  C    0.564275  -0.292595
    20  N   -0.220570  -0.080507
    21  H   -0.042153   0.213350
    22  H    0.036418   0.130859
    23  H   -0.086987   0.226204
    24  H    0.177085   0.011417
    25  H    0.166579  -0.001600
    26  H    0.070493   0.108674
    27  H    0.188072  -0.018294
    28  H    0.217471  -0.025438
    29  H    0.146996   0.010264
    30  H   -0.026324   0.155305
    31  H   -0.124449   0.274188
    32  H   -0.198918   0.443609
    33  H   -0.279519   0.525635
 Sum of Mulliken charges =  -1.00000   1.00000

 Dipole moment (field-independent basis, Debye):
    X=             -3.6248    Y=             -1.3849    Z=             -0.0509  Tot=              3.8807
 Quadrupole moment (field-independent basis, Debye-Ang):
   XX=           -220.4454   YY=           -157.3392   ZZ=           -133.8809
   XY=            -19.2871   XZ=             10.0185   YZ=              9.9598

 Summary of Natural Population Analysis:

                                       Natural Population
                Natural  -----------------------------------------------
    Atom  No    Charge         Core      Valence    Rydberg      Total
 -----------------------------------------------------------------------
      C    1   -0.17123      0.99964     2.16385    0.00773     3.17123
      N    2   -0.10841      0.99966     2.59728    0.01146     3.60841
      C    3    0.02051      0.99953     1.96913    0.01083     2.97949
      C    4   -0.09602      0.99949     2.08748    0.00905     3.09602
      C    5    0.01096      0.99961     1.97637    0.01306     2.98904
      N    6   -0.16118      0.99973     2.64947    0.01197     3.66118
      C    7    0.16280      0.99960     1.82131    0.01629     2.83720
      N    8   -0.04920      0.99967     2.53692    0.01261     3.54920
      O    9   -0.15445      0.99985     3.14532    0.00927     4.15445
      C   10    0.29337      0.99963     1.68902    0.01798     2.70663
      N   11   -0.27322      0.99968     2.76526    0.00828     3.77322
      C   12   -0.03463      0.99951     2.02209    0.01303     3.03463
      O   13   -0.28585      0.99987     3.27664    0.00935     4.28585
      C   14    0.15929      0.99936     1.82704    0.01431     2.84071
      C   15   -0.14090      0.99950     2.13278    0.00862     3.14090
      C   16   -0.08691      0.99958     2.07790    0.00943     3.08691
      C   17   -0.13464      0.99952     2.12517    0.00994     3.13464
      C   18    0.09201      0.99950     1.89739    0.01111     2.90799
      C   19   -0.14495      0.99946     2.13559    0.00990     3.14495
      N   20   -0.39398      0.99972     2.88380    0.01047     3.89398
      H   21    0.10095      0.00000     0.39761    0.00144     0.39905
      H   22    0.10007      0.00000     0.39880    0.00113     0.39993
      H   23    0.10048      0.00000     0.39874    0.00078     0.39952
      H   24    0.10967      0.00000     0.38933    0.00100     0.39033
      H   25    0.10246      0.00000     0.39673    0.00081     0.39754
      H   26    0.10056      0.00000     0.39832    0.00113     0.39944
      H   27    0.09492      0.00000     0.40388    0.00120     0.40508
      H   28    0.11181      0.00000     0.38676    0.00143     0.38819
      H   29    0.09867      0.00000     0.40056    0.00077     0.40133
      H   30    0.09923      0.00000     0.39992    0.00085     0.40077
      H   31    0.10299      0.00000     0.39535    0.00166     0.39701
      H   32    0.18745      0.00000     0.30828    0.00426     0.31255
      H   33    0.18736      0.00000     0.30810    0.00454     0.31264
 =======================================================================
   * Total *    0.00000     19.99213    50.76218    0.24569    71.00000

 Normal termination of Gaussian 16 at Mon Dec 14 14:58:53 2020.
