 Gaussian 16, Revision A.03,

 -----------------------------------------------------------
 # opt freq B3LYP/6-31G(d) empiricaldispersion=gd3bj scf=xqc
 -----------------------------------------------------------

 -----------------------------
 CID_19437645_JID_587_neutraal
 -----------------------------
 Symbolic Z-matrix:
 Charge =  0 Multiplicity = 1

 SCF Done:  E(RB3LYP) =  -446.290238171     A.U. after   13 cycles
 SCF Done:  E(RB3LYP) =  -446.293652004     A.U. after   11 cycles
 SCF Done:  E(RB3LYP) =  -446.293033124     A.U. after   11 cycles
 SCF Done:  E(RB3LYP) =  -446.294740669     A.U. after   11 cycles
 SCF Done:  E(RB3LYP) =  -446.295139802     A.U. after   10 cycles
 SCF Done:  E(RB3LYP) =  -446.295210590     A.U. after   10 cycles
 SCF Done:  E(RB3LYP) =  -446.295300702     A.U. after   10 cycles
 SCF Done:  E(RB3LYP) =  -446.295375323     A.U. after   10 cycles
 SCF Done:  E(RB3LYP) =  -446.295380832     A.U. after    9 cycles
 SCF Done:  E(RB3LYP) =  -446.295382002     A.U. after    8 cycles
 SCF Done:  E(RB3LYP) =  -446.295382665     A.U. after    7 cycles
 SCF Done:  E(RB3LYP) =  -446.295383102     A.U. after    7 cycles
 SCF Done:  E(RB3LYP) =  -446.295383126     A.U. after    7 cycles
 Optimization completed.
    -- Stationary point found.
 Normal termination of Gaussian 16 at Tue Dec  8 12:21:09 2020.

 --------------------------------------------------------------------
 #N Geom=AllCheck Guess=TCheck SCRF=Check GenChk RB3LYP/6-31G(d) Freq
 --------------------------------------------------------------------

 Structure from the checkpoint file:  "JID_587.chk"
 -----------------------------
 CID_19437645_JID_587_neutraal
 -----------------------------
 Charge =  0 Multiplicity = 1

 SCF Done:  E(RB3LYP) =  -446.295383126     A.U. after    1 cycles

  Exact polarizability: 104.599   0.722  95.487  -0.294  -0.562  86.194
 Approx polarizability: 130.406   0.463 132.488   0.465  -2.384 124.257

                      1                      2                      3
                      A                      A                      A
 Frequencies --     47.8991                72.3096                97.7719
 Red. masses --      3.5503                 2.6143                 2.1420
 Frc consts  --      0.0048                 0.0081                 0.0121
 IR Inten    --      0.7401                 0.1939                 0.0479

                      4                      5                      6
                      A                      A                      A
 Frequencies --    139.9497               154.6111               173.7483
 Red. masses --      2.4064                 2.1660                 2.3977
 Frc consts  --      0.0278                 0.0305                 0.0426
 IR Inten    --      0.8388                 0.5372                 0.5212

                      7                      8                      9
                      A                      A                      A
 Frequencies --    224.1461               238.4002               255.2468
 Red. masses --      1.5068                 1.7968                 1.2080
 Frc consts  --      0.0446                 0.0602                 0.0464
 IR Inten    --      1.5396                 0.4281                 0.2202

                     10                     11                     12
                      A                      A                      A
 Frequencies --    282.8029               289.0988               362.7051
 Red. masses --      1.8075                 1.4327                 2.0380
 Frc consts  --      0.0852                 0.0705                 0.1580
 IR Inten    --      0.8625                 1.0122                 9.1894

                     13                     14                     15
                      A                      A                      A
 Frequencies --    367.6399               403.6320               426.7573
 Red. masses --      1.8920                 2.3762                 1.5607
 Frc consts  --      0.1507                 0.2281                 0.1675
 IR Inten    --      2.9668                 7.2655                61.7487

                     16                     17                     18
                      A                      A                      A
 Frequencies --    451.6524               491.2152               542.3658
 Red. masses --      2.2835                 2.8116                 2.7806
 Frc consts  --      0.2744                 0.3997                 0.4819
 IR Inten    --      8.0519                38.7916                11.8361

                     19                     20                     21
                      A                      A                      A
 Frequencies --    587.0325               710.7576               781.1673
 Red. masses --      2.6197                 1.8822                 1.2620
 Frc consts  --      0.5319                 0.5602                 0.4537
 IR Inten    --      7.8222                 8.4128                 3.8424

                     22                     23                     24
                      A                      A                      A
 Frequencies --    795.6499               806.2775               884.8048
 Red. masses --      1.2381                 1.2210                 2.6107
 Frc consts  --      0.4618                 0.4677                 1.2042
 IR Inten    --      0.7385                22.9685                 2.9478

                     25                     26                     27
                      A                      A                      A
 Frequencies --    894.7988               920.2569               959.3955
 Red. masses --      1.5599                 2.1339                 1.7983
 Frc consts  --      0.7358                 1.0648                 0.9752
 IR Inten    --      1.5612                 0.7025                33.8015

                     28                     29                     30
                      A                      A                      A
 Frequencies --   1000.4212              1043.9010              1068.3557
 Red. masses --      2.4077                 3.0383                 2.3981
 Frc consts  --      1.4198                 1.9507                 1.6127
 IR Inten    --     16.7824                69.5337                11.2603

                     31                     32                     33
                      A                      A                      A
 Frequencies --   1082.0470              1094.2235              1113.3119
 Red. masses --      1.9700                 2.1794                 1.6732
 Frc consts  --      1.3590                 1.5375                 1.2219
 IR Inten    --     15.6630                 7.1519                31.2280

                     34                     35                     36
                      A                      A                      A
 Frequencies --   1126.6438              1139.8905              1153.8819
 Red. masses --      1.6338                 2.2540                 1.7445
 Frc consts  --      1.2218                 1.7256                 1.3685
 IR Inten    --      8.0259                 5.6307                16.4412

                     37                     38                     39
                      A                      A                      A
 Frequencies --   1233.7526              1252.7150              1271.9899
 Red. masses --      1.9704                 1.8940                 1.6296
 Frc consts  --      1.7671                 1.7512                 1.5535
 IR Inten    --     58.0506                29.1452                 2.5475

                     40                     41                     42
                      A                      A                      A
 Frequencies --   1287.7459              1323.8336              1359.1064
 Red. masses --      1.3101                 1.2536                 1.2402
 Frc consts  --      1.2800                 1.2945                 1.3498
 IR Inten    --     11.1890                 1.4122                10.4195

                     43                     44                     45
                      A                      A                      A
 Frequencies --   1381.4111              1397.0263              1400.3445
 Red. masses --      1.2578                 1.3119                 1.2785
 Frc consts  --      1.4142                 1.5086                 1.4771
 IR Inten    --     11.7557                 7.9070                 9.4390

                     46                     47                     48
                      A                      A                      A
 Frequencies --   1408.1496              1413.2401              1433.0584
 Red. masses --      1.3528                 1.2925                 1.2640
 Frc consts  --      1.5804                 1.5209                 1.5295
 IR Inten    --     31.9550                14.5166                10.5401

                     49                     50                     51
                      A                      A                      A
 Frequencies --   1437.2944              1437.9200              1445.0550
 Red. masses --      1.3373                 1.2343                 1.3066
 Frc consts  --      1.6276                 1.5036                 1.6075
 IR Inten    --      8.1350                24.0063                13.5111

                     52                     53                     54
                      A                      A                      A
 Frequencies --   1458.5748              1511.6777              1514.0391
 Red. masses --      1.2214                 1.0639                 1.0762
 Frc consts  --      1.5309                 1.4324                 1.4534
 IR Inten    --     47.6800                 1.2084                 1.2310

                     55                     56                     57
                      A                      A                      A
 Frequencies --   1518.4379              1523.7825              1524.9513
 Red. masses --      1.0571                 1.0468                 1.0543
 Frc consts  --      1.4360                 1.4320                 1.4445
 IR Inten    --      3.1133                 2.8763                 9.9694

                     58                     59                     60
                      A                      A                      A
 Frequencies --   1528.8959              1535.1573              1542.4999
 Red. masses --      1.0463                 1.0476                 1.0757
 Frc consts  --      1.4409                 1.4546                 1.5079
 IR Inten    --      2.7543                 6.5931                10.3180

                     61                     62                     63
                      A                      A                      A
 Frequencies --   1543.0242              1546.7748              3018.4490
 Red. masses --      1.0802                 1.0588                 1.0793
 Frc consts  --      1.5153                 1.4925                 5.7938
 IR Inten    --      7.7786                 0.5093                26.0373

                     64                     65                     66
                      A                      A                      A
 Frequencies --   3037.7268              3044.0006              3047.7219
 Red. masses --      1.0658                 1.0711                 1.0376
 Frc consts  --      5.7948                 5.8476                 5.6787
 IR Inten    --     21.3409                19.6173                33.6236

                     67                     68                     69
                      A                      A                      A
 Frequencies --   3050.2953              3050.9899              3057.4080
 Red. masses --      1.0636                 1.0411                 1.0501
 Frc consts  --      5.8307                 5.7096                 5.7832
 IR Inten    --     36.7203                23.2534                52.4010

                     70                     71                     72
                      A                      A                      A
 Frequencies --   3059.8320              3082.1208              3092.2839
 Red. masses --      1.0490                 1.0982                 1.1042
 Frc consts  --      5.7866                 6.1465                 6.2208
 IR Inten    --     27.5473                 6.0012                11.5243

                     73                     74                     75
                      A                      A                      A
 Frequencies --   3096.6965              3108.7156              3115.3639
 Red. masses --      1.0970                 1.0963                 1.1013
 Frc consts  --      6.1978                 6.2425                 6.2975
 IR Inten    --     26.5541                13.8529                31.1568

                     76                     77                     78
                      A                      A                      A
 Frequencies --   3117.6293              3119.1541              3122.8771
 Red. masses --      1.1001                 1.0964                 1.0981
 Frc consts  --      6.3000                 6.2846                 6.3094
 IR Inten    --     89.3161                73.1554                33.2856

                     79                     80                     81
                      A                      A                      A
 Frequencies --   3135.1642              3143.5420              3695.6028
 Red. masses --      1.1020                 1.1027                 1.0648
 Frc consts  --      6.3819                 6.4199                 8.5681
 IR Inten    --     33.2655                36.9129                 9.0730

 - Thermochemistry -
 -------------------
 Temperature   298.150 Kelvin.  Pressure   1.00000 Atm.
 Atom     1 has atomic number  6 and mass  12.00000

 Molecular mass:   145.14666 amu.
 Principal axes and moments of inertia in atomic units:
                           1         2         3
     Eigenvalues --  1191.749971897.849362344.32807
           X            0.99998  -0.00424  -0.00360
           Y            0.00427   0.99997   0.00594
           Z            0.00358  -0.00596   0.99998
 This molecule is an asymmetric top.
 Rotational symmetry number  1.
 Warning -- assumption of classical behavior for rotation
           may cause significant error
 Rotational temperatures (Kelvin)      0.07268     0.04564     0.03695
 Rotational constants (GHZ):           1.51436     0.95094     0.76983
 Zero-point vibrational energy     709450.1 (Joules/Mol)
                                  169.56265 (Kcal/Mol)
 Warning -- explicit consideration of  19 degrees of freedom as
           vibrations may cause significant error
 Vibrational temperatures:     68.92   104.04   140.67   201.36   222.45
          (Kelvin)            249.99   322.50   343.00   367.24   406.89
                              415.95   521.85   528.95   580.74   614.01
                              649.83   706.75   780.34   844.61  1022.62
                             1123.93  1144.76  1160.05  1273.04  1287.42
                             1324.04  1380.36  1439.38  1501.94  1537.13
                             1556.82  1574.34  1601.81  1620.99  1640.05
                             1660.18  1775.09  1802.38  1830.11  1852.78
                             1904.70  1955.45  1987.54  2010.01  2014.78
                             2026.01  2033.34  2061.85  2067.95  2068.85
                             2079.11  2098.56  2174.97  2178.36  2184.69
                             2192.38  2194.06  2199.74  2208.75  2219.31
                             2220.07  2225.46  4342.87  4370.61  4379.64
                             4384.99  4388.69  4389.69  4398.93  4402.42
                             4434.48  4449.11  4455.46  4472.75  4482.31
                             4485.57  4487.77  4493.12  4510.80  4522.86
                             5317.15

 Zero-point correction=                           0.270215 (Hartree/Particle)
 Thermal correction to Energy=                    0.282805
 Thermal correction to Enthalpy=                  0.283749
 Thermal correction to Gibbs Free Energy=         0.232134
 Sum of electronic and zero-point Energies=           -446.025168
 Sum of electronic and thermal Energies=              -446.012579
 Sum of electronic and thermal Enthalpies=            -446.011634
 Sum of electronic and thermal Free Energies=         -446.063249

                     E (Thermal)             CV                S
                      KCal/Mol        Cal/Mol-Kelvin    Cal/Mol-Kelvin
 Total                  177.463             47.009            108.632
 Electronic               0.000              0.000              0.000
 Translational            0.889              2.981             40.829
 Rotational               0.889              2.981             30.051
 Vibrational            175.685             41.048             37.752
 Vibration     1          0.595              1.978              4.902
 Vibration     2          0.598              1.967              4.089
 Vibration     3          0.603              1.951              3.498
 Vibration     4          0.615              1.913              2.805
 Vibration     5          0.620              1.898              2.615
 Vibration     6          0.627              1.875              2.395
 Vibration     7          0.649              1.804              1.925
 Vibration     8          0.656              1.782              1.815
 Vibration     9          0.666              1.754              1.694
 Vibration    10          0.682              1.706              1.517
 Vibration    11          0.686              1.694              1.479
 Vibration    12          0.737              1.549              1.110
 Vibration    13          0.740              1.539              1.090
 Vibration    14          0.769              1.462              0.949
 Vibration    15          0.788              1.412              0.869
 Vibration    16          0.810              1.357              0.791
 Vibration    17          0.847              1.270              0.680
 Vibration    18          0.897              1.156              0.560
 Vibration    19          0.944              1.059              0.473

 Optimization completed.
    -- Stationary point found.
 Normal termination of Gaussian 16 at Tue Dec  8 12:29:12 2020.

 ----------------------------------------------------------------------
 # B3LYP/6-311++G(d,p) empiricaldispersion=gd3bj scf=xqc pop=npa geom=c
 heck
 ----------------------------------------------------------------------

 -------------------------------------
 CID_19437645_JID_587_Energie_neutraal
 -------------------------------------
 Structure from the checkpoint file:  "JID_587.chk"
 Charge =  0 Multiplicity = 1

 SCF Done:  E(RB3LYP) =  -446.433096948     A.U. after   13 cycles
 Normal termination of Gaussian 16 at Tue Dec  8 12:39:39 2020.

 ----------------------------------------------------------------------
 # B3LYP/6-311++G(d,p) empiricaldispersion=gd3bj scf=xqc pop=npa geom=c
 heck
 ----------------------------------------------------------------------

 -----------------------------------
 CID_19437645_JID_587_Energie_kation
 -----------------------------------
 Structure from the checkpoint file:  "JID_587.chk"
 Charge =  1 Multiplicity = 2

 SCF Done:  E(UB3LYP) =  -446.143689775     A.U. after   17 cycles
 Normal termination of Gaussian 16 at Tue Dec  8 12:49:36 2020.
 Gaussian 16:  ES64L-G16RevA.03 25-Dec-2016

 ----------------------------------------------------------------------
 # B3LYP/6-311++G(d,p) empiricaldispersion=gd3bj scf=xqc pop=npa geom=c
 heck
 ----------------------------------------------------------------------

 ----------------------------------
 CID_19437645_JID_587_Energie_anion
 ----------------------------------
 Structure from the checkpoint file:  "JID_587.chk"
 Charge = -1 Multiplicity = 2

                         Standard orientation:
 ---------------------------------------------------------------------
 Center     Atomic      Atomic             Coordinates (Angstroms)
 Number     Number       Type             X           Y           Z
 ---------------------------------------------------------------------
      1          6           0        2.768071    0.187789    1.272628
      2          6           0        2.464111    0.273039   -0.226929
      3          6           0        1.490774   -0.807740   -0.730262
      4          6           0        0.097242   -0.904025   -0.081377
      5          7           0       -0.913837   -0.058217   -0.701490
      6          6           0       -2.257355   -0.209494   -0.118998
      7          6           0       -2.375093   -0.129186    1.410294
      8          6           0       -0.563528    1.306427   -1.081760
      9          6           0       -0.409578    2.340615    0.046699
     10          8           0       -0.369550   -2.252023   -0.156988
     11          1           0        1.885854    0.409884    1.883188
     12          1           0        3.549514    0.902316    1.553981
     13          1           0        3.114456   -0.815443    1.548717
     14          1           0        2.102572    1.278314   -0.465871
     15          1           0        3.401956    0.153657   -0.785023
     16          1           0        1.367188   -0.733474   -1.819379
     17          1           0        1.950366   -1.783420   -0.534538
     18          1           0        0.191916   -0.736624    1.001001
     19          1           0       -2.886976    0.560618   -0.578744
     20          1           0       -2.663282   -1.176249   -0.434618
     21          1           0       -1.970887    0.804460    1.812617
     22          1           0       -3.430312   -0.194424    1.700191
     23          1           0       -1.852386   -0.964095    1.886443
     24          1           0        0.356228    1.270010   -1.670886
     25          1           0       -1.342407    1.655760   -1.771702
     26          1           0        0.305935    2.008176    0.805946
     27          1           0       -0.050908    3.294110   -0.359921
     28          1           0       -1.364314    2.531989    0.546287
     29          1           0       -0.599115   -2.386403   -1.093127
 ---------------------------------------------------------------------

 SCF Done:  E(UB3LYP) =  -446.414839611     A.U. after   26 cycles

 The electronic state is 2-A.
 Alpha  occ. eigenvalues --  -19.01733 -14.19944 -10.14028 -10.08806 -10.08717
 Alpha  occ. eigenvalues --  -10.06300 -10.06164 -10.05562 -10.05441 -10.05159
 Alpha  occ. eigenvalues --   -0.92913  -0.80720  -0.68947  -0.65381  -0.63204
 Alpha  occ. eigenvalues --   -0.59762  -0.54775  -0.52303  -0.48995  -0.46313
 Alpha  occ. eigenvalues --   -0.41107  -0.38248  -0.36410  -0.34552  -0.33902
 Alpha  occ. eigenvalues --   -0.33007  -0.31461  -0.31213  -0.29991  -0.28723
 Alpha  occ. eigenvalues --   -0.28120  -0.27402  -0.26512  -0.25138  -0.24828
 Alpha  occ. eigenvalues --   -0.23817  -0.23082  -0.22550  -0.22107  -0.17735
 Alpha  occ. eigenvalues --   -0.11129   0.04827
 Alpha virt. eigenvalues --    0.06793   0.07447   0.07722   0.09102   0.09435
 Alpha virt. eigenvalues --    0.09736   0.10369   0.10792   0.11927   0.12409
 Alpha virt. eigenvalues --    0.12991   0.13205   0.13677   0.14422   0.15269

  Beta  occ. eigenvalues --  -19.01719 -14.19947 -10.14020 -10.08784 -10.08696
  Beta  occ. eigenvalues --  -10.06277 -10.06149 -10.05532 -10.05420 -10.05123
  Beta  occ. eigenvalues --   -0.92890  -0.80706  -0.68909  -0.65342  -0.63163
  Beta  occ. eigenvalues --   -0.59718  -0.54716  -0.52231  -0.48927  -0.46257
  Beta  occ. eigenvalues --   -0.41080  -0.38208  -0.36373  -0.34519  -0.33878
  Beta  occ. eigenvalues --   -0.32963  -0.31429  -0.31184  -0.29937  -0.28688
  Beta  occ. eigenvalues --   -0.28071  -0.27363  -0.26473  -0.25095  -0.24785
  Beta  occ. eigenvalues --   -0.23778  -0.23053  -0.22520  -0.22076  -0.17714
  Beta  occ. eigenvalues --   -0.11116
  Beta virt. eigenvalues --    0.07076   0.07825   0.07977   0.08502   0.09724
  Beta virt. eigenvalues --    0.09983   0.10320   0.10744   0.11312   0.12445
  Beta virt. eigenvalues --    0.12805   0.13445   0.13540   0.13970   0.14797

 Mulliken charges and spin densities:
               1          2
     1  C    1.022148  -1.601638
     2  C   -0.921385   0.852003
     3  C    1.024670  -1.337491
     4  C   -0.039803  -0.407903
     5  N   -0.105925   0.201597
     6  C   -0.069406  -0.125269
     7  C    0.136811  -0.569802
     8  C   -0.543841   0.213876
     9  C    1.064451  -1.568176
    10  O   -0.225882   0.009770
    11  H   -0.030670   0.158559
    12  H   -0.648352   0.801610
    13  H    0.015534   0.113936
    14  H    0.122882   0.011140
    15  H   -0.606580   0.780713
    16  H   -0.197244   0.379492
    17  H    0.115838   0.044941
    18  H    0.303506  -0.091895
    19  H   -0.240265   0.374933
    20  H    0.045394   0.093064
    21  H    0.155834  -0.021152
    22  H   -0.421661   0.565001
    23  H   -0.018883   0.176796
    24  H   -0.001523   0.146330
    25  H   -0.440216   0.608918
    26  H   -0.117007   0.286792
    27  H   -0.499096   0.643607
    28  H    0.008275   0.125706
    29  H    0.112398   0.134542
 Sum of Mulliken charges =  -1.00000   1.00000

 Dipole moment (field-independent basis, Debye):
    X=             -1.8190    Y=             -3.4713    Z=              0.2544  Tot=              3.9273
 Quadrupole moment (field-independent basis, Debye-Ang):
   XX=           -132.8477   YY=           -112.6509   ZZ=           -100.2158
   XY=             -2.2000   XZ=             -0.7273   YZ=              2.9971

 Summary of Natural Population Analysis:

                                       Natural Population
                Natural  -----------------------------------------------
    Atom  No    Charge         Core      Valence    Rydberg      Total
 -----------------------------------------------------------------------
      C    1   -0.28630      0.99967     2.28067    0.00596     3.28630
      C    2   -0.19249      0.99963     2.18437    0.00848     3.19249
      C    3   -0.20710      0.99960     2.19699    0.01050     3.20710
      C    4    0.15786      0.99956     1.82655    0.01603     2.84214
      N    5   -0.29285      0.99970     2.77786    0.01528     3.79285
      C    6   -0.08446      0.99962     2.07319    0.01165     3.08446
      C    7   -0.29815      0.99966     2.29367    0.00483     3.29815
      C    8   -0.08405      0.99961     2.07221    0.01222     3.08405
      C    9   -0.29828      0.99966     2.29322    0.00541     3.29828
      O   10   -0.37487      0.99990     3.36890    0.00607     4.37487
      H   11    0.09420      0.00000     0.40457    0.00123     0.40580
      H   12    0.10206      0.00000     0.39653    0.00141     0.39794
      H   13    0.09502      0.00000     0.40399    0.00098     0.40498
      H   14    0.09641      0.00000     0.40166    0.00193     0.40359
      H   15    0.09756      0.00000     0.40079    0.00165     0.40244
      H   16    0.10070      0.00000     0.39774    0.00156     0.39930
      H   17    0.10417      0.00000     0.39445    0.00137     0.39583
      H   18    0.07597      0.00000     0.42156    0.00247     0.42403
      H   19    0.09401      0.00000     0.40462    0.00137     0.40599
      H   20    0.09346      0.00000     0.40525    0.00129     0.40654
      H   21    0.09712      0.00000     0.40174    0.00115     0.40288
      H   22    0.09921      0.00000     0.39965    0.00113     0.40079
      H   23    0.09992      0.00000     0.39908    0.00100     0.40008
      H   24    0.09587      0.00000     0.40248    0.00165     0.40413
      H   25    0.09375      0.00000     0.40477    0.00148     0.40625
      H   26    0.09653      0.00000     0.40215    0.00132     0.40347
      H   27    0.10172      0.00000     0.39662    0.00166     0.39828
      H   28    0.09705      0.00000     0.40168    0.00126     0.40295
      H   29    0.22593      0.00000     0.27093    0.00315     0.27407
 =======================================================================
   * Total *    0.00000      9.99660    30.87790    0.12550    41.00000

 Normal termination of Gaussian 16 at Tue Dec  8 13:04:42 2020.
