 Gaussian 16, Revision A.03,

 -----------------------------------------------------------
 # opt freq B3LYP/6-31G(d) empiricaldispersion=gd3bj scf=xqc
 -----------------------------------------------------------

 -------------------------------
 CID_140062592_JID_4713_neutraal
 -------------------------------
 Symbolic Z-matrix:
 Charge =  0 Multiplicity = 1

 SCF Done:  E(RB3LYP) =  -593.707520881     A.U. after   14 cycles
 SCF Done:  E(RB3LYP) =  -593.713353984     A.U. after   12 cycles
 SCF Done:  E(RB3LYP) =  -593.714733298     A.U. after   12 cycles
 SCF Done:  E(RB3LYP) =  -593.715376506     A.U. after   12 cycles
 SCF Done:  E(RB3LYP) =  -593.715493119     A.U. after   11 cycles
 SCF Done:  E(RB3LYP) =  -593.715544928     A.U. after   11 cycles
 SCF Done:  E(RB3LYP) =  -593.715582512     A.U. after   10 cycles
 SCF Done:  E(RB3LYP) =  -593.715587356     A.U. after    9 cycles
 SCF Done:  E(RB3LYP) =  -593.715588168     A.U. after    8 cycles
 SCF Done:  E(RB3LYP) =  -593.715588289     A.U. after    7 cycles
 SCF Done:  E(RB3LYP) =  -593.715588334     A.U. after    7 cycles
 Optimization completed.
    -- Stationary point found.
 Normal termination of Gaussian 16 at Thu Dec 10 10:24:08 2020.

 --------------------------------------------------------------------
 #N Geom=AllCheck Guess=TCheck SCRF=Check GenChk RB3LYP/6-31G(d) Freq
 --------------------------------------------------------------------

 Structure from the checkpoint file:  "JID_4713.chk"
 -------------------------------
 CID_140062592_JID_4713_neutraal
 -------------------------------
 Charge =  0 Multiplicity = 1

 SCF Done:  E(RB3LYP) =  -593.715588334     A.U. after    1 cycles

  Exact polarizability: 151.284   2.979 151.856 -21.468  -2.543 101.619
 Approx polarizability: 209.726   3.674 237.040 -51.951  -0.247 163.644

                      1                      2                      3
                      A                      A                      A
 Frequencies --     29.1965                44.8791                69.6477
 Red. masses --      3.1541                 4.0597                 2.8984
 Frc consts  --      0.0016                 0.0048                 0.0083
 IR Inten    --      0.0965                 0.7099                 0.5467

                      4                      5                      6
                      A                      A                      A
 Frequencies --     84.7819               100.2782               130.4343
 Red. masses --      3.2290                 2.5765                 3.7420
 Frc consts  --      0.0137                 0.0153                 0.0375
 IR Inten    --      1.2722                 2.4062                 1.8310

                      7                      8                      9
                      A                      A                      A
 Frequencies --    147.4464               202.9710               210.6669
 Red. masses --      2.8038                 1.6246                 2.1669
 Frc consts  --      0.0359                 0.0394                 0.0567
 IR Inten    --      0.6394                 0.6346                 3.4747

                     10                     11                     12
                      A                      A                      A
 Frequencies --    234.1404               278.9760               292.7282
 Red. masses --      1.9208                 1.4736                 2.1122
 Frc consts  --      0.0620                 0.0676                 0.1066
 IR Inten    --      2.1128                 0.2072                 3.9454

                     13                     14                     15
                      A                      A                      A
 Frequencies --    334.7250               353.4062               392.1294
 Red. masses --      3.4877                 2.7606                 2.7467
 Frc consts  --      0.2302                 0.2031                 0.2488
 IR Inten    --      2.6976                 4.7335                 1.9757

                     16                     17                     18
                      A                      A                      A
 Frequencies --    428.9575               489.3741               511.8561
 Red. masses --      2.9975                 3.3272                 2.0797
 Frc consts  --      0.3250                 0.4695                 0.3210
 IR Inten    --      0.7054                12.9560               103.9448

                     19                     20                     21
                      A                      A                      A
 Frequencies --    520.9610               572.0962               588.1104
 Red. masses --      2.6908                 3.2144                 3.7584
 Frc consts  --      0.4303                 0.6199                 0.7659
 IR Inten    --     21.6194                 6.9989                 4.4098

                     22                     23                     24
                      A                      A                      A
 Frequencies --    635.9163               699.9114               731.0128
 Red. masses --      3.0587                 3.7001                 2.2304
 Frc consts  --      0.7288                 1.0679                 0.7022
 IR Inten    --     12.1912                 1.2003                 8.2923

                     25                     26                     27
                      A                      A                      A
 Frequencies --    775.2497               788.4566               806.0138
 Red. masses --      2.5196                 1.2811                 1.6466
 Frc consts  --      0.8922                 0.4692                 0.6303
 IR Inten    --     15.5025                27.2100                 8.5673

                     28                     29                     30
                      A                      A                      A
 Frequencies --    828.8490               870.9347               881.1317
 Red. masses --      2.0545                 2.3565                 2.4697
 Frc consts  --      0.8316                 1.0531                 1.1298
 IR Inten    --     11.0205                 9.5434                 1.2352

                     31                     32                     33
                      A                      A                      A
 Frequencies --    912.5622               929.3439               935.4465
 Red. masses --      1.4445                 1.8035                 1.5607
 Frc consts  --      0.7088                 0.9177                 0.8046
 IR Inten    --      7.6105                 8.8118                25.9606

                     34                     35                     36
                      A                      A                      A
 Frequencies --    970.5310               976.3972               989.4179
 Red. masses --      1.3801                 1.3640                 2.3943
 Frc consts  --      0.7659                 0.7661                 1.3810
 IR Inten    --      0.1499                 1.9363                34.9804

                     37                     38                     39
                      A                      A                      A
 Frequencies --   1068.8509              1078.7870              1093.8236
 Red. masses --      2.3975                 3.1236                 2.1775
 Frc consts  --      1.6138                 2.1418                 1.5350
 IR Inten    --      3.1974                 4.0880                 2.7180

                     40                     41                     42
                      A                      A                      A
 Frequencies --   1112.6608              1115.5332              1135.2595
 Red. masses --      1.9356                 1.6879                 1.5658
 Frc consts  --      1.4118                 1.2375                 1.1890
 IR Inten    --      1.4761                11.4162                18.1639

                     43                     44                     45
                      A                      A                      A
 Frequencies --   1142.2356              1178.1551              1206.7328
 Red. masses --      1.7650                 1.5391                 1.9437
 Frc consts  --      1.3568                 1.2587                 1.6676
 IR Inten    --     34.0801                10.6705                15.2558

                     46                     47                     48
                      A                      A                      A
 Frequencies --   1260.2622              1276.7101              1301.2930
 Red. masses --      1.2879                 1.6595                 1.2739
 Frc consts  --      1.2051                 1.5937                 1.2709
 IR Inten    --      8.7863                46.8161                 4.8078

                     49                     50                     51
                      A                      A                      A
 Frequencies --   1317.6500              1336.0077              1358.8743
 Red. masses --      4.1974                 1.5002                 1.4293
 Frc consts  --      4.2937                 1.5777                 1.5550
 IR Inten    --     31.6783                32.0851                12.3900

                     52                     53                     54
                      A                      A                      A
 Frequencies --   1372.6744              1389.7941              1407.6615
 Red. masses --      1.5315                 1.3811                 1.3539
 Frc consts  --      1.7002                 1.5717                 1.5806
 IR Inten    --     21.7516                12.5030                18.7429

                     55                     56                     57
                      A                      A                      A
 Frequencies --   1425.0855              1433.7774              1447.0255
 Red. masses --      1.7263                 1.2783                 1.2599
 Frc consts  --      2.0656                 1.5483                 1.5543
 IR Inten    --     56.7272                21.8162                 4.1860

                     58                     59                     60
                      A                      A                      A
 Frequencies --   1464.9475              1498.2538              1516.8730
 Red. masses --      2.0985                 1.3216                 1.6026
 Frc consts  --      2.6534                 1.7479                 2.1726
 IR Inten    --     63.4492                25.2910                11.4397

                     61                     62                     63
                      A                      A                      A
 Frequencies --   1518.2491              1520.1583              1522.9041
 Red. masses --      1.1279                 1.0742                 1.0777
 Frc consts  --      1.5318                 1.4626                 1.4727
 IR Inten    --      1.9486                18.8271                 1.4285

                     64                     65                     66
                      A                      A                      A
 Frequencies --   1534.0726              1535.4366              1535.9400
 Red. masses --      1.0700                 1.0960                 1.0637
 Frc consts  --      1.4836                 1.5223                 1.4785
 IR Inten    --     13.9233                12.8114                10.0667

                     67                     68                     69
                      A                      A                      A
 Frequencies --   1554.4729              1628.1787              1648.8265
 Red. masses --      1.9320                 4.2993                 6.0123
 Frc consts  --      2.7506                 6.7152                 9.6304
 IR Inten    --    137.7344               126.9695               134.2162

                     70                     71                     72
                      A                      A                      A
 Frequencies --   1693.3629              3035.2252              3045.0712
 Red. masses --      8.5831                 1.0646                 1.0643
 Frc consts  --     14.5008                 5.7784                 5.8146
 IR Inten    --     86.3727                14.3805                45.9337

                     73                     74                     75
                      A                      A                      A
 Frequencies --   3048.8705              3052.6425              3067.8344
 Red. masses --      1.0379                 1.0371                 1.0689
 Frc consts  --      5.6844                 5.6941                 5.9273
 IR Inten    --     29.2964                17.7106                48.8244

                     76                     77                     78
                      A                      A                      A
 Frequencies --   3072.9888              3108.4584              3116.0132
 Red. masses --      1.1022                 1.1015                 1.1010
 Frc consts  --      6.1323                 6.2710                 6.2985
 IR Inten    --     22.7630                29.3834                23.4456

                     79                     80                     81
                      A                      A                      A
 Frequencies --   3121.7403              3129.9802              3140.8691
 Red. masses --      1.0965                 1.1016                 1.0955
 Frc consts  --      6.2958                 6.3583                 6.3676
 IR Inten    --     24.4744                40.2697                18.1880

                     82                     83                     84
                      A                      A                      A
 Frequencies --   3151.1805              3168.1230              3210.0281
 Red. masses --      1.1017                 1.0894                 1.0888
 Frc consts  --      6.4458                 6.4424                 6.6104
 IR Inten    --     23.1397                30.2788                 7.8183

                     85                     86                     87
                      A                      A                      A
 Frequencies --   3224.7846              3384.6943              3607.0178
 Red. masses --      1.0964                 1.0741                 1.0760
 Frc consts  --      6.7177                 7.2499                 8.2482
 IR Inten    --     13.9095                13.8783                14.3805

 - Thermochemistry -
 -------------------
 Temperature   298.150 Kelvin.  Pressure   1.00000 Atm.
 Atom     1 has atomic number  6 and mass  12.00000

 Molecular mass:   191.14225 amu.
 Principal axes and moments of inertia in atomic units:
                           1         2         3
     Eigenvalues --  2005.457243580.876864493.32641
           X            0.99970  -0.01753   0.01707
           Y            0.01761   0.99984  -0.00420
           Z           -0.01699   0.00450   0.99985
 This molecule is an asymmetric top.
 Rotational symmetry number  1.
 Warning -- assumption of classical behavior for rotation
           may cause significant error
 Rotational temperatures (Kelvin)      0.04319     0.02419     0.01928
 Rotational constants (GHZ):           0.89992     0.50399     0.40165
 Zero-point vibrational energy     712166.8 (Joules/Mol)
                                  170.21195 (Kcal/Mol)
 Warning -- explicit consideration of  21 degrees of freedom as
           vibrations may cause significant error
 Vibrational temperatures:     42.01    64.57   100.21   121.98   144.28
          (Kelvin)            187.67   212.14   292.03   303.10   336.88
                              401.38   421.17   481.59   508.47   564.19
                              617.17   704.10   736.45   749.55   823.12
                              846.16   914.94  1007.02  1051.76  1115.41
                             1134.41  1159.67  1192.53  1253.08  1267.75
                             1312.97  1337.12  1345.90  1396.38  1404.82
                             1423.55  1537.84  1552.13  1573.77  1600.87
                             1605.00  1633.39  1643.42  1695.10  1736.22
                             1813.24  1836.90  1872.27  1895.80  1922.22
                             1955.12  1974.97  1999.60  2025.31  2050.38
                             2062.89  2081.95  2107.73  2155.65  2182.44
                             2184.42  2187.17  2191.12  2207.19  2209.15
                             2209.88  2236.54  2342.59  2372.29  2436.37
                             4367.01  4381.18  4386.64  4392.07  4413.93
                             4421.35  4472.38  4483.25  4491.49  4503.34
                             4519.01  4533.85  4558.22  4618.51  4639.75
                             4869.82  5189.69

 Zero-point correction=                           0.271250 (Hartree/Particle)
 Thermal correction to Energy=                    0.285668
 Thermal correction to Enthalpy=                  0.286612
 Thermal correction to Gibbs Free Energy=         0.228996
 Sum of electronic and zero-point Energies=           -593.444338
 Sum of electronic and thermal Energies=              -593.429921
 Sum of electronic and thermal Enthalpies=            -593.428977
 Sum of electronic and thermal Free Energies=         -593.486592

                     E (Thermal)             CV                S
                      KCal/Mol        Cal/Mol-Kelvin    Cal/Mol-Kelvin
 Total                  179.259             53.885            121.262
 Electronic               0.000              0.000              0.000
 Translational            0.889              2.981             41.649
 Rotational               0.889              2.981             31.845
 Vibrational            177.482             47.924             47.767
 Vibration     1          0.593              1.984              5.883
 Vibration     2          0.595              1.979              5.031
 Vibration     3          0.598              1.969              4.163
 Vibration     4          0.601              1.960              3.777
 Vibration     5          0.604              1.949              3.449
 Vibration     6          0.612              1.923              2.940
 Vibration     7          0.617              1.905              2.705
 Vibration     8          0.639              1.836              2.106
 Vibration     9          0.643              1.825              2.038
 Vibration    10          0.654              1.789              1.847
 Vibration    11          0.679              1.712              1.540
 Vibration    12          0.688              1.687              1.458
 Vibration    13          0.716              1.606              1.237
 Vibration    14          0.730              1.568              1.151
 Vibration    15          0.760              1.487              0.992
 Vibration    16          0.790              1.407              0.862
 Vibration    17          0.845              1.274              0.685
 Vibration    18          0.867              1.224              0.629
 Vibration    19          0.876              1.204              0.608
 Vibration    20          0.928              1.092              0.500
 Vibration    21          0.945              1.057              0.471

 Optimization completed.
    -- Stationary point found.
 Normal termination of Gaussian 16 at Thu Dec 10 10:33:08 2020.

 ----------------------------------------------------------------------
 # B3LYP/6-311++G(d,p) empiricaldispersion=gd3bj scf=xqc pop=npa geom=c
 heck
 ----------------------------------------------------------------------

 ---------------------------------------
 CID_140062592_JID_4713_Energie_neutraal
 ---------------------------------------
 Structure from the checkpoint file:  "JID_4713.chk"
 Charge =  0 Multiplicity = 1

 SCF Done:  E(RB3LYP) =  -593.880139261     A.U. after   15 cycles
 Normal termination of Gaussian 16 at Thu Dec 10 10:37:42 2020.

 ----------------------------------------------------------------------
 # B3LYP/6-311++G(d,p) empiricaldispersion=gd3bj scf=xqc pop=npa geom=c
 heck
 ----------------------------------------------------------------------

 -------------------------------------
 CID_140062592_JID_4713_Energie_kation
 -------------------------------------
 Structure from the checkpoint file:  "JID_4713.chk"
 Charge =  1 Multiplicity = 2

 SCF Done:  E(UB3LYP) =  -593.598673333     A.U. after   23 cycles
 Normal termination of Gaussian 16 at Thu Dec 10 10:45:18 2020.
 Gaussian 16:  ES64L-G16RevA.03 25-Dec-2016

 ----------------------------------------------------------------------
 # B3LYP/6-311++G(d,p) empiricaldispersion=gd3bj scf=xqc pop=npa geom=c
 heck
 ----------------------------------------------------------------------

 ------------------------------------
 CID_140062592_JID_4713_Energie_anion
 ------------------------------------
 Structure from the checkpoint file:  "JID_4713.chk"
 Charge = -1 Multiplicity = 2

                         Standard orientation:
 ---------------------------------------------------------------------
 Center     Atomic      Atomic             Coordinates (Angstroms)
 Number     Number       Type             X           Y           Z
 ---------------------------------------------------------------------
      1          6           0       -3.127544    0.096507   -1.523387
      2          6           0       -3.170703   -1.141677   -0.624866
      3          6           0       -1.808412   -1.480079    0.014688
      4          6           0       -1.339403   -0.365333    0.947042
      5          7           0       -1.900226   -0.101926    2.069688
      6          6           0       -0.269843    0.554211    0.472972
      7          6           0        0.947185    0.116698   -0.121453
      8          7           0        1.841963    0.970700   -0.640884
      9          6           0        1.597081    2.281464   -0.553971
     10          6           0        0.483523    2.821579    0.081622
     11          6           0       -0.454681    1.930082    0.600154
     12          7           0        1.260092   -1.228300   -0.190670
     13          6           0        2.588558   -1.678681   -0.597597
     14          6           0        3.666117   -1.475396    0.470263
     15          1           0       -2.376215   -0.017432   -2.313699
     16          1           0       -2.871062    0.995496   -0.953941
     17          1           0       -4.098108    0.267209   -2.001562
     18          1           0       -3.917234   -0.999005    0.167457
     19          1           0       -3.499756   -2.011026   -1.208046
     20          1           0       -1.901606   -2.411235    0.590014
     21          1           0       -1.075224   -1.657238   -0.776586
     22          1           0       -2.664974   -0.766869    2.242362
     23          1           0        2.343765    2.929609   -1.010212
     24          1           0        0.346959    3.895213    0.152612
     25          1           0       -1.357683    2.280341    1.089968
     26          1           0        0.816833   -1.801370    0.514285
     27          1           0        2.500224   -2.739235   -0.859243
     28          1           0        2.852998   -1.131980   -1.504498
     29          1           0        3.411936   -2.007998    1.394661
     30          1           0        4.633143   -1.852440    0.117451
     31          1           0        3.771921   -0.411621    0.699234
 ---------------------------------------------------------------------

 SCF Done:  E(UB3LYP) =  -593.876102198     A.U. after   31 cycles

 The electronic state is 2-A.
 Alpha  occ. eigenvalues --  -14.20455 -14.16543 -14.13883 -10.11176 -10.09230
 Alpha  occ. eigenvalues --  -10.06533 -10.06304 -10.05793 -10.05261 -10.04514
 Alpha  occ. eigenvalues --  -10.04187 -10.04012 -10.03853 -10.03760  -0.84275
 Alpha  occ. eigenvalues --   -0.77723  -0.76310  -0.66553  -0.66368  -0.65183
 Alpha  occ. eigenvalues --   -0.60740  -0.57547  -0.52727  -0.52075  -0.47913
 Alpha  occ. eigenvalues --   -0.46973  -0.43453  -0.40175  -0.37492  -0.35468
 Alpha  occ. eigenvalues --   -0.34443  -0.33509  -0.33349  -0.32223  -0.31740
 Alpha  occ. eigenvalues --   -0.30204  -0.28863  -0.27901  -0.27126  -0.26727
 Alpha  occ. eigenvalues --   -0.25950  -0.24880  -0.24471  -0.23555  -0.22470
 Alpha  occ. eigenvalues --   -0.21508  -0.18089  -0.17742  -0.14119  -0.13411
 Alpha  occ. eigenvalues --   -0.11963  -0.08701   0.04895
 Alpha virt. eigenvalues --    0.07215   0.07763   0.08730   0.09391   0.09494
 Alpha virt. eigenvalues --    0.10127   0.10664   0.11150   0.11575   0.11870
 Alpha virt. eigenvalues --    0.12421   0.13430   0.13500   0.13842   0.14321

  Beta  occ. eigenvalues --  -14.20454 -14.16486 -14.13578 -10.11161 -10.09218
  Beta  occ. eigenvalues --  -10.06358 -10.06075 -10.05788 -10.05230 -10.04509
  Beta  occ. eigenvalues --  -10.04187 -10.03936 -10.03812 -10.03693  -0.84172
  Beta  occ. eigenvalues --   -0.77584  -0.75788  -0.66413  -0.66126  -0.65102
  Beta  occ. eigenvalues --   -0.60554  -0.57399  -0.52651  -0.51725  -0.47820
  Beta  occ. eigenvalues --   -0.46787  -0.43254  -0.39964  -0.37414  -0.35360
  Beta  occ. eigenvalues --   -0.34320  -0.33410  -0.33183  -0.32175  -0.31649
  Beta  occ. eigenvalues --   -0.30086  -0.28740  -0.27814  -0.26960  -0.26418
  Beta  occ. eigenvalues --   -0.25857  -0.24740  -0.24377  -0.23369  -0.22399
  Beta  occ. eigenvalues --   -0.21363  -0.17723  -0.16575  -0.13400  -0.12987
  Beta  occ. eigenvalues --   -0.11606  -0.08225
  Beta virt. eigenvalues --    0.07263   0.08069   0.08707   0.09423   0.09578
  Beta virt. eigenvalues --    0.09752   0.10339   0.10731   0.11299   0.11715
  Beta virt. eigenvalues --    0.12212   0.12680   0.13332   0.13487   0.13957

 Mulliken charges and spin densities:
               1          2
     1  C   -0.446635  -0.118308
     2  C    0.460693  -0.818485
     3  C   -0.273244   0.181920
     4  C   -0.556174  -0.017112
     5  N   -0.397877   0.235476
     6  C    3.112084  -0.309405
     7  C   -2.328273   0.063084
     8  N   -0.076616   0.004345
     9  C   -0.237145   0.100695
    10  C   -0.323397   0.119869
    11  C   -0.412148  -0.040634
    12  N    0.067941   0.062970
    13  C   -0.127430  -0.127511
    14  C   -0.262878  -0.138536
    15  H    0.118169   0.007228
    16  H    0.160918   0.007697
    17  H    0.084692   0.033712
    18  H    0.162859  -0.056846
    19  H   -0.490955   0.654718
    20  H   -0.507994   0.688380
    21  H    0.099029   0.077828
    22  H    0.118304   0.061316
    23  H    0.131754  -0.018326
    24  H    0.124039   0.004668
    25  H    0.179132  -0.015242
    26  H    0.303022  -0.020182
    27  H   -0.132380   0.264919
    28  H    0.168646   0.001974
    29  H    0.066909   0.051568
    30  H    0.076172   0.031455
    31  H    0.138781   0.026765
 Sum of Mulliken charges =  -1.00000   1.00000

 Dipole moment (field-independent basis, Debye):
    X=              2.9770    Y=              2.2135    Z=             -1.4163  Tot=              3.9709
 Quadrupole moment (field-independent basis, Debye-Ang):
   XX=           -124.1837   YY=           -119.8681   ZZ=           -113.2525
   XY=            -11.8031   XZ=              2.5178   YZ=             -3.0989

 Summary of Natural Population Analysis:

                                       Natural Population
                Natural  -----------------------------------------------
    Atom  No    Charge         Core      Valence    Rydberg      Total
 -----------------------------------------------------------------------
      C    1   -0.28789      0.99966     2.28273    0.00550     3.28789
      C    2   -0.18252      0.99964     2.17414    0.00874     3.18252
      C    3   -0.22562      0.99958     2.21522    0.01081     3.22562
      C    4    0.15498      0.99961     1.82819    0.01722     2.84502
      N    5   -0.28809      0.99971     2.78012    0.00826     3.78809
      C    6   -0.06827      0.99943     2.05763    0.01121     3.06827
      C    7    0.21229      0.99950     1.77321    0.01500     2.78771
      N    8   -0.27265      0.99967     2.76153    0.01146     3.77265
      C    9    0.07020      0.99960     1.91645    0.01375     2.92980
      C   10   -0.16609      0.99956     2.15799    0.00854     3.16609
      C   11   -0.02977      0.99953     2.02214    0.00810     3.02977
      N   12   -0.31536      0.99968     2.80612    0.00956     3.81536
      C   13   -0.08996      0.99964     2.07829    0.01203     3.08996
      C   14   -0.29368      0.99966     2.28995    0.00406     3.29368
      H   15    0.09641      0.00000     0.40274    0.00085     0.40359
      H   16    0.10267      0.00000     0.39638    0.00094     0.39733
      H   17    0.09175      0.00000     0.40758    0.00067     0.40825
      H   18    0.09009      0.00000     0.40880    0.00112     0.40991
      H   19    0.09383      0.00000     0.40427    0.00190     0.40617
      H   20    0.10477      0.00000     0.39158    0.00364     0.39523
      H   21    0.10577      0.00000     0.39251    0.00172     0.39423
      H   22    0.14944      0.00000     0.34847    0.00209     0.35056
      H   23    0.07765      0.00000     0.42125    0.00111     0.42235
      H   24    0.09489      0.00000     0.40411    0.00100     0.40511
      H   25    0.10214      0.00000     0.39663    0.00122     0.39786
      H   26    0.18834      0.00000     0.30945    0.00221     0.31166
      H   27    0.08857      0.00000     0.41032    0.00111     0.41143
      H   28    0.10383      0.00000     0.39475    0.00141     0.39617
      H   29    0.09242      0.00000     0.40637    0.00120     0.40758
      H   30    0.09198      0.00000     0.40702    0.00100     0.40802
      H   31    0.10786      0.00000     0.39094    0.00120     0.39214
 =======================================================================
   * Total *    0.00000     13.99447    37.83690    0.16863    52.00000

 Normal termination of Gaussian 16 at Thu Dec 10 10:55:48 2020.
