 Gaussian 16, Revision A.03,

 -----------------------------------------------------------
 # opt freq B3LYP/6-31G(d) empiricaldispersion=gd3bj scf=xqc
 -----------------------------------------------------------

 -----------------------------
 CID_9859346_JID_6102_neutraal
 -----------------------------
 Symbolic Z-matrix:
 Charge =  0 Multiplicity = 1

 SCF Done:  E(RB3LYP) =  -747.929183447     A.U. after   14 cycles
 SCF Done:  E(RB3LYP) =  -747.932729269     A.U. after   12 cycles
 SCF Done:  E(RB3LYP) =  -747.933371050     A.U. after   12 cycles
 SCF Done:  E(RB3LYP) =  -747.933458990     A.U. after   11 cycles
 SCF Done:  E(RB3LYP) =  -747.933631768     A.U. after   11 cycles
 SCF Done:  E(RB3LYP) =  -747.933644196     A.U. after    9 cycles
 SCF Done:  E(RB3LYP) =  -747.933647794     A.U. after    8 cycles
 SCF Done:  E(RB3LYP) =  -747.933648508     A.U. after    7 cycles
 SCF Done:  E(RB3LYP) =  -747.933648866     A.U. after    7 cycles
 SCF Done:  E(RB3LYP) =  -747.933648904     A.U. after    6 cycles
 Optimization completed.
    -- Stationary point found.
 Normal termination of Gaussian 16 at Thu Dec 10 21:08:13 2020.

 --------------------------------------------------------------------
 #N Geom=AllCheck Guess=TCheck SCRF=Check GenChk RB3LYP/6-31G(d) Freq
 --------------------------------------------------------------------

 Structure from the checkpoint file:  "JID_6102.chk"
 -----------------------------
 CID_9859346_JID_6102_neutraal
 -----------------------------
 Charge =  0 Multiplicity = 1

 SCF Done:  E(RB3LYP) =  -747.933648904     A.U. after    1 cycles

  Exact polarizability: 190.409   2.708 136.479   1.698   5.226  91.366
 Approx polarizability: 254.104   5.750 229.478   2.938  13.414 136.158

                      1                      2                      3
                      A                      A                      A
 Frequencies --     33.1226                46.6537                84.4841
 Red. masses --      5.7332                 6.1327                 4.2375
 Frc consts  --      0.0037                 0.0079                 0.0178
 IR Inten    --      0.0669                 0.3972                 0.0550

                      4                      5                      6
                      A                      A                      A
 Frequencies --    108.0778               172.7048               197.8730
 Red. masses --      4.5552                 3.7484                 4.0505
 Frc consts  --      0.0313                 0.0659                 0.0934
 IR Inten    --      0.7899                 0.1242                 0.8191

                      7                      8                      9
                      A                      A                      A
 Frequencies --    217.2939               233.2623               235.4540
 Red. masses --      3.4615                 5.0701                 4.4138
 Frc consts  --      0.0963                 0.1625                 0.1442
 IR Inten    --      1.0466                 2.6016                 0.2987

                     10                     11                     12
                      A                      A                      A
 Frequencies --    290.0688               295.6862               327.4788
 Red. masses --      1.8626                 2.2509                 1.5366
 Frc consts  --      0.0923                 0.1159                 0.0971
 IR Inten    --     34.2727                13.6980                44.9010

                     13                     14                     15
                      A                      A                      A
 Frequencies --    338.0123               342.4401               360.4204
 Red. masses --      1.1315                 5.0420                 1.1273
 Frc consts  --      0.0762                 0.3484                 0.0863
 IR Inten    --     33.7557                 7.7646               181.5089

                     16                     17                     18
                      A                      A                      A
 Frequencies --    385.3899               409.2488               432.2151
 Red. masses --      2.2788                 3.5998                 3.1624
 Frc consts  --      0.1994                 0.3552                 0.3481
 IR Inten    --      4.0039                 1.3606                 2.8829

                     19                     20                     21
                      A                      A                      A
 Frequencies --    445.7084               490.5118               517.5850
 Red. masses --      2.3989                 3.3049                 3.4975
 Frc consts  --      0.2808                 0.4685                 0.5520
 IR Inten    --      1.2004                 0.3374                 5.3990

                     22                     23                     24
                      A                      A                      A
 Frequencies --    535.4536               557.1734               589.2403
 Red. masses --      3.6007                 6.2621                 4.9773
 Frc consts  --      0.6082                 1.1454                 1.0182
 IR Inten    --      5.1870                 2.2194                 6.9180

                     25                     26                     27
                      A                      A                      A
 Frequencies --    636.1651               661.2794               725.8474
 Red. masses --      3.4385                 2.6913                 3.5624
 Frc consts  --      0.8199                 0.6934                 1.1058
 IR Inten    --      5.7145                 8.4185                 2.9993

                     28                     29                     30
                      A                      A                      A
 Frequencies --    758.8714               788.5700               793.4998
 Red. masses --      7.0982                 1.5787                 1.8465
 Frc consts  --      2.4084                 0.5784                 0.6850
 IR Inten    --      1.9157                10.6965                 7.7309

                     31                     32                     33
                      A                      A                      A
 Frequencies --    795.6482               810.5681               822.0481
 Red. masses --      1.9745                 2.8883                 1.5670
 Frc consts  --      0.7365                 1.1181                 0.6239
 IR Inten    --      1.4763                12.8590                33.3126

                     34                     35                     36
                      A                      A                      A
 Frequencies --    870.9981               905.9692               918.5218
 Red. masses --      3.0276                 2.7286                 1.7955
 Frc consts  --      1.3533                 1.3195                 0.8925
 IR Inten    --      8.1061                20.6674                 9.7785

                     37                     38                     39
                      A                      A                      A
 Frequencies --    935.3315               964.3147               991.1541
 Red. masses --      1.6769                 1.4807                 3.6987
 Frc consts  --      0.8643                 0.8112                 2.1408
 IR Inten    --      2.5134                 7.4181                14.9614

                     40                     41                     42
                      A                      A                      A
 Frequencies --   1003.5921              1021.4043              1040.8153
 Red. masses --      3.4713                 2.0261                 1.9805
 Frc consts  --      2.0599                 1.2454                 1.2640
 IR Inten    --     61.1650                 5.9716                 7.3766

                     43                     44                     45
                      A                      A                      A
 Frequencies --   1072.2809              1093.6391              1100.7968
 Red. masses --      1.5556                 1.9800                 1.4565
 Frc consts  --      1.0538                 1.3953                 1.0399
 IR Inten    --     25.4944                 6.6468                 1.2974

                     46                     47                     48
                      A                      A                      A
 Frequencies --   1139.3078              1177.4473              1188.2098
 Red. masses --      1.8642                 1.6843                 1.7875
 Frc consts  --      1.4257                 1.3758                 1.4869
 IR Inten    --    112.7494                32.7933                35.7955

                     49                     50                     51
                      A                      A                      A
 Frequencies --   1194.4792              1205.4212              1218.4442
 Red. masses --      1.3940                 1.5224                 1.4217
 Frc consts  --      1.1719                 1.3033                 1.2436
 IR Inten    --    102.7026                34.7186                 1.0095

                     52                     53                     54
                      A                      A                      A
 Frequencies --   1241.5396              1250.2497              1271.1468
 Red. masses --      1.6095                 1.7152                 1.6592
 Frc consts  --      1.4617                 1.5797                 1.5796
 IR Inten    --     19.2307                51.8032                34.8471

                     55                     56                     57
                      A                      A                      A
 Frequencies --   1302.0579              1315.9473              1340.8117
 Red. masses --      1.4366                 1.3770                 1.8057
 Frc consts  --      1.4350                 1.4049                 1.9127
 IR Inten    --     14.9911                39.3744                22.4216

                     58                     59                     60
                      A                      A                      A
 Frequencies --   1346.7947              1351.1798              1361.1146
 Red. masses --      1.3585                 2.1946                 1.5969
 Frc consts  --      1.4518                 2.3607                 1.7431
 IR Inten    --      5.6387                60.8681                 5.1149

                     61                     62                     63
                      A                      A                      A
 Frequencies --   1377.6365              1383.1726              1394.1630
 Red. masses --      1.3038                 1.3594                 1.3044
 Frc consts  --      1.4579                 1.5323                 1.4938
 IR Inten    --     15.4862                 4.5098                 1.2922

                     64                     65                     66
                      A                      A                      A
 Frequencies --   1399.0596              1403.7537              1416.2530
 Red. masses --      2.5021                 1.5040                 1.3602
 Frc consts  --      2.8855                 1.7461                 1.6075
 IR Inten    --     32.1392                 0.5566                29.7418

                     67                     68                     69
                      A                      A                      A
 Frequencies --   1430.0542              1505.6270              1507.0688
 Red. masses --      1.4859                 1.2263                 2.2973
 Frc consts  --      1.7904                 1.6379                 3.0742
 IR Inten    --     10.7353                13.7572                68.2427

                     70                     71                     72
                      A                      A                      A
 Frequencies --   1514.8911              1524.4796              1536.5774
 Red. masses --      1.1087                 1.0941                 1.0896
 Frc consts  --      1.4992                 1.4982                 1.5158
 IR Inten    --      5.4363                 6.9779                 2.9663

                     73                     74                     75
                      A                      A                      A
 Frequencies --   1551.6191              1571.1902              1660.0266
 Red. masses --      1.0868                 2.9601                 6.0640
 Frc consts  --      1.5416                 4.3055                 9.8455
 IR Inten    --      5.5005                84.6059                44.0159

                     76                     77                     78
                      A                      A                      A
 Frequencies --   1684.9573              3006.3878              3030.1771
 Red. masses --      6.3296                 1.0832                 1.0702
 Frc consts  --     10.5878                 5.7683                 5.7895
 IR Inten    --    133.5249                18.9533                18.9367

                     79                     80                     81
                      A                      A                      A
 Frequencies --   3038.0756              3056.9709              3059.2864
 Red. masses --      1.0665                 1.0677                 1.0712
 Frc consts  --      5.8000                 5.8789                 5.9068
 IR Inten    --     20.2197                46.8826                61.7352

                     82                     83                     84
                      A                      A                      A
 Frequencies --   3062.2072              3087.5859              3104.1859
 Red. masses --      1.0781                 1.0987                 1.0946
 Frc consts  --      5.9564                 6.1709                 6.2145
 IR Inten    --     38.2607                33.4832                14.5537

                     85                     86                     87
                      A                      A                      A
 Frequencies --   3109.7850              3113.0494              3173.3779
 Red. masses --      1.0964                 1.0963                 1.0872
 Frc consts  --      6.2474                 6.2599                 6.4505
 IR Inten    --      8.5655                50.7001                18.1262

                     88                     89                     90
                      A                      A                      A
 Frequencies --   3187.4859              3191.5263              3464.6854
 Red. masses --      1.0910                 1.0938                 1.0746
 Frc consts  --      6.5307                 6.5642                 7.6002
 IR Inten    --     13.8094                11.6922                 0.9277

                     91                     92                     93
                      A                      A                      A
 Frequencies --   3747.4054              3751.7630              3754.3936
 Red. masses --      1.0684                 1.0659                 1.0659
 Frc consts  --      8.8397                 8.8401                 8.8522
 IR Inten    --     31.3419                41.4766                48.9843

 - Thermochemistry -
 -------------------
 Temperature   298.150 Kelvin.  Pressure   1.00000 Atm.
 Atom     1 has atomic number  6 and mass  12.00000

 Molecular mass:   223.12084 amu.
 Principal axes and moments of inertia in atomic units:
                           1         2         3
     Eigenvalues --  1373.349636968.828287515.67128
           X            1.00000  -0.00193   0.00104
           Y            0.00192   0.99997   0.00694
           Z           -0.00106  -0.00693   0.99998
 This molecule is an asymmetric top.
 Rotational symmetry number  1.
 Warning -- assumption of classical behavior for rotation
           may cause significant error
 Rotational temperatures (Kelvin)      0.06307     0.01243     0.01152
 Rotational constants (GHZ):           1.31412     0.25897     0.24013
 Zero-point vibrational energy     742043.0 (Joules/Mol)
                                  177.35254 (Kcal/Mol)
 Warning -- explicit consideration of  24 degrees of freedom as
           vibrations may cause significant error
 Vibrational temperatures:     47.66    67.12   121.55   155.50   248.48
          (Kelvin)            284.70   312.64   335.61   338.77   417.34
                              425.43   471.17   486.32   492.69   518.56
                              554.49   588.82   621.86   641.28   705.74
                              744.69   770.40   801.65   847.79   915.30
                              951.43  1044.33  1091.85  1134.58  1141.67
                             1144.76  1166.23  1182.74  1253.17  1303.49
                             1321.55  1345.73  1387.43  1426.05  1443.95
                             1469.57  1497.50  1542.77  1573.50  1583.80
                             1639.21  1694.08  1709.57  1718.59  1734.33
                             1753.07  1786.30  1798.83  1828.90  1873.37
                             1893.35  1929.13  1937.74  1944.05  1958.34
                             1982.11  1990.08  2005.89  2012.93  2019.69
                             2037.67  2057.53  2166.26  2168.34  2179.59
                             2193.39  2210.79  2232.43  2260.59  2388.41
                             2424.28  4325.52  4359.75  4371.11  4398.30
                             4401.63  4405.83  4442.35  4466.23  4474.29
                             4478.98  4565.78  4586.08  4591.89  4984.91
                             5391.68  5397.95  5401.73

 Zero-point correction=                           0.282629 (Hartree/Particle)
 Thermal correction to Energy=                    0.297499
 Thermal correction to Enthalpy=                  0.298444
 Thermal correction to Gibbs Free Energy=         0.240916
 Sum of electronic and zero-point Energies=           -747.651020
 Sum of electronic and thermal Energies=              -747.636150
 Sum of electronic and thermal Enthalpies=            -747.635205
 Sum of electronic and thermal Free Energies=         -747.692733

                     E (Thermal)             CV                S
                      KCal/Mol        Cal/Mol-Kelvin    Cal/Mol-Kelvin
 Total                  186.684             59.413            121.078
 Electronic               0.000              0.000              0.000
 Translational            0.889              2.981             42.110
 Rotational               0.889              2.981             32.642
 Vibrational            184.906             53.452             46.326
 Vibration     1          0.594              1.983              5.633
 Vibration     2          0.595              1.979              4.954
 Vibration     3          0.601              1.960              3.784
 Vibration     4          0.606              1.943              3.303
 Vibration     5          0.626              1.876              2.406
 Vibration     6          0.637              1.843              2.153
 Vibration     7          0.646              1.815              1.982
 Vibration     8          0.654              1.790              1.854
 Vibration     9          0.655              1.787              1.837
 Vibration    10          0.686              1.692              1.474
 Vibration    11          0.690              1.682              1.441
 Vibration    12          0.711              1.621              1.272
 Vibration    13          0.718              1.600              1.222
 Vibration    14          0.722              1.591              1.201
 Vibration    15          0.735              1.554              1.120
 Vibration    16          0.754              1.501              1.018
 Vibration    17          0.774              1.450              0.929
 Vibration    18          0.793              1.400              0.851
 Vibration    19          0.805              1.370              0.809
 Vibration    20          0.846              1.271              0.682
 Vibration    21          0.873              1.211              0.616
 Vibration    22          0.890              1.172              0.575
 Vibration    23          0.913              1.124              0.530
 Vibration    24          0.947              1.055              0.469

                           ! Non-Optimized Parameters !
 Normal termination of Gaussian 16 at Thu Dec 10 21:18:58 2020.

 ----------------------------------------------------------------------
 # B3LYP/6-311++G(d,p) empiricaldispersion=gd3bj scf=xqc pop=npa geom=c
 heck
 ----------------------------------------------------------------------

 -------------------------------------
 CID_9859346_JID_6102_Energie_neutraal
 -------------------------------------
 Structure from the checkpoint file:  "JID_6102.chk"
 Charge =  0 Multiplicity = 1

 SCF Done:  E(RB3LYP) =  -748.168048078     A.U. after   15 cycles
 Normal termination of Gaussian 16 at Thu Dec 10 21:23:23 2020.

 ----------------------------------------------------------------------
 # B3LYP/6-311++G(d,p) empiricaldispersion=gd3bj scf=xqc pop=npa geom=c
 heck
 ----------------------------------------------------------------------

 -----------------------------------
 CID_9859346_JID_6102_Energie_kation
 -----------------------------------
 Structure from the checkpoint file:  "JID_6102.chk"
 Charge =  1 Multiplicity = 2

 SCF Done:  E(UB3LYP) =  -747.882707008     A.U. after   23 cycles
 Normal termination of Gaussian 16 at Thu Dec 10 21:32:47 2020.
 Gaussian 16:  ES64L-G16RevA.03 25-Dec-2016

 ----------------------------------------------------------------------
 # B3LYP/6-311++G(d,p) empiricaldispersion=gd3bj scf=xqc pop=npa geom=c
 heck
 ----------------------------------------------------------------------

 ----------------------------------
 CID_9859346_JID_6102_Energie_anion
 ----------------------------------
 Structure from the checkpoint file:  "JID_6102.chk"
 Charge = -1 Multiplicity = 2

                         Standard orientation:
 ---------------------------------------------------------------------
 Center     Atomic      Atomic             Coordinates (Angstroms)
 Number     Number       Type             X           Y           Z
 ---------------------------------------------------------------------
      1          6           0        1.148808   -0.354765   -1.228465
      2          6           0        2.620374   -0.784943   -1.222651
      3          6           0        3.296566   -0.502055    0.130368
      4          6           0        2.520740   -1.185581    1.266619
      5          6           0        1.041562   -0.774793    1.295301
      6          6           0        0.350225   -0.992362   -0.069428
      7          6           0       -1.097351   -0.544447   -0.055249
      8          6           0       -1.476732    0.797189    0.152626
      9          6           0       -2.814661    1.186458    0.157229
     10          6           0       -3.818454    0.237854   -0.047704
     11          6           0       -3.478432   -1.098526   -0.255956
     12          6           0       -2.130951   -1.460936   -0.255543
     13          8           0       -5.110813    0.686080   -0.031479
     14          8           0       -0.483479    1.726470    0.354374
     15          7           0        3.423860    0.928949    0.461253
     16          8           0        4.111125    1.585910   -0.634555
     17          1           0        0.679660   -0.632691   -2.179846
     18          1           0        1.079179    0.735688   -1.163058
     19          1           0        2.692231   -1.863197   -1.424931
     20          1           0        3.169941   -0.269638   -2.016206
     21          1           0        4.321501   -0.891517    0.109328
     22          1           0        2.995917   -0.955828    2.227086
     23          1           0        2.594855   -2.271404    1.118783
     24          1           0        0.947729    0.275242    1.589258
     25          1           0        0.509531   -1.353381    2.060258
     26          1           0        0.345213   -2.077720   -0.250203
     27          1           0       -3.095708    2.224094    0.318597
     28          1           0       -4.251814   -1.846052   -0.416665
     29          1           0       -1.869368   -2.503351   -0.419053
     30          1           0       -5.700789   -0.067546   -0.186338
     31          1           0       -0.893184    2.597374    0.472043
     32          1           0        2.495093    1.351018    0.418009
     33          1           0        4.908172    1.920022   -0.195410
 ---------------------------------------------------------------------

 SCF Done:  E(UB3LYP) =  -748.157099225     A.U. after   33 cycles
 SCF Done:  E(UB3LYP) =  -748.157099225     a.u. after    1 cycles

 The electronic state is 2-A.
 Alpha  occ. eigenvalues --  -19.05900 -19.05736 -19.05230 -14.25743 -10.14146
 Alpha  occ. eigenvalues --  -10.13892 -10.10785 -10.08533 -10.08067 -10.07938
 Alpha  occ. eigenvalues --  -10.07643 -10.07177 -10.07172 -10.07119 -10.06891
 Alpha  occ. eigenvalues --  -10.06834  -0.96911  -0.96670  -0.96268  -0.77485
 Alpha  occ. eigenvalues --   -0.75745  -0.71337  -0.66070  -0.65371  -0.64683
 Alpha  occ. eigenvalues --   -0.61373  -0.54178  -0.52996  -0.52398  -0.49913
 Alpha  occ. eigenvalues --   -0.46858  -0.45855  -0.42341  -0.40705  -0.40030
 Alpha  occ. eigenvalues --   -0.39331  -0.38372  -0.36075  -0.34787  -0.34532
 Alpha  occ. eigenvalues --   -0.33553  -0.33012  -0.32947  -0.30509  -0.30103
 Alpha  occ. eigenvalues --   -0.29839  -0.29109  -0.28902  -0.27940  -0.27020
 Alpha  occ. eigenvalues --   -0.25572  -0.25472  -0.22985  -0.22541  -0.21518
 Alpha  occ. eigenvalues --   -0.21123  -0.20181  -0.15643  -0.14392  -0.11979
 Alpha  occ. eigenvalues --    0.04080
 Alpha virt. eigenvalues --    0.05439   0.05924   0.06700   0.07901   0.08203
 Alpha virt. eigenvalues --    0.08765   0.09384   0.09823   0.10281   0.10443
 Alpha virt. eigenvalues --    0.10959   0.11292   0.11867   0.12500   0.13473

  Beta  occ. eigenvalues --  -19.05856 -19.05715 -19.05181 -14.25732 -10.14144
  Beta  occ. eigenvalues --  -10.13893 -10.10780 -10.08530 -10.08063 -10.07933
  Beta  occ. eigenvalues --  -10.07640 -10.07167 -10.07151 -10.07114 -10.06859
  Beta  occ. eigenvalues --  -10.06827  -0.96825  -0.96632  -0.96176  -0.77460
  Beta  occ. eigenvalues --   -0.75717  -0.71313  -0.66039  -0.65359  -0.64639
  Beta  occ. eigenvalues --   -0.61339  -0.54117  -0.52956  -0.52379  -0.49857
  Beta  occ. eigenvalues --   -0.46788  -0.45828  -0.42302  -0.40654  -0.39972
  Beta  occ. eigenvalues --   -0.39273  -0.38344  -0.36056  -0.34760  -0.34508
  Beta  occ. eigenvalues --   -0.33520  -0.32985  -0.32913  -0.30475  -0.30078
  Beta  occ. eigenvalues --   -0.29804  -0.29085  -0.28885  -0.27914  -0.26990
  Beta  occ. eigenvalues --   -0.25543  -0.25442  -0.22966  -0.22522  -0.21503
  Beta  occ. eigenvalues --   -0.21102  -0.20158  -0.15624  -0.14368  -0.11959
  Beta virt. eigenvalues --    0.05870   0.06726   0.07079   0.07686   0.07999
  Beta virt. eigenvalues --    0.08514   0.08754   0.09510   0.10161   0.10283
  Beta virt. eigenvalues --    0.10707   0.10983   0.11156   0.11963   0.12707

 Mulliken charges and spin densities:
               1          2
     1  C   -0.170437  -0.277670
     2  C   -0.420588  -0.347342
     3  C    0.107926   0.144694
     4  C   -0.225427  -0.534324
     5  C   -0.268278  -0.253322
     6  C    1.005482  -0.652218
     7  C    2.173171  -1.548343
     8  C    0.632315  -0.781819
     9  C   -1.452832   1.355394
    10  C    2.138138  -2.659334
    11  C   -0.770539   0.559249
    12  C   -1.948307   1.770294
    13  O   -0.268184   0.037685
    14  O   -0.236736   0.041296
    15  N   -0.193870  -0.133989
    16  O   -0.189833   0.039219
    17  H    0.121745   0.049421
    18  H    0.071638   0.115335
    19  H    0.049090   0.068677
    20  H    0.194925   0.003694
    21  H   -0.113987   0.354695
    22  H    0.084555   0.092786
    23  H    0.102076   0.022348
    24  H    0.068642   0.118637
    25  H    0.140914   0.023821
    26  H    0.113309   0.077589
    27  H   -0.459004   0.623012
    28  H   -1.199860   1.370145
    29  H   -0.016092   0.159168
    30  H   -0.201594   0.480013
    31  H   -0.259649   0.545825
    32  H    0.322271  -0.061748
    33  H    0.069021   0.197109
 Sum of Mulliken charges =  -1.00000   1.00000

 Dipole moment (field-independent basis, Debye):
    X=              7.5989    Y=             -2.3701    Z=              0.3775  Tot=              7.9689
 Quadrupole moment (field-independent basis, Debye-Ang):
   XX=           -210.2723   YY=           -135.2113   ZZ=           -122.1379
   XY=            -10.6401   XZ=             -1.8869   YZ=             -1.7413

 Summary of Natural Population Analysis:

                                       Natural Population
                Natural  -----------------------------------------------
    Atom  No    Charge         Core      Valence    Rydberg      Total
 -----------------------------------------------------------------------
      C    1   -0.19294      0.99960     2.18553    0.00780     3.19294
      C    2   -0.19940      0.99961     2.19211    0.00768     3.19940
      C    3   -0.01642      0.99959     2.00089    0.01594     3.01642
      C    4   -0.19208      0.99960     2.18430    0.00817     3.19208
      C    5   -0.19131      0.99960     2.18431    0.00740     3.19131
      C    6   -0.11196      0.99957     2.10135    0.01104     3.11196
      C    7   -0.05444      0.99945     2.04263    0.01236     3.05444
      C    8    0.17003      0.99935     1.81760    0.01303     2.82997
      C    9   -0.15862      0.99948     2.14928    0.00987     3.15862
      C   10    0.16628      0.99939     1.82075    0.01358     2.83372
      C   11   -0.14993      0.99952     2.13971    0.01070     3.14993
      C   12   -0.08020      0.99953     2.07117    0.00950     3.08020
      O   13   -0.33989      0.99988     3.33294    0.00707     4.33989
      O   14   -0.34775      0.99988     3.34017    0.00770     4.34775
      N   15   -0.18967      0.99972     2.67536    0.01459     3.68967
      O   16   -0.30312      0.99991     3.29613    0.00708     4.30312
      H   17    0.10088      0.00000     0.39817    0.00095     0.39912
      H   18    0.10463      0.00000     0.39342    0.00196     0.39537
      H   19    0.09358      0.00000     0.40524    0.00119     0.40642
      H   20    0.10864      0.00000     0.39016    0.00120     0.39136
      H   21    0.09509      0.00000     0.40374    0.00117     0.40491
      H   22    0.10330      0.00000     0.39548    0.00123     0.39670
      H   23    0.09579      0.00000     0.40308    0.00113     0.40421
      H   24    0.10399      0.00000     0.39409    0.00192     0.39601
      H   25    0.10027      0.00000     0.39877    0.00096     0.39973
      H   26    0.09370      0.00000     0.40419    0.00212     0.40630
      H   27    0.10686      0.00000     0.39173    0.00141     0.39314
      H   28    0.10534      0.00000     0.39133    0.00333     0.39466
      H   29    0.09826      0.00000     0.40073    0.00102     0.40174
      H   30    0.24046      0.00000     0.24718    0.01235     0.25954
      H   31    0.24002      0.00000     0.25272    0.00726     0.25998
      H   32    0.16966      0.00000     0.32638    0.00396     0.33034
      H   33    0.23095      0.00000     0.26559    0.00346     0.26905
 =======================================================================
   * Total *    0.00000     15.99367    43.79622    0.21011    60.00000

 Normal termination of Gaussian 16 at Thu Dec 10 21:48:18 2020.
