 Gaussian 16, Revision A.03,

 -----------------------------------------------------------
 # opt freq B3LYP/6-31G(d) empiricaldispersion=gd3bj scf=xqc
 -----------------------------------------------------------

 -------------------------------
 CID_131237124_JID_2674_neutraal
 -------------------------------
 Symbolic Z-matrix:
 Charge =  0 Multiplicity = 1

 SCF Done:  E(RB3LYP) =  -500.345727554     A.U. after   15 cycles
 SCF Done:  E(RB3LYP) =  -500.349737797     A.U. after   14 cycles
 SCF Done:  E(RB3LYP) =  -500.349135907     A.U. after   13 cycles
 SCF Done:  E(RB3LYP) =  -500.350486403     A.U. after   14 cycles
 SCF Done:  E(RB3LYP) =  -500.350650936     A.U. after   12 cycles
 SCF Done:  E(RB3LYP) =  -500.350741900     A.U. after   13 cycles
 SCF Done:  E(RB3LYP) =  -500.350765157     A.U. after   12 cycles
 SCF Done:  E(RB3LYP) =  -500.350784475     A.U. after   13 cycles
 SCF Done:  E(RB3LYP) =  -500.350810106     A.U. after   13 cycles
 SCF Done:  E(RB3LYP) =  -500.351047084     A.U. after   17 cycles
 SCF Done:  E(RB3LYP) =  -500.351729062     A.U. after   13 cycles
 SCF Done:  E(RB3LYP) =  -500.351744180     A.U. after   11 cycles
 SCF Done:  E(RB3LYP) =  -500.351748364     A.U. after   12 cycles
 SCF Done:  E(RB3LYP) =  -500.351754969     A.U. after   11 cycles
 SCF Done:  E(RB3LYP) =  -500.351755695     A.U. after    8 cycles
 SCF Done:  E(RB3LYP) =  -500.351755811     A.U. after    8 cycles
 Optimization completed.
    -- Stationary point found.
 Normal termination of Gaussian 16 at Wed Dec  9 17:40:13 2020.

 --------------------------------------------------------------------
 #N Geom=AllCheck Guess=TCheck SCRF=Check GenChk RB3LYP/6-31G(d) Freq
 --------------------------------------------------------------------

 Structure from the checkpoint file:  "JID_2674.chk"
 -------------------------------
 CID_131237124_JID_2674_neutraal
 -------------------------------
 Charge =  0 Multiplicity = 1

 SCF Done:  E(RB3LYP) =  -500.351755811     A.U. after    1 cycles

  Exact polarizability: 189.391   6.015 113.818   5.867   3.541  76.715
 Approx polarizability: 287.174   7.837 195.723   6.353   7.218 126.179

                      1                      2                      3
                      A                      A                      A
 Frequencies --     48.4625                90.2928               106.9193
 Red. masses --      5.5315                 5.7527                 2.0678
 Frc consts  --      0.0077                 0.0276                 0.0139
 IR Inten    --      1.7277                 2.2818                 4.0149

                      4                      5                      6
                      A                      A                      A
 Frequencies --    145.3233               205.2645               212.4486
 Red. masses --      4.0318                 3.1846                 4.0012
 Frc consts  --      0.0502                 0.0791                 0.1064
 IR Inten    --      0.9724                 1.4062                 3.8328

                      7                      8                      9
                      A                      A                      A
 Frequencies --    241.0796               273.8888               318.3998
 Red. masses --      4.6028                 4.0966                 2.6607
 Frc consts  --      0.1576                 0.1811                 0.1589
 IR Inten    --      3.9966                 2.1922                 2.6791

                     10                     11                     12
                      A                      A                      A
 Frequencies --    344.4888               364.8187               400.3386
 Red. masses --      3.8706                 2.4819                 5.0582
 Frc consts  --      0.2706                 0.1946                 0.4776
 IR Inten    --      7.9381                 0.6013                 2.7637

                     13                     14                     15
                      A                      A                      A
 Frequencies --    490.5026               588.0883               646.6259
 Red. masses --      2.8578                 3.8080                 3.1494
 Frc consts  --      0.4051                 0.7760                 0.7759
 IR Inten    --      2.7415                 3.9121                16.3916

                     16                     17                     18
                      A                      A                      A
 Frequencies --    658.7131               671.8397               730.4909
 Red. masses --      2.6453                 1.9880                 1.8718
 Frc consts  --      0.6763                 0.5287                 0.5885
 IR Inten    --     14.4884                34.7083                21.9559

                     19                     20                     21
                      A                      A                      A
 Frequencies --    795.4653               803.5225               837.2574
 Red. masses --      2.3377                 2.0689                 2.5001
 Frc consts  --      0.8715                 0.7870                 1.0326
 IR Inten    --     23.1343                 6.5309                14.4314

                     22                     23                     24
                      A                      A                      A
 Frequencies --    867.4251               912.8565               934.3201
 Red. masses --      2.0853                 1.8447                 3.0801
 Frc consts  --      0.9244                 0.9057                 1.5842
 IR Inten    --      0.2701                 2.6028                 1.7262

                     25                     26                     27
                      A                      A                      A
 Frequencies --    960.7845               976.7322               995.5520
 Red. masses --      2.7187                 1.5396                 1.2861
 Frc consts  --      1.4787                 0.8654                 0.7510
 IR Inten    --      0.8800                 1.4700                 0.8762

                     28                     29                     30
                      A                      A                      A
 Frequencies --   1003.1327              1004.3924              1005.5377
 Red. masses --      1.5680                 1.6112                 1.4282
 Frc consts  --      0.9296                 0.9576                 0.8508
 IR Inten    --      3.4492                12.0381                 9.8138

                     31                     32                     33
                      A                      A                      A
 Frequencies --   1037.6806              1085.6481              1154.6831
 Red. masses --      1.3811                 1.9998                 3.0249
 Frc consts  --      0.8762                 1.3887                 2.3762
 IR Inten    --      9.5916                 3.2771               203.2199

                     34                     35                     36
                      A                      A                      A
 Frequencies --   1183.2383              1252.6314              1254.8479
 Red. masses --      2.8226                 1.0590                 1.1000
 Frc consts  --      2.3283                 0.9790                 1.0205
 IR Inten    --      5.4096                 0.9877                 1.1288

                     37                     38                     39
                      A                      A                      A
 Frequencies --   1270.2609              1278.0983              1344.9205
 Red. masses --      1.1467                 1.3594                 1.4438
 Frc consts  --      1.0901                 1.3084                 1.5387
 IR Inten    --      2.0364                 0.3457                 7.8530

                     40                     41                     42
                      A                      A                      A
 Frequencies --   1380.8758              1423.5661              1444.5793
 Red. masses --      1.2785                 1.3878                 1.2752
 Frc consts  --      1.4364                 1.6570                 1.5679
 IR Inten    --      5.5090                 6.3203                 1.4436

                     43                     44                     45
                      A                      A                      A
 Frequencies --   1450.3555              1483.0953              1658.5644
 Red. masses --      1.4724                 1.8381                 6.1031
 Frc consts  --      1.8248                 2.3820                 9.8916
 IR Inten    --      0.1707                 1.0224               145.1835

                     46                     47                     48
                      A                      A                      A
 Frequencies --   1704.6386              1707.7676              1723.6067
 Red. masses --      5.8056                 6.8008                 5.9551
 Frc consts  --      9.9394                11.6861                10.4235
 IR Inten    --      1.6069                 1.2384                 1.4804

                     49                     50                     51
                      A                      A                      A
 Frequencies --   1742.3679              1787.1986              2889.1755
 Red. masses --      8.9448                 9.2999                 1.0830
 Frc consts  --     15.9993                17.5015                 5.3264
 IR Inten    --      1.1655               379.2568               146.0278

                     52                     53                     54
                      A                      A                      A
 Frequencies --   3127.0337              3130.6668              3135.1105
 Red. masses --      1.0820                 1.0819                 1.0845
 Frc consts  --      6.2337                 6.2477                 6.2806
 IR Inten    --      1.8341                 0.4652                 5.4091

                     55                     56                     57
                      A                      A                      A
 Frequencies --   3136.7596              3145.9429              3148.9994
 Red. masses --      1.0853                 1.0884                 1.0917
 Frc consts  --      6.2917                 6.3464                 6.3783
 IR Inten    --      6.8633                25.0419                48.3519

                     58                     59                     60
                      A                      A                      A
 Frequencies --   3154.5451              3160.0049              3202.0409
 Red. masses --      1.0924                 1.0944                 1.0907
 Frc consts  --      6.4048                 6.4387                 6.5886
 IR Inten    --     60.2740                27.6207                 4.4059

 - Thermochemistry -
 -------------------
 Temperature   298.150 Kelvin.  Pressure   1.00000 Atm.
 Atom     1 has atomic number  6 and mass  12.00000

 Molecular mass:   158.07317 amu.
 Principal axes and moments of inertia in atomic units:
                           1         2         3
     Eigenvalues --   885.260554039.945494398.01220
           X            0.99995   0.00568   0.00877
           Y           -0.00578   0.99993   0.01067
           Z           -0.00871  -0.01072   0.99990
 This molecule is an asymmetric top.
 Rotational symmetry number  1.
 Warning -- assumption of classical behavior for rotation
           may cause significant error
 Rotational temperatures (Kelvin)      0.09784     0.02144     0.01969
 Rotational constants (GHZ):           2.03866     0.44672     0.41035
 Zero-point vibrational energy     461961.1 (Joules/Mol)
                                  110.41136 (Kcal/Mol)
 Warning -- explicit consideration of  14 degrees of freedom as
           vibrations may cause significant error
 Vibrational temperatures:     69.73   129.91   153.83   209.09   295.33
          (Kelvin)            305.67   346.86   394.06   458.11   495.64
                              524.89   576.00   705.72   846.13   930.35
                              947.74   966.63  1051.01  1144.50  1156.09
                             1204.63  1248.03  1313.40  1344.28  1382.35
                             1405.30  1432.38  1443.28  1445.10  1446.74
                             1492.99  1562.01  1661.33  1702.42  1802.26
                             1805.45  1827.62  1838.90  1935.04  1986.77
                             2048.19  2078.43  2086.74  2133.84  2386.30
                             2452.59  2457.10  2479.89  2506.88  2571.38
                             4156.88  4499.10  4504.33  4510.72  4513.10
                             4526.31  4530.71  4538.69  4546.54  4607.02

 Zero-point correction=                           0.175952 (Hartree/Particle)
 Thermal correction to Energy=                    0.186921
 Thermal correction to Enthalpy=                  0.187865
 Thermal correction to Gibbs Free Energy=         0.138718
 Sum of electronic and zero-point Energies=           -500.175804
 Sum of electronic and thermal Energies=              -500.164835
 Sum of electronic and thermal Enthalpies=            -500.163891
 Sum of electronic and thermal Free Energies=         -500.213038

                     E (Thermal)             CV                S
                      KCal/Mol        Cal/Mol-Kelvin    Cal/Mol-Kelvin
 Total                  117.295             41.226            103.439
 Electronic               0.000              0.000              0.000
 Translational            0.889              2.981             41.083
 Rotational               0.889              2.981             31.131
 Vibrational            115.517             35.265             31.225
 Vibration     1          0.595              1.978              4.879
 Vibration     2          0.602              1.956              3.654
 Vibration     3          0.606              1.944              3.324
 Vibration     4          0.617              1.908              2.733
 Vibration     5          0.640              1.832              2.085
 Vibration     6          0.643              1.822              2.023
 Vibration     7          0.658              1.777              1.795
 Vibration     8          0.676              1.722              1.572
 Vibration     9          0.705              1.638              1.318
 Vibration    10          0.723              1.586              1.191
 Vibration    11          0.738              1.545              1.101
 Vibration    12          0.766              1.469              0.961
 Vibration    13          0.846              1.271              0.682
 Vibration    14          0.945              1.057              0.471

 Optimization completed.
    -- Stationary point found.
 Normal termination of Gaussian 16 at Wed Dec  9 17:45:08 2020.

 ----------------------------------------------------------------------
 # B3LYP/6-311++G(d,p) empiricaldispersion=gd3bj scf=xqc pop=npa geom=c
 heck
 ----------------------------------------------------------------------

 ---------------------------------------
 CID_131237124_JID_2674_Energie_neutraal
 ---------------------------------------
 Structure from the checkpoint file:  "JID_2674.chk"
 Charge =  0 Multiplicity = 1

 SCF Done:  E(RB3LYP) =  -500.491855480     A.U. after   16 cycles
 Normal termination of Gaussian 16 at Wed Dec  9 17:47:45 2020.

 ----------------------------------------------------------------------
 # B3LYP/6-311++G(d,p) empiricaldispersion=gd3bj scf=xqc pop=npa geom=c
 heck
 ----------------------------------------------------------------------

 -------------------------------------
 CID_131237124_JID_2674_Energie_kation
 -------------------------------------
 Structure from the checkpoint file:  "JID_2674.chk"
 Charge =  1 Multiplicity = 2

 SCF Done:  E(UB3LYP) =  -500.197571449     A.U. after   24 cycles
 Normal termination of Gaussian 16 at Wed Dec  9 17:53:32 2020.
 Gaussian 16:  ES64L-G16RevA.03 25-Dec-2016

 ----------------------------------------------------------------------
 # B3LYP/6-311++G(d,p) empiricaldispersion=gd3bj scf=xqc pop=npa geom=c
 heck
 ----------------------------------------------------------------------

 ------------------------------------
 CID_131237124_JID_2674_Energie_anion
 ------------------------------------
 Structure from the checkpoint file:  "JID_2674.chk"
 Charge = -1 Multiplicity = 2

                         Standard orientation:
 ---------------------------------------------------------------------
 Center     Atomic      Atomic             Coordinates (Angstroms)
 Number     Number       Type             X           Y           Z
 ---------------------------------------------------------------------
      1          6           0        2.885564    0.207622    1.101667
      2          6           0        2.488198   -1.067415    0.980116
      3          6           0        1.911970   -1.689918   -0.222484
      4          6           0        0.833868   -1.280503   -0.900133
      5          6           0       -0.048673   -0.131450   -0.576352
      6          6           0        0.373318    1.153302   -0.509355
      7          6           0        1.741396    1.657286   -0.623095
      8          6           0        2.819582    1.255712    0.073326
      9          6           0       -1.470910   -0.463512   -0.471860
     10          6           0       -2.427563    0.236455    0.173357
     11          6           0       -3.818671   -0.218254    0.167077
     12          8           0       -4.739836    0.366340    0.709743
     13          1           0        3.380266    0.500995    2.028348
     14          1           0        2.680148   -1.744113    1.813402
     15          1           0        2.398396   -2.609172   -0.551803
     16          1           0        0.498518   -1.885556   -1.744018
     17          1           0       -0.392473    1.925603   -0.434336
     18          1           0        1.858697    2.526703   -1.270888
     19          1           0        3.741136    1.822359   -0.066127
     20          1           0       -1.771505   -1.398141   -0.949577
     21          1           0       -2.211151    1.145207    0.728909
     22          1           0       -3.991820   -1.170560   -0.385435
 ---------------------------------------------------------------------

 SCF Done:  E(UB3LYP) =  -500.533502550     A.U. after   24 cycles

 The electronic state is 2-A.
 Alpha  occ. eigenvalues --  -18.94807 -10.09020 -10.04671 -10.04567 -10.04432
 Alpha  occ. eigenvalues --  -10.04138 -10.03844 -10.03523 -10.03353 -10.03246
 Alpha  occ. eigenvalues --  -10.01910 -10.01334  -0.88166  -0.70700  -0.66904
 Alpha  occ. eigenvalues --   -0.64797  -0.62218  -0.56438  -0.53504  -0.47804
 Alpha  occ. eigenvalues --   -0.44133  -0.42277  -0.40611  -0.37222  -0.33301
 Alpha  occ. eigenvalues --   -0.32806  -0.32368  -0.32301  -0.30074  -0.29501
 Alpha  occ. eigenvalues --   -0.27002  -0.24783  -0.24133  -0.23262  -0.22514
 Alpha  occ. eigenvalues --   -0.20099  -0.19028  -0.16442  -0.14567  -0.11778
 Alpha  occ. eigenvalues --   -0.10348  -0.07688   0.01694
 Alpha virt. eigenvalues --    0.08316   0.09030   0.09484   0.09950   0.10880
 Alpha virt. eigenvalues --    0.11275   0.12011   0.12631   0.13651   0.14031
 Alpha virt. eigenvalues --    0.14320   0.14800   0.15063   0.16490   0.17243

  Beta  occ. eigenvalues --  -18.94493 -10.08925 -10.04642 -10.04477 -10.04397
  Beta  occ. eigenvalues --  -10.04072 -10.03866 -10.03346 -10.03287 -10.03020
  Beta  occ. eigenvalues --  -10.01529 -10.01221  -0.87616  -0.70348  -0.66481
  Beta  occ. eigenvalues --   -0.64441  -0.61839  -0.56159  -0.52846  -0.47271
  Beta  occ. eigenvalues --   -0.43865  -0.42002  -0.40325  -0.37073  -0.33119
  Beta  occ. eigenvalues --   -0.32612  -0.32158  -0.32098  -0.29816  -0.29237
  Beta  occ. eigenvalues --   -0.26660  -0.24137  -0.23263  -0.22949  -0.22183
  Beta  occ. eigenvalues --   -0.19880  -0.18303  -0.15320  -0.13665  -0.10833
  Beta  occ. eigenvalues --   -0.10024  -0.06567
  Beta virt. eigenvalues --    0.07013   0.08331   0.09238   0.09938   0.10869
  Beta virt. eigenvalues --    0.10882   0.11258   0.12046   0.12623   0.13744
  Beta virt. eigenvalues --    0.14507   0.14711   0.15024   0.15338   0.16608

 Mulliken charges and spin densities:
               1          2
     1  C   -0.264425   0.048916
     2  C   -0.400737   0.071982
     3  C   -0.243064   0.047430
     4  C   -0.697218   0.087634
     5  C    2.020351  -0.053999
     6  C   -1.000721   0.290378
     7  C   -0.319341   0.012555
     8  C   -0.192857   0.129484
     9  C   -0.519331   0.164178
    10  C    0.146667   0.064725
    11  C   -0.331900   0.090346
    12  O   -0.375279   0.101522
    13  H    0.127448   0.002269
    14  H    0.129173  -0.005623
    15  H    0.123218  -0.003810
    16  H    0.160422  -0.001321
    17  H    0.097823  -0.016472
    18  H    0.139106   0.005284
    19  H    0.122643  -0.011898
    20  H    0.100471  -0.009655
    21  H    0.153391  -0.008197
    22  H    0.024158  -0.005728
 Sum of Mulliken charges =  -1.00000   1.00000

 Dipole moment (field-independent basis, Debye):
    X=              5.8752    Y=             -1.4014    Z=             -1.1922  Tot=              6.1565
 Quadrupole moment (field-independent basis, Debye-Ang):
   XX=           -136.1502   YY=            -78.9150   ZZ=            -80.2397
   XY=              4.6070   XZ=              8.8013   YZ=              0.1927

 Summary of Natural Population Analysis:

                                       Natural Population
                Natural  -----------------------------------------------
    Atom  No    Charge         Core      Valence    Rydberg      Total
 -----------------------------------------------------------------------
      C    1   -0.09991      0.99953     2.08995    0.01043     3.09991
      C    2   -0.08500      0.99952     2.07510    0.01037     3.08500
      C    3   -0.10421      0.99952     2.09464    0.01005     3.10421
      C    4   -0.07358      0.99951     2.06427    0.00979     3.07358
      C    5   -0.05977      0.99947     2.04993    0.01037     3.05977
      C    6   -0.00405      0.99948     1.99586    0.00871     3.00405
      C    7   -0.10645      0.99954     2.09693    0.00998     3.10645
      C    8   -0.06282      0.99953     2.05302    0.01027     3.06282
      C    9   -0.01607      0.99952     2.00705    0.00950     3.01607
      C   10   -0.13778      0.99950     2.12907    0.00920     3.13778
      C   11    0.20194      0.99970     1.77701    0.02135     2.79806
      O   12   -0.27496      0.99988     3.26660    0.00848     4.27496
      H   13    0.08870      0.00000     0.40998    0.00131     0.41130
      H   14    0.08771      0.00000     0.41100    0.00129     0.41229
      H   15    0.08698      0.00000     0.41082    0.00220     0.41302
      H   16    0.08875      0.00000     0.40961    0.00164     0.41125
      H   17    0.08923      0.00000     0.40918    0.00159     0.41077
      H   18    0.08921      0.00000     0.40949    0.00130     0.41079
      H   19    0.08418      0.00000     0.41392    0.00190     0.41582
      H   20    0.08296      0.00000     0.41519    0.00185     0.41704
      H   21    0.09415      0.00000     0.40394    0.00191     0.40585
      H   22    0.03077      0.00000     0.46642    0.00281     0.46923
 =======================================================================
   * Total *   -0.00000     11.99471    29.85896    0.14633    42.00000

 Normal termination of Gaussian 16 at Wed Dec  9 17:58:38 2020.
