 Gaussian 16, Revision A.03,

 -----------------------------------------------------------
 # opt freq B3LYP/6-31G(d) empiricaldispersion=gd3bj scf=xqc
 -----------------------------------------------------------

 --------------------------------
 CID_136280479_JID_10735_neutraal
 --------------------------------
 Symbolic Z-matrix:
 Charge =  0 Multiplicity = 1

 SCF Done:  E(RB3LYP) =  -895.325641920     A.U. after   15 cycles
 SCF Done:  E(RB3LYP) =  -895.331616534     A.U. after   13 cycles
 SCF Done:  E(RB3LYP) =  -895.332209959     A.U. after   13 cycles
 SCF Done:  E(RB3LYP) =  -895.332467484     A.U. after   12 cycles
 SCF Done:  E(RB3LYP) =  -895.332833136     A.U. after   12 cycles
 SCF Done:  E(RB3LYP) =  -895.332916191     A.U. after   12 cycles
 SCF Done:  E(RB3LYP) =  -895.332941505     A.U. after   11 cycles
 SCF Done:  E(RB3LYP) =  -895.332948619     A.U. after    9 cycles
 SCF Done:  E(RB3LYP) =  -895.332950590     A.U. after    8 cycles
 SCF Done:  E(RB3LYP) =  -895.332950690     A.U. after    7 cycles
 Optimization completed.
    -- Stationary point found.
 Normal termination of Gaussian 16 at Mon Dec 14 18:52:00 2020.

 --------------------------------------------------------------------
 #N Geom=AllCheck Guess=TCheck SCRF=Check GenChk RB3LYP/6-31G(d) Freq
 --------------------------------------------------------------------

 Structure from the checkpoint file:  "JID_10735.chk"
 --------------------------------
 CID_136280479_JID_10735_neutraal
 --------------------------------
 Charge =  0 Multiplicity = 1

 SCF Done:  E(RB3LYP) =  -895.332950690     A.U. after    1 cycles

  Exact polarizability: 227.714   5.979 152.960  -8.451   6.316 150.882
 Approx polarizability: 308.326  -2.843 242.802 -14.857  20.753 266.455

                      1                      2                      3
                      A                      A                      A
 Frequencies --      5.7112                30.2307                53.1600
 Red. masses --      5.4221                 4.1159                 4.9944
 Frc consts  --      0.0001                 0.0022                 0.0083
 IR Inten    --      0.4380                 0.1744                 3.1534

                      4                      5                      6
                      A                      A                      A
 Frequencies --     58.6026                94.5833               111.2538
 Red. masses --      5.2096                 5.1385                 3.9077
 Frc consts  --      0.0105                 0.0271                 0.0285
 IR Inten    --      0.2833                 1.1824                 1.0190

                      7                      8                      9
                      A                      A                      A
 Frequencies --    138.3480               170.4139               183.6076
 Red. masses --      4.1296                 2.6084                 4.6727
 Frc consts  --      0.0466                 0.0446                 0.0928
 IR Inten    --      2.5167                 0.4781                 2.4877

                     10                     11                     12
                      A                      A                      A
 Frequencies --    223.1855               250.3323               261.4654
 Red. masses --      2.4068                 3.7572                 3.5713
 Frc consts  --      0.0706                 0.1387                 0.1438
 IR Inten    --      1.9795                 1.6027                32.2152

                     13                     14                     15
                      A                      A                      A
 Frequencies --    289.0594               320.0692               327.3182
 Red. masses --      4.3718                 2.1064                 2.7526
 Frc consts  --      0.2152                 0.1271                 0.1738
 IR Inten    --      9.1608                31.9910                13.9655

                     16                     17                     18
                      A                      A                      A
 Frequencies --    343.3206               360.3290               388.9305
 Red. masses --      1.9151                 1.7800                 3.1677
 Frc consts  --      0.1330                 0.1362                 0.2823
 IR Inten    --     59.4928                48.9689                10.7098

                     19                     20                     21
                      A                      A                      A
 Frequencies --    433.0804               441.9538               465.5967
 Red. masses --      3.3603                 3.5013                 4.8670
 Frc consts  --      0.3713                 0.4029                 0.6216
 IR Inten    --     11.4737                 4.4474                 3.9137

                     22                     23                     24
                      A                      A                      A
 Frequencies --    494.9343               548.2642               553.4666
 Red. masses --      5.7246                 4.7271                 3.9684
 Frc consts  --      0.8262                 0.8372                 0.7162
 IR Inten    --      2.5959                 0.5294                 7.9145

                     25                     26                     27
                      A                      A                      A
 Frequencies --    574.3169               591.1502               632.0654
 Red. masses --      3.9346                 4.0741                 4.1650
 Frc consts  --      0.7646                 0.8388                 0.9804
 IR Inten    --      5.1581                 0.0623                 3.4868

                     28                     29                     30
                      A                      A                      A
 Frequencies --    639.1408               643.3534               663.4040
 Red. masses --      3.1168                 4.4972                 3.0215
 Frc consts  --      0.7502                 1.0967                 0.7835
 IR Inten    --      2.0041                 2.0212                84.5377

                     31                     32                     33
                      A                      A                      A
 Frequencies --    717.6345               727.2253               761.5200
 Red. masses --      3.8529                 4.7886                 4.3921
 Frc consts  --      1.1691                 1.4921                 1.5007
 IR Inten    --      1.4809                12.9312                38.6069

                     34                     35                     36
                      A                      A                      A
 Frequencies --    769.2514               781.2181               810.2808
 Red. masses --      2.1038                 3.3227                 1.9150
 Frc consts  --      0.7335                 1.1948                 0.7408
 IR Inten    --    232.3222                 7.5240                22.9099

                     37                     38                     39
                      A                      A                      A
 Frequencies --    836.9931               853.0956               864.6273
 Red. masses --      2.1213                 1.6564                 2.9923
 Frc consts  --      0.8756                 0.7103                 1.3180
 IR Inten    --     24.1195                20.0743                 2.2834

                     40                     41                     42
                      A                      A                      A
 Frequencies --    875.3286               887.3054               908.0178
 Red. masses --      2.5042                 1.7810                 1.5513
 Frc consts  --      1.1305                 0.8261                 0.7536
 IR Inten    --      1.3083                16.6115                 1.1493

                     43                     44                     45
                      A                      A                      A
 Frequencies --    925.3305               951.3727               959.9476
 Red. masses --      2.2285                 1.4404                 2.1968
 Frc consts  --      1.1242                 0.7681                 1.1927
 IR Inten    --      1.3795                 3.1160                26.6339

                     46                     47                     48
                      A                      A                      A
 Frequencies --    968.6719               973.3694               986.1617
 Red. masses --      2.3214                 2.6436                 1.3416
 Frc consts  --      1.2834                 1.4757                 0.7687
 IR Inten    --     26.1291                51.5691                 2.8896

                     49                     50                     51
                      A                      A                      A
 Frequencies --   1018.6552              1074.6220              1083.5320
 Red. masses --      2.1893                 1.6881                 2.3513
 Frc consts  --      1.3385                 1.1485                 1.6264
 IR Inten    --      1.1942                 4.3218                 1.5557

                     52                     53                     54
                      A                      A                      A
 Frequencies --   1114.7992              1127.8057              1156.9131
 Red. masses --      2.8909                 2.4609                 1.2548
 Frc consts  --      2.1168                 1.8442                 0.9895
 IR Inten    --      3.2827                54.6448                 9.9984

                     55                     56                     57
                      A                      A                      A
 Frequencies --   1160.7626              1175.4429              1187.5902
 Red. masses --      1.8218                 1.5341                 1.4616
 Frc consts  --      1.4462                 1.2488                 1.2146
 IR Inten    --     33.4221                43.8543                18.2101

                     58                     59                     60
                      A                      A                      A
 Frequencies --   1201.1267              1221.1589              1248.5431
 Red. masses --      1.2894                 1.7630                 1.4458
 Frc consts  --      1.0960                 1.5489                 1.3279
 IR Inten    --      3.1904                16.8671                12.2712

                     61                     62                     63
                      A                      A                      A
 Frequencies --   1260.9176              1280.0384              1296.4522
 Red. masses --      2.1809                 3.0052                 3.1282
 Frc consts  --      2.0430                 2.9011                 3.0978
 IR Inten    --     72.8792                37.3976               170.8054

                     64                     65                     66
                      A                      A                      A
 Frequencies --   1300.4456              1311.1208              1320.0901
 Red. masses --      1.5186                 3.6118                 2.4551
 Frc consts  --      1.5131                 3.6581                 2.5208
 IR Inten    --     81.8781                12.3014                 1.8297

                     67                     68                     69
                      A                      A                      A
 Frequencies --   1338.4250              1359.1914              1377.3328
 Red. masses --      1.3903                 1.3732                 3.4361
 Frc consts  --      1.4674                 1.4947                 3.8405
 IR Inten    --      7.8022                 2.0152                18.4124

                     70                     71                     72
                      A                      A                      A
 Frequencies --   1381.1714              1432.8710              1483.2923
 Red. masses --      1.6617                 1.9939                 3.5481
 Frc consts  --      1.8677                 2.4120                 4.5994
 IR Inten    --     95.1725                 6.7759                75.1392

                     73                     74                     75
                      A                      A                      A
 Frequencies --   1490.1780              1505.8067              1510.7117
 Red. masses --      3.0428                 2.7187                 1.1350
 Frc consts  --      3.9811                 3.6320                 1.5262
 IR Inten    --    118.6395                 4.8922                 4.2801

                     76                     77                     78
                      A                      A                      A
 Frequencies --   1514.0398              1533.3961              1539.0439
 Red. masses --      1.1174                 1.1437                 2.2923
 Frc consts  --      1.5092                 1.5844                 3.1991
 IR Inten    --      2.3170                 3.4751                92.3093

                     79                     80                     81
                      A                      A                      A
 Frequencies --   1625.5888              1639.3708              1645.8247
 Red. masses --      6.5435                 6.4030                 6.7540
 Frc consts  --     10.1878                10.1388                10.7790
 IR Inten    --      7.4933                16.4697                11.4639

                     82                     83                     84
                      A                      A                      A
 Frequencies --   1671.0207              1674.5522              1740.7649
 Red. masses --      1.5449                 2.8425                 6.5185
 Frc consts  --      2.5417                 4.6961                11.6380
 IR Inten    --     30.3857                54.3735                66.7403

                     85                     86                     87
                      A                      A                      A
 Frequencies --   3023.9253              3025.9779              3062.0668
 Red. masses --      1.0704                 1.0698                 1.0668
 Frc consts  --      5.7671                 5.7714                 5.8932
 IR Inten    --     39.0385                32.7234                21.2440

                     88                     89                     90
                      A                      A                      A
 Frequencies --   3087.2768              3090.7021              3117.4519
 Red. masses --      1.0933                 1.0894                 1.1038
 Frc consts  --      6.1393                 6.1311                 6.3205
 IR Inten    --     30.8450                47.9217                48.1939

                     91                     92                     93
                      A                      A                      A
 Frequencies --   3181.3134              3185.2602              3204.6714
 Red. masses --      1.0889                 1.0894                 1.0913
 Frc consts  --      6.4930                 6.5123                 6.6033
 IR Inten    --     18.0104                17.4202                 6.0892

                     94                     95                     96
                      A                      A                      A
 Frequencies --   3206.5878              3212.3361              3221.5000
 Red. masses --      1.0905                 1.0941                 1.0966
 Frc consts  --      6.6066                 6.6519                 6.7054
 IR Inten    --     20.1183                 5.8634                 8.5120

                     97                     98                     99
                      A                      A                      A
 Frequencies --   3518.9632              3623.2797              3768.2923
 Red. masses --      1.0473                 1.0973                 1.0677
 Frc consts  --      7.6413                 8.4878                 8.9324
 IR Inten    --      9.4961                 9.8211                54.8470

 - Thermochemistry -
 -------------------
 Temperature   298.150 Kelvin.  Pressure   1.00000 Atm.
 Atom     1 has atomic number  6 and mass  12.00000

 Molecular mass:   269.11643 amu.
 Principal axes and moments of inertia in atomic units:
                           1         2         3
     Eigenvalues --  2606.296749408.37735**********
           X            0.99999   0.00319  -0.00009
           Y           -0.00319   0.99998  -0.00541
           Z            0.00007   0.00541   0.99999
 This molecule is an asymmetric top.
 Rotational symmetry number  1.
 Warning -- assumption of classical behavior for rotation
           may cause significant error
 Rotational temperatures (Kelvin)      0.03323     0.00921     0.00860
 Rotational constants (GHZ):           0.69245     0.19182     0.17928
 Zero-point vibrational energy     737977.5 (Joules/Mol)
                                  176.38085 (Kcal/Mol)
 Warning -- explicit consideration of  26 degrees of freedom as
           vibrations may cause significant error
 Vibrational temperatures:      8.22    43.50    76.49    84.32   136.08
          (Kelvin)            160.07   199.05   245.19   264.17   321.11
                              360.17   376.19   415.89   460.51   470.94
                              493.96   518.43   559.58   623.11   635.87
                              669.89   712.10   788.83   796.32   826.31
                              850.53   909.40   919.58   925.64   954.49
                             1032.52  1046.32  1095.66  1106.78  1124.00
                             1165.81  1204.25  1227.41  1244.01  1259.40
                             1276.63  1306.44  1331.34  1368.81  1381.15
                             1393.70  1400.46  1418.87  1465.62  1546.14
                             1558.96  1603.95  1622.66  1664.54  1670.08
                             1691.20  1708.68  1728.15  1756.98  1796.38
                             1814.18  1841.69  1865.31  1871.05  1886.41
                             1899.32  1925.70  1955.57  1981.67  1987.20
                             2061.58  2134.13  2144.03  2166.52  2173.58
                             2178.37  2206.21  2214.34  2338.86  2358.69
                             2367.97  2404.23  2409.31  2504.57  4350.75
                             4353.71  4405.63  4441.90  4446.83  4485.32
                             4577.20  4582.88  4610.81  4613.56  4621.84
                             4635.02  5063.00  5213.09  5421.73

 Zero-point correction=                           0.281081 (Hartree/Particle)
 Thermal correction to Energy=                    0.298296
 Thermal correction to Enthalpy=                  0.299240
 Thermal correction to Gibbs Free Energy=         0.233451
 Sum of electronic and zero-point Energies=           -895.051870
 Sum of electronic and thermal Energies=              -895.034655
 Sum of electronic and thermal Enthalpies=            -895.033711
 Sum of electronic and thermal Free Energies=         -895.099500

                     E (Thermal)             CV                S
                      KCal/Mol        Cal/Mol-Kelvin    Cal/Mol-Kelvin
 Total                  187.183             67.147            138.465
 Electronic               0.000              0.000              0.000
 Translational            0.889              2.981             42.669
 Rotational               0.889              2.981             33.867
 Vibrational            185.406             61.185             61.929
 Vibration     1          0.593              1.987              9.124
 Vibration     2          0.594              1.984              5.814
 Vibration     3          0.596              1.976              4.696
 Vibration     4          0.596              1.974              4.504
 Vibration     5          0.603              1.953              3.563
 Vibration     6          0.607              1.940              3.247
 Vibration     7          0.614              1.915              2.827
 Vibration     8          0.626              1.879              2.431
 Vibration     9          0.631              1.862              2.291
 Vibration    10          0.649              1.806              1.933
 Vibration    11          0.663              1.762              1.728
 Vibration    12          0.669              1.743              1.652
 Vibration    13          0.686              1.694              1.479
 Vibration    14          0.706              1.635              1.310
 Vibration    15          0.711              1.621              1.273
 Vibration    16          0.722              1.589              1.197
 Vibration    17          0.735              1.554              1.121
 Vibration    18          0.757              1.494              1.004
 Vibration    19          0.794              1.398              0.849
 Vibration    20          0.802              1.379              0.820
 Vibration    21          0.823              1.326              0.750
 Vibration    22          0.851              1.261              0.671
 Vibration    23          0.903              1.143              0.548
 Vibration    24          0.909              1.132              0.537
 Vibration    25          0.931              1.087              0.496
 Vibration    26          0.949              1.051              0.465

                           ! Non-Optimized Parameters !
 Normal termination of Gaussian 16 at Mon Dec 14 19:11:29 2020.

 ----------------------------------------------------------------------
 # B3LYP/6-311++G(d,p) empiricaldispersion=gd3bj scf=xqc pop=npa geom=c
 heck
 ----------------------------------------------------------------------

 ----------------------------------------
 CID_136280479_JID_10735_Energie_neutraal
 ----------------------------------------
 Structure from the checkpoint file:  "JID_10735.chk"
 Charge =  0 Multiplicity = 1

 SCF Done:  E(RB3LYP) =  -895.581764577     A.U. after   16 cycles
 Normal termination of Gaussian 16 at Mon Dec 14 19:20:09 2020.

 ----------------------------------------------------------------------
 # B3LYP/6-311++G(d,p) empiricaldispersion=gd3bj scf=xqc pop=npa geom=c
 heck
 ----------------------------------------------------------------------

 --------------------------------------
 CID_136280479_JID_10735_Energie_kation
 --------------------------------------
 Structure from the checkpoint file:  "JID_10735.chk"
 Charge =  1 Multiplicity = 2

 SCF Done:  E(UB3LYP) =  -895.299162633     A.U. after   26 cycles
 Normal termination of Gaussian 16 at Mon Dec 14 19:40:14 2020.
 Gaussian 16:  ES64L-G16RevA.03 25-Dec-2016

 ----------------------------------------------------------------------
 # B3LYP/6-311++G(d,p) empiricaldispersion=gd3bj scf=xqc pop=npa geom=c
 heck
 ----------------------------------------------------------------------

 -------------------------------------
 CID_136280479_JID_10735_Energie_anion
 -------------------------------------
 Structure from the checkpoint file:  "JID_10735.chk"
 Charge = -1 Multiplicity = 2

                         Standard orientation:
 ---------------------------------------------------------------------
 Center     Atomic      Atomic             Coordinates (Angstroms)
 Number     Number       Type             X           Y           Z
 ---------------------------------------------------------------------
      1          6           0       -5.384417   -0.213354    0.120945
      2          6           0       -4.587830   -0.320275   -1.203235
      3          6           0       -3.149999   -0.212079   -0.743112
      4          6           0       -3.089773    0.322471    0.551243
      5          6           0       -4.481663    0.618350    1.065763
      6          6           0       -1.864700    0.539163    1.174338
      7          6           0       -0.701960    0.196773    0.484249
      8          6           0       -0.739497   -0.349369   -0.800727
      9          6           0       -1.977752   -0.545379   -1.417138
     10          8           0        0.504395    0.372648    1.160643
     11          6           0        1.571783    0.857288    0.431754
     12          6           0        2.674425    0.026947    0.212338
     13          7           0        3.785544    0.453413   -0.399819
     14          6           0        3.813402    1.717159   -0.830832
     15          6           0        2.746291    2.607693   -0.684541
     16          6           0        1.597228    2.169322   -0.034654
     17          6           0        2.603433   -1.407423    0.635550
     18          7           0        2.369723   -2.388251   -0.160280
     19          8           0        2.240245   -1.937610   -1.505436
     20          7           0        2.843390   -1.671893    1.978800
     21          1           0       -5.515847   -1.216605    0.542580
     22          1           0       -6.378907    0.222655   -0.012051
     23          1           0       -4.799246   -1.245232   -1.751064
     24          1           0       -4.838164    0.512149   -1.877300
     25          1           0       -4.700726    1.692014    0.970798
     26          1           0       -4.617054    0.359644    2.121651
     27          1           0       -1.787744    0.955037    2.174478
     28          1           0        0.182581   -0.644814   -1.291504
     29          1           0       -2.016202   -0.973983   -2.415510
     30          1           0        4.730757    2.032756   -1.323084
     31          1           0        2.820062    3.621811   -1.065023
     32          1           0        0.736370    2.812659    0.117508
     33          1           0        2.052149   -2.770179   -1.964030
     34          1           0        2.397049   -1.005409    2.600148
     35          1           0        2.613372   -2.629401    2.228199
 ---------------------------------------------------------------------

 SCF Done:  E(UB3LYP) =  -895.577110042     A.U. after   33 cycles
 SCF Done:  E(UB3LYP) =  -895.577110041     a.u. after    1 cycles

 The electronic state is 2-A.
 Alpha  occ. eigenvalues --  -19.04653 -19.04638 -14.23132 -14.21838 -14.17148
 Alpha  occ. eigenvalues --  -10.12795 -10.12316 -10.11668 -10.08081 -10.08041
 Alpha  occ. eigenvalues --  -10.07476 -10.07416 -10.07387 -10.07006 -10.06505
 Alpha  occ. eigenvalues --  -10.06414 -10.06109 -10.05886 -10.05391 -10.05226
 Alpha  occ. eigenvalues --   -0.96627  -0.96026  -0.83529  -0.81086  -0.76739
 Alpha  occ. eigenvalues --   -0.71449  -0.70970  -0.67807  -0.65643  -0.64108
 Alpha  occ. eigenvalues --   -0.60819  -0.59175  -0.53668  -0.52286  -0.51055
 Alpha  occ. eigenvalues --   -0.48149  -0.47121  -0.46175  -0.43744  -0.41998
 Alpha  occ. eigenvalues --   -0.39316  -0.38894  -0.38080  -0.37656  -0.36505
 Alpha  occ. eigenvalues --   -0.36200  -0.35847  -0.33893  -0.32081  -0.31502
 Alpha  occ. eigenvalues --   -0.30811  -0.30718  -0.29587  -0.28371  -0.28106
 Alpha  occ. eigenvalues --   -0.26945  -0.26172  -0.26014  -0.25381  -0.24711
 Alpha  occ. eigenvalues --   -0.24322  -0.22768  -0.22019  -0.20866  -0.17755
 Alpha  occ. eigenvalues --   -0.16764  -0.14544  -0.13820  -0.13256  -0.11718
 Alpha  occ. eigenvalues --   -0.11361   0.04604
 Alpha virt. eigenvalues --    0.06128   0.07603   0.07770   0.07889   0.08432
 Alpha virt. eigenvalues --    0.08732   0.09015   0.09622   0.10101   0.10532
 Alpha virt. eigenvalues --    0.10706   0.10969   0.11275   0.11550   0.12003

  Beta  occ. eigenvalues --  -19.04659 -19.04626 -14.23095 -14.21806 -14.16787
  Beta  occ. eigenvalues --  -10.12805 -10.12313 -10.11744 -10.08144 -10.07834
  Beta  occ. eigenvalues --  -10.07468 -10.07405 -10.07371 -10.06986 -10.06504
  Beta  occ. eigenvalues --  -10.06337 -10.06042 -10.05882 -10.05169 -10.05064
  Beta  occ. eigenvalues --   -0.96625  -0.95986  -0.83361  -0.80675  -0.76667
  Beta  occ. eigenvalues --   -0.71376  -0.70896  -0.67404  -0.65457  -0.63908
  Beta  occ. eigenvalues --   -0.60748  -0.59090  -0.53255  -0.52184  -0.50929
  Beta  occ. eigenvalues --   -0.48087  -0.46979  -0.46096  -0.43630  -0.41931
  Beta  occ. eigenvalues --   -0.39209  -0.38841  -0.37928  -0.37574  -0.36454
  Beta  occ. eigenvalues --   -0.36138  -0.35744  -0.33822  -0.31978  -0.31447
  Beta  occ. eigenvalues --   -0.30767  -0.30618  -0.29490  -0.28143  -0.27876
  Beta  occ. eigenvalues --   -0.26748  -0.26022  -0.25552  -0.25345  -0.24589
  Beta  occ. eigenvalues --   -0.24258  -0.22711  -0.21963  -0.20688  -0.17615
  Beta  occ. eigenvalues --   -0.15212  -0.14135  -0.13186  -0.12887  -0.11605
  Beta  occ. eigenvalues --   -0.11123
  Beta virt. eigenvalues --    0.06803   0.07574   0.07826   0.07923   0.08468
  Beta virt. eigenvalues --    0.08677   0.09183   0.09574   0.10002   0.10218
  Beta virt. eigenvalues --    0.10470   0.10967   0.11081   0.11336   0.11644

 Mulliken charges and spin densities:
               1          2
     1  C    0.273159  -0.697680
     2  C   -0.600851   0.124010
     3  C    0.848049  -0.666964
     4  C    0.310581  -0.309562
     5  C   -0.490945   0.155222
     6  C   -0.314023   0.442259
     7  C   -0.486052   0.028041
     8  C   -0.258685   0.061242
     9  C   -0.149611   0.222140
    10  O   -0.024858   0.003762
    11  C    0.746070   0.035564
    12  C   -1.060804   0.039996
    13  N    0.073583   0.167642
    14  C    0.023558  -0.038538
    15  C   -0.256967   0.095985
    16  C   -0.079656   0.117614
    17  C   -0.343763   0.012395
    18  N   -0.300080   0.016747
    19  O   -0.073600  -0.014048
    20  N   -0.182578  -0.049643
    21  H    0.160561  -0.036692
    22  H   -0.423103   0.586421
    23  H    0.106811   0.023590
    24  H   -0.020804   0.175477
    25  H   -0.084403   0.254781
    26  H    0.123893   0.008237
    27  H    0.136297   0.004106
    28  H    0.264995  -0.007065
    29  H    0.090233   0.052238
    30  H    0.148531   0.006380
    31  H    0.116096   0.002878
    32  H    0.097644   0.050657
    33  H    0.220793   0.032620
    34  H    0.218055   0.040179
    35  H    0.191874   0.060008
 Sum of Mulliken charges =  -1.00000   1.00000

 Dipole moment (field-independent basis, Debye):
    X=             -0.0193    Y=             -1.8659    Z=              0.9915  Tot=              2.1130
 Quadrupole moment (field-independent basis, Debye-Ang):
   XX=           -216.4206   YY=           -136.1696   ZZ=           -127.5350
   XY=             13.5405   XZ=             -2.8942   YZ=              1.9397

 Summary of Natural Population Analysis:

                                       Natural Population
                Natural  -----------------------------------------------
    Atom  No    Charge         Core      Valence    Rydberg      Total
 -----------------------------------------------------------------------
      C    1   -0.18419      0.99965     2.17642    0.00812     3.18419
      C    2   -0.19559      0.99961     2.18768    0.00830     3.19559
      C    3   -0.02883      0.99947     2.02033    0.00903     3.02883
      C    4   -0.00655      0.99947     1.99836    0.00872     3.00655
      C    5   -0.19691      0.99961     2.18894    0.00837     3.19691
      C    6   -0.11177      0.99946     2.10265    0.00966     3.11177
      C    7    0.15810      0.99936     1.82904    0.01351     2.84190
      C    8   -0.12923      0.99951     2.12092    0.00880     3.12923
      C    9   -0.08012      0.99952     2.07185    0.00875     3.08012
      O   10   -0.28321      0.99984     3.27358    0.00979     4.28321
      C   11    0.12787      0.99930     1.85923    0.01360     2.87213
      C   12    0.08501      0.99942     1.89959    0.01598     2.91499
      N   13   -0.17663      0.99968     2.66496    0.01199     3.67663
      C   14    0.00594      0.99960     1.98105    0.01341     2.99406
      C   15   -0.09442      0.99957     2.08723    0.00762     3.09442
      C   16   -0.06971      0.99951     2.05880    0.01141     3.06971
      C   17    0.19985      0.99959     1.77871    0.02184     2.80015
      N   18   -0.12741      0.99958     2.61270    0.01513     3.62741
      O   19   -0.28559      0.99990     3.27920    0.00648     4.28559
      N   20   -0.39409      0.99971     2.88564    0.00874     3.89409
      H   21    0.09189      0.00000     0.40707    0.00104     0.40811
      H   22    0.09969      0.00000     0.39834    0.00197     0.40031
      H   23    0.09807      0.00000     0.40101    0.00092     0.40193
      H   24    0.10057      0.00000     0.39804    0.00139     0.39943
      H   25    0.10260      0.00000     0.39577    0.00163     0.39740
      H   26    0.09885      0.00000     0.40025    0.00090     0.40115
      H   27    0.10221      0.00000     0.39641    0.00139     0.39779
      H   28    0.11887      0.00000     0.37930    0.00183     0.38113
      H   29    0.09586      0.00000     0.40325    0.00089     0.40414
      H   30    0.08282      0.00000     0.41596    0.00122     0.41718
      H   31    0.09444      0.00000     0.40467    0.00089     0.40556
      H   32    0.10189      0.00000     0.39718    0.00093     0.39811
      H   33    0.22807      0.00000     0.26898    0.00295     0.27193
      H   34    0.18893      0.00000     0.30938    0.00169     0.31107
      H   35    0.18270      0.00000     0.31482    0.00248     0.31730
 =======================================================================
   * Total *    0.00000     19.99135    50.76730    0.24134    71.00000

 Normal termination of Gaussian 16 at Mon Dec 14 20:04:58 2020.
