 Gaussian 16, Revision A.03,

 -----------------------------------------------------------
 # opt freq B3LYP/6-31G(d) empiricaldispersion=gd3bj scf=xqc
 -----------------------------------------------------------

 -------------------------------
 CID_131134913_JID_2808_neutraal
 -------------------------------
 Symbolic Z-matrix:
 Charge =  0 Multiplicity = 1

 SCF Done:  E(RB3LYP) =  -607.959444538     A.U. after   15 cycles
 SCF Done:  E(RB3LYP) =  -607.963476067     A.U. after   12 cycles
 SCF Done:  E(RB3LYP) =  -607.964164571     A.U. after   11 cycles
 SCF Done:  E(RB3LYP) =  -607.964290119     A.U. after   11 cycles
 SCF Done:  E(RB3LYP) =  -607.964328206     A.U. after   11 cycles
 SCF Done:  E(RB3LYP) =  -607.964346241     A.U. after   11 cycles
 SCF Done:  E(RB3LYP) =  -607.964356839     A.U. after   10 cycles
 SCF Done:  E(RB3LYP) =  -607.964363160     A.U. after    9 cycles
 SCF Done:  E(RB3LYP) =  -607.964367030     A.U. after   10 cycles
 SCF Done:  E(RB3LYP) =  -607.964371460     A.U. after    9 cycles
 SCF Done:  E(RB3LYP) =  -607.964379208     A.U. after    8 cycles
 SCF Done:  E(RB3LYP) =  -607.964379388     A.U. after    7 cycles
 SCF Done:  E(RB3LYP) =  -607.964379520     A.U. after    7 cycles
 SCF Done:  E(RB3LYP) =  -607.964379590     A.U. after    7 cycles
 Optimization completed.
    -- Stationary point found.
 Normal termination of Gaussian 16 at Wed Dec  9 18:17:21 2020.

 --------------------------------------------------------------------
 #N Geom=AllCheck Guess=TCheck SCRF=Check GenChk RB3LYP/6-31G(d) Freq
 --------------------------------------------------------------------

 Structure from the checkpoint file:  "JID_2808.chk"
 -------------------------------
 CID_131134913_JID_2808_neutraal
 -------------------------------
 Charge =  0 Multiplicity = 1

 SCF Done:  E(RB3LYP) =  -607.964379590     A.U. after    1 cycles

  Exact polarizability: 115.909  -4.134 103.626   3.192  -4.048  54.889
 Approx polarizability: 158.308  -2.470 164.135   6.896  -9.363  80.355

                      1                      2                      3
                      A                      A                      A
 Frequencies --     26.6147                69.9773                78.7208
 Red. masses --      3.7271                 3.2765                 2.3098
 Frc consts  --      0.0016                 0.0095                 0.0084
 IR Inten    --      2.8346                 1.9509                 3.4361

                      4                      5                      6
                      A                      A                      A
 Frequencies --     86.7721               123.8199               150.0901
 Red. masses --      2.1131                 2.8151                 2.0284
 Frc consts  --      0.0094                 0.0254                 0.0269
 IR Inten    --      0.6518                 0.7515                 0.0544

                      7                      8                      9
                      A                      A                      A
 Frequencies --    161.2997               208.7783               265.6309
 Red. masses --      5.5982                 1.6785                 1.7959
 Frc consts  --      0.0858                 0.0431                 0.0747
 IR Inten    --      0.9607                 7.8177                 0.7628

                     10                     11                     12
                      A                      A                      A
 Frequencies --    294.6726               323.6036               404.1545
 Red. masses --      3.4958                 5.1484                 4.4361
 Frc consts  --      0.1788                 0.3177                 0.4269
 IR Inten    --      6.9160                 3.3326                 8.7213

                     13                     14                     15
                      A                      A                      A
 Frequencies --    411.3342               520.9869               527.6866
 Red. masses --      6.9392                 1.3624                 3.9811
 Frc consts  --      0.6917                 0.2179                 0.6531
 IR Inten    --      2.6790                55.7835                 8.4085

                     16                     17                     18
                      A                      A                      A
 Frequencies --    582.6625               624.4752               636.2984
 Red. masses --      4.5295                 2.9778                 5.9732
 Frc consts  --      0.9060                 0.6842                 1.4249
 IR Inten    --      8.4117                12.1844                25.5402

                     19                     20                     21
                      A                      A                      A
 Frequencies --    722.8713               742.8107               756.2520
 Red. masses --      3.4913                 4.4436                 3.2635
 Frc consts  --      1.0749                 1.4446                 1.0997
 IR Inten    --     67.7160                 3.1466                 7.2400

                     22                     23                     24
                      A                      A                      A
 Frequencies --    796.7786               826.7043               910.8731
 Red. masses --      3.1153                 1.2180                 2.7471
 Frc consts  --      1.1653                 0.4905                 1.3429
 IR Inten    --      0.0222                 2.1614                14.1388

                     25                     26                     27
                      A                      A                      A
 Frequencies --    982.2556              1005.3818              1064.1172
 Red. masses --      5.4507                 4.2636                 2.3784
 Frc consts  --      3.0985                 2.5391                 1.5867
 IR Inten    --     32.3122                34.5379                66.7260

                     28                     29                     30
                      A                      A                      A
 Frequencies --   1068.2386              1127.6752              1139.5978
 Red. masses --      3.8802                 2.4249                 3.5792
 Frc consts  --      2.6088                 1.8168                 2.7387
 IR Inten    --     57.9071                56.4481                30.0139

                     31                     32                     33
                      A                      A                      A
 Frequencies --   1163.4472              1200.5707              1209.3548
 Red. masses --      1.2593                 1.7128                 1.9892
 Frc consts  --      1.0044                 1.4546                 1.7141
 IR Inten    --      0.4816                 4.9044                 6.0639

                     34                     35                     36
                      A                      A                      A
 Frequencies --   1215.0455              1289.9114              1344.0737
 Red. masses --      1.9527                 4.6296                 1.1215
 Frc consts  --      1.6985                 4.5385                 1.1937
 IR Inten    --     10.5819                28.9129                 0.3035

                     37                     38                     39
                      A                      A                      A
 Frequencies --   1391.0820              1421.2364              1427.1768
 Red. masses --      2.1845                 1.8946                 2.6854
 Frc consts  --      2.4907                 2.2548                 3.2226
 IR Inten    --    197.3020                32.6206               225.4257

                     40                     41                     42
                      A                      A                      A
 Frequencies --   1446.3456              1480.0009              1507.1790
 Red. masses --      1.4416                 1.6376                 1.3199
 Frc consts  --      1.7768                 2.1134                 1.7666
 IR Inten    --     11.0539                23.5559                23.8760

                     43                     44                     45
                      A                      A                      A
 Frequencies --   1512.8936              1514.4816              1520.0506
 Red. masses --      1.0439                 1.0568                 1.0929
 Frc consts  --      1.4078                 1.4282                 1.4878
 IR Inten    --      5.3851                 7.8809                 1.0750

                     46                     47                     48
                      A                      A                      A
 Frequencies --   1537.5211              1541.9950              1623.4607
 Red. masses --      1.0704                 1.0964                 7.1855
 Frc consts  --      1.4908                 1.5360                11.1581
 IR Inten    --     26.2992                48.0716                38.6502

                     49                     50                     51
                      A                      A                      A
 Frequencies --   1668.2522              1758.1657              3064.7643
 Red. masses --      7.8119                 7.6261                 1.0364
 Frc consts  --     12.8094                13.8891                 5.7355
 IR Inten    --    454.4910               309.8684                13.3487

                     52                     53                     54
                      A                      A                      A
 Frequencies --   3067.9449              3091.6308              3132.6858
 Red. masses --      1.0328                 1.0608                 1.1040
 Frc consts  --      5.7273                 5.9741                 6.3834
 IR Inten    --     39.7690                23.9487                34.9926

                     55                     56                     57
                      A                      A                      A
 Frequencies --   3132.7148              3142.4634              3150.0422
 Red. masses --      1.1007                 1.1053                 1.1056
 Frc consts  --      6.3647                 6.4307                 6.4636
 IR Inten    --     14.6635                 2.3038                29.1370

                     58                     59                     60
                      A                      A                      A
 Frequencies --   3163.5361              3343.4320              3614.4964
 Red. masses --      1.1065                 1.1005                 1.0762
 Frc consts  --      6.5243                 7.2484                 8.2837
 IR Inten    --     31.1954                 5.4813                35.7768

 - Thermochemistry -
 -------------------
 Temperature   298.150 Kelvin.  Pressure   1.00000 Atm.
 Atom     1 has atomic number  6 and mass  12.00000

 Molecular mass:   170.06914 amu.
 Principal axes and moments of inertia in atomic units:
                           1         2         3
     Eigenvalues --  1171.491232890.286203887.16296
           X            0.99989  -0.01313  -0.00696
           Y            0.01313   0.99991   0.00045
           Z            0.00696  -0.00054   0.99998
 This molecule is an asymmetric top.
 Rotational symmetry number  1.
 Warning -- assumption of classical behavior for rotation
           may cause significant error
 Rotational temperatures (Kelvin)      0.07393     0.02997     0.02228
 Rotational constants (GHZ):           1.54055     0.62442     0.46428
 Zero-point vibrational energy     462458.9 (Joules/Mol)
                                  110.53033 (Kcal/Mol)
 Warning -- explicit consideration of  16 degrees of freedom as
           vibrations may cause significant error
 Vibrational temperatures:     38.29   100.68   113.26   124.85   178.15
          (Kelvin)            215.95   232.07   300.39   382.18   423.97
                              465.59   581.49   591.82   749.58   759.22
                              838.32   898.48   915.49  1040.05  1068.74
                             1088.08  1146.39  1189.44  1310.54  1413.25
                             1446.52  1531.03  1536.96  1622.47  1639.63
                             1673.94  1727.35  1739.99  1748.18  1855.89
                             1933.82  2001.46  2044.84  2053.39  2080.97
                             2129.39  2168.49  2176.72  2179.00  2187.01
                             2212.15  2218.59  2335.80  2400.24  2529.61
                             4409.51  4414.09  4448.17  4507.24  4507.28
                             4521.30  4532.21  4551.62  4810.45  5200.45

 Zero-point correction=                           0.176141 (Hartree/Particle)
 Thermal correction to Energy=                    0.188278
 Thermal correction to Enthalpy=                  0.189222
 Thermal correction to Gibbs Free Energy=         0.136348
 Sum of electronic and zero-point Energies=           -607.788238
 Sum of electronic and thermal Energies=              -607.776102
 Sum of electronic and thermal Enthalpies=            -607.775158
 Sum of electronic and thermal Free Energies=         -607.828031

                     E (Thermal)             CV                S
                      KCal/Mol        Cal/Mol-Kelvin    Cal/Mol-Kelvin
 Total                  118.146             42.761            111.282
 Electronic               0.000              0.000              0.000
 Translational            0.889              2.981             41.301
 Rotational               0.889              2.981             30.954
 Vibrational            116.369             36.800             39.027
 Vibration     1          0.593              1.984              6.067
 Vibration     2          0.598              1.968              4.154
 Vibration     3          0.600              1.963              3.923
 Vibration     4          0.601              1.958              3.732
 Vibration     5          0.610              1.929              3.040
 Vibration     6          0.618              1.903              2.671
 Vibration     7          0.622              1.890              2.534
 Vibration     8          0.642              1.827              2.054
 Vibration     9          0.671              1.736              1.624
 Vibration    10          0.689              1.684              1.447
 Vibration    11          0.708              1.628              1.292
 Vibration    12          0.769              1.461              0.948
 Vibration    13          0.775              1.446              0.922
 Vibration    14          0.876              1.204              0.608
 Vibration    15          0.883              1.189              0.592
 Vibration    16          0.939              1.069              0.480

 Optimization completed.
    -- Stationary point found.
 Normal termination of Gaussian 16 at Wed Dec  9 18:22:04 2020.

 ----------------------------------------------------------------------
 # B3LYP/6-311++G(d,p) empiricaldispersion=gd3bj scf=xqc pop=npa geom=c
 heck
 ----------------------------------------------------------------------

 ---------------------------------------
 CID_131134913_JID_2808_Energie_neutraal
 ---------------------------------------
 Structure from the checkpoint file:  "JID_2808.chk"
 Charge =  0 Multiplicity = 1

 SCF Done:  E(RB3LYP) =  -608.141898884     A.U. after   15 cycles
 Normal termination of Gaussian 16 at Wed Dec  9 18:24:49 2020.

 ----------------------------------------------------------------------
 # B3LYP/6-311++G(d,p) empiricaldispersion=gd3bj scf=xqc pop=npa geom=c
 heck
 ----------------------------------------------------------------------

 -------------------------------------
 CID_131134913_JID_2808_Energie_kation
 -------------------------------------
 Structure from the checkpoint file:  "JID_2808.chk"
 Charge =  1 Multiplicity = 2

 SCF Done:  E(UB3LYP) =  -607.823007950     A.U. after   33 cycles
 SCF Done:  E(UB3LYP) =  -607.825491301     a.u. after   15 cycles
 Normal termination of Gaussian 16 at Wed Dec  9 19:12:17 2020.
 Gaussian 16:  ES64L-G16RevA.03 25-Dec-2016

 ----------------------------------------------------------------------
 # B3LYP/6-311++G(d,p) empiricaldispersion=gd3bj scf=xqc pop=npa geom=c
 heck
 ----------------------------------------------------------------------

 ------------------------------------
 CID_131134913_JID_2808_Energie_anion
 ------------------------------------
 Structure from the checkpoint file:  "JID_2808.chk"
 Charge = -1 Multiplicity = 2

                         Standard orientation:
 ---------------------------------------------------------------------
 Center     Atomic      Atomic             Coordinates (Angstroms)
 Number     Number       Type             X           Y           Z
 ---------------------------------------------------------------------
      1          6           0       -3.057871    1.378230    0.849138
      2          6           0       -2.979313    0.638349   -0.475117
      3          8           0       -2.468688   -0.708701   -0.305539
      4          6           0       -1.156733   -0.805654   -0.161972
      5          7           0       -0.243542    0.116172   -0.177689
      6          6           0        0.950559   -0.598533    0.008294
      7          6           0        0.663596   -1.920299    0.127050
      8          8           0       -0.701752   -2.068741    0.018931
      9          6           0        2.329541   -0.057373    0.079401
     10          8           0        3.271822   -0.830818    0.256069
     11          7           0        2.531743    1.285294   -0.053138
     12          6           0        1.575604    2.366355   -0.251995
     13          1           0       -3.671577    0.823796    1.565866
     14          1           0       -3.512689    2.362773    0.692717
     15          1           0       -2.059156    1.521958    1.269168
     16          1           0       -3.967627    0.486221   -0.912973
     17          1           0       -2.341146    1.163036   -1.191777
     18          1           0        1.249886   -2.809769    0.278981
     19          1           0        3.511252    1.524667    0.023902
     20          1           0        2.144400    3.294899   -0.344133
     21          1           0        0.984072    2.222087   -1.159185
     22          1           0        0.881813    2.459686    0.588749
 ---------------------------------------------------------------------

 SCF Done:  E(UB3LYP) =  -608.130777008     A.U. after   33 cycles
 SCF Done:  E(UB3LYP) =  -608.130777008     a.u. after    1 cycles

 The electronic state is 2-A.
 Alpha  occ. eigenvalues --  -19.09834 -19.07755 -18.96909 -14.22605 -14.20668
 Alpha  occ. eigenvalues --  -10.21368 -10.16018 -10.13332 -10.11918 -10.09936
 Alpha  occ. eigenvalues --  -10.09062 -10.06327  -1.05339  -0.98367  -0.92282
 Alpha  occ. eigenvalues --   -0.82635  -0.80635  -0.68882  -0.64953  -0.59972
 Alpha  occ. eigenvalues --   -0.57160  -0.54244  -0.49397  -0.47397  -0.42743
 Alpha  occ. eigenvalues --   -0.40552  -0.39459  -0.38985  -0.37945  -0.35797
 Alpha  occ. eigenvalues --   -0.34431  -0.33541  -0.31042  -0.30047  -0.29527
 Alpha  occ. eigenvalues --   -0.28715  -0.28291  -0.28163  -0.25271  -0.24543
 Alpha  occ. eigenvalues --   -0.21467  -0.19802  -0.15120  -0.14461  -0.13008
 Alpha  occ. eigenvalues --    0.04598
 Alpha virt. eigenvalues --    0.06434   0.06748   0.08726   0.09042   0.09275
 Alpha virt. eigenvalues --    0.10569   0.11130   0.11699   0.12981   0.13137
 Alpha virt. eigenvalues --    0.13649   0.14751   0.15559   0.15830   0.16200

  Beta  occ. eigenvalues --  -19.09747 -19.07761 -18.96853 -14.22575 -14.20671
  Beta  occ. eigenvalues --  -10.21357 -10.15933 -10.13303 -10.11749 -10.09930
  Beta  occ. eigenvalues --  -10.09023 -10.06285  -1.05237  -0.98325  -0.92158
  Beta  occ. eigenvalues --   -0.82597  -0.80559  -0.68787  -0.64805  -0.59859
  Beta  occ. eigenvalues --   -0.57066  -0.54057  -0.49311  -0.47315  -0.42681
  Beta  occ. eigenvalues --   -0.40417  -0.39300  -0.38882  -0.37849  -0.35710
  Beta  occ. eigenvalues --   -0.34269  -0.33375  -0.30966  -0.29968  -0.29453
  Beta  occ. eigenvalues --   -0.28653  -0.28239  -0.27849  -0.25184  -0.24410
  Beta  occ. eigenvalues --   -0.21332  -0.19771  -0.15058  -0.14228  -0.12481
  Beta virt. eigenvalues --    0.07326   0.07811   0.07924   0.09104   0.09283
  Beta virt. eigenvalues --    0.09927   0.11187   0.11611   0.12250   0.13200
  Beta virt. eigenvalues --    0.13263   0.13850   0.14994   0.15612   0.15771

 Mulliken charges and spin densities:
               1          2
     1  C    0.980529  -1.348651
     2  C   -0.147179  -0.097239
     3  O   -0.185848   0.035289
     4  C    0.170464  -0.207871
     5  N   -0.133621   0.026775
     6  C    0.340050  -0.197198
     7  C    0.077700  -0.160307
     8  O   -0.096174  -0.001989
     9  C   -0.281934   0.470527
    10  O   -0.428117   0.023670
    11  N   -0.420451   0.116777
    12  C    0.940309  -1.309326
    13  H   -0.015455   0.158504
    14  H   -0.718264   0.866413
    15  H   -0.023762   0.195512
    16  H   -0.565472   0.742042
    17  H    0.150267   0.022761
    18  H    0.177995   0.021566
    19  H    0.192774   0.130306
    20  H   -0.757013   0.898815
    21  H   -0.018750   0.193237
    22  H   -0.238050   0.420388
 Sum of Mulliken charges =  -1.00000   1.00000

 Dipole moment (field-independent basis, Debye):
    X=              1.1689    Y=             -5.5309    Z=              0.0013  Tot=              5.6531
 Quadrupole moment (field-independent basis, Debye-Ang):
   XX=           -143.0514   YY=           -119.8390   ZZ=            -89.1233
   XY=              9.2782   XZ=              0.1048   YZ=              0.2142

 Summary of Natural Population Analysis:

                                       Natural Population
                Natural  -----------------------------------------------
    Atom  No    Charge         Core      Valence    Rydberg      Total
 -----------------------------------------------------------------------
      C    1   -0.30148      0.99966     2.29651    0.00531     3.30148
      C    2   -0.01177      0.99958     1.99992    0.01228     3.01177
      O    3   -0.26994      0.99984     3.26134    0.00876     4.26994
      C    4    0.41453      0.99955     1.56401    0.02191     2.58547
      N    5   -0.29112      0.99965     2.78283    0.00864     3.79112
      C    6   -0.00782      0.99947     1.99594    0.01240     3.00782
      C    7    0.09372      0.99947     1.89366    0.01315     2.90628
      O    8   -0.23116      0.99985     3.22452    0.00678     4.23116
      C    9    0.33304      0.99961     1.64390    0.02344     2.66696
      O   10   -0.33098      0.99988     3.32596    0.00513     4.33098
      N   11   -0.30874      0.99969     2.79915    0.00991     3.80874
      C   12   -0.17877      0.99965     2.17076    0.00837     3.17877
      H   13    0.09876      0.00000     0.40009    0.00115     0.40124
      H   14    0.10805      0.00000     0.38888    0.00307     0.39195
      H   15    0.10766      0.00000     0.39068    0.00166     0.39234
      H   16    0.09223      0.00000     0.40600    0.00177     0.40777
      H   17    0.09462      0.00000     0.40347    0.00191     0.40538
      H   18    0.10194      0.00000     0.39708    0.00099     0.39806
      H   19    0.19165      0.00000     0.30612    0.00223     0.30835
      H   20    0.09659      0.00000     0.40127    0.00214     0.40341
      H   21    0.09884      0.00000     0.39968    0.00148     0.40116
      H   22    0.10015      0.00000     0.39806    0.00179     0.39985
 =======================================================================
   * Total *    0.00000     11.99591    32.84983    0.15427    45.00000

 Normal termination of Gaussian 16 at Wed Dec  9 19:16:14 2020.
