 Gaussian 16, Revision A.03,

 -----------------------------------------------------------
 # opt freq B3LYP/6-31G(d) empiricaldispersion=gd3bj scf=xqc
 -----------------------------------------------------------

 -----------------------------
 CID_1227137_JID_6553_neutraal
 -----------------------------
 Symbolic Z-matrix:
 Charge =  0 Multiplicity = 1

 SCF Done:  E(RB3LYP) =  -1065.94116635     A.U. after   16 cycles
 SCF Done:  E(RB3LYP) =  -1065.93143512     A.U. after   14 cycles
 SCF Done:  E(RB3LYP) =  -1065.94615763     A.U. after   13 cycles
 SCF Done:  E(RB3LYP) =  -1065.94687214     A.U. after   14 cycles
 SCF Done:  E(RB3LYP) =  -1065.94817352     A.U. after   13 cycles
 SCF Done:  E(RB3LYP) =  -1065.94835354     A.U. after   13 cycles
 SCF Done:  E(RB3LYP) =  -1065.94868706     A.U. after   12 cycles
 SCF Done:  E(RB3LYP) =  -1065.94890311     A.U. after   11 cycles
 SCF Done:  E(RB3LYP) =  -1065.94925414     A.U. after   12 cycles
 SCF Done:  E(RB3LYP) =  -1065.94966840     A.U. after   12 cycles
 SCF Done:  E(RB3LYP) =  -1065.95028870     A.U. after   11 cycles
 SCF Done:  E(RB3LYP) =  -1065.95034979     A.U. after   11 cycles
 SCF Done:  E(RB3LYP) =  -1065.95034594     A.U. after   10 cycles
 SCF Done:  E(RB3LYP) =  -1065.95035042     A.U. after    9 cycles
 SCF Done:  E(RB3LYP) =  -1065.95035058     A.U. after    8 cycles
 SCF Done:  E(RB3LYP) =  -1065.95035066     A.U. after    8 cycles
 Optimization completed.
    -- Stationary point found.
 Normal termination of Gaussian 16 at Thu Dec 10 23:42:55 2020.

 --------------------------------------------------------------------
 #N Geom=AllCheck Guess=TCheck SCRF=Check GenChk RB3LYP/6-31G(d) Freq
 --------------------------------------------------------------------

 Structure from the checkpoint file:  "JID_6553.chk"
 -----------------------------
 CID_1227137_JID_6553_neutraal
 -----------------------------
 Charge =  0 Multiplicity = 1

 SCF Done:  E(RB3LYP) =  -1065.95035066     A.U. after    1 cycles

  Exact polarizability: 173.816  31.769 139.560  11.779   2.628 143.937
 Approx polarizability: 254.381  65.921 212.715  31.036   2.871 265.087

                      1                      2                      3
                      A                      A                      A
 Frequencies --     41.7767                50.2637                58.2203
 Red. masses --      6.0109                 3.2496                 6.1262
 Frc consts  --      0.0062                 0.0048                 0.0122
 IR Inten    --      0.5720                 0.4830                 2.0701

                      4                      5                      6
                      A                      A                      A
 Frequencies --     73.6166                99.5887               110.1514
 Red. masses --      4.4105                 6.2128                 5.0249
 Frc consts  --      0.0141                 0.0363                 0.0359
 IR Inten    --      0.0099                 3.4353                 5.0901

                      7                      8                      9
                      A                      A                      A
 Frequencies --    185.9694               203.5462               214.3638
 Red. masses --      4.5682                 4.8090                 2.6463
 Frc consts  --      0.0931                 0.1174                 0.0716
 IR Inten    --      3.5547                 4.4742                 2.4392

                     10                     11                     12
                      A                      A                      A
 Frequencies --    240.4047               280.8422               286.1253
 Red. masses --      1.2104                 3.6056                 1.1800
 Frc consts  --      0.0412                 0.1676                 0.0569
 IR Inten    --      1.8187                 0.1919                 1.0259

                     13                     14                     15
                      A                      A                      A
 Frequencies --    303.4972               325.9155               356.5571
 Red. masses --      2.9984                 1.1797                 2.8448
 Frc consts  --      0.1627                 0.0738                 0.2131
 IR Inten    --      7.7522                 0.6787                 0.3865

                     16                     17                     18
                      A                      A                      A
 Frequencies --    363.5973               379.9724               413.2070
 Red. masses --      3.2500                 3.7714                 3.1088
 Frc consts  --      0.2532                 0.3208                 0.3127
 IR Inten    --      1.0872                 1.4458                 1.6565

                     19                     20                     21
                      A                      A                      A
 Frequencies --    422.3770               443.3472               445.9613
 Red. masses --      3.2451                 3.4519                 2.6736
 Frc consts  --      0.3411                 0.3998                 0.3133
 IR Inten    --      2.0497                 4.9524                 5.9306

                     22                     23                     24
                      A                      A                      A
 Frequencies --    507.2256               553.3630               595.5836
 Red. masses --      3.0924                 5.7608                 1.8352
 Frc consts  --      0.4688                 1.0393                 0.3836
 IR Inten    --      1.0908                 9.1984                30.8956

                     25                     26                     27
                      A                      A                      A
 Frequencies --    633.1545               644.2975               675.0056
 Red. masses --      4.0871                 3.7609                 8.4323
 Frc consts  --      0.9654                 0.9198                 2.2637
 IR Inten    --     31.1576                59.6391                 0.5627

                     28                     29                     30
                      A                      A                      A
 Frequencies --    712.9852               721.5938               743.1796
 Red. masses --      2.3633                 2.8888                 2.2722
 Frc consts  --      0.7078                 0.8862                 0.7394
 IR Inten    --     21.4613                22.0508                83.5242

                     31                     32                     33
                      A                      A                      A
 Frequencies --    784.5057               794.8013               844.3238
 Red. masses --      3.5084                 2.7185                 1.9278
 Frc consts  --      1.2722                 1.0118                 0.8097
 IR Inten    --      1.8973                49.0310                 8.4483

                     34                     35                     36
                      A                      A                      A
 Frequencies --    899.0181               931.2889               954.7376
 Red. masses --      2.4887                 1.7615                 1.5969
 Frc consts  --      1.1851                 0.9001                 0.8576
 IR Inten    --     13.6234                 0.2162                 2.9411

                     37                     38                     39
                      A                      A                      A
 Frequencies --    964.7307               976.7720               982.4741
 Red. masses --      1.3244                 1.2222                 3.9482
 Frc consts  --      0.7262                 0.6870                 2.2454
 IR Inten    --      0.0834                 0.6835                21.0714

                     40                     41                     42
                      A                      A                      A
 Frequencies --    992.5093              1003.8207              1043.4984
 Red. masses --      1.4911                 1.3899                 4.2477
 Frc consts  --      0.8654                 0.8252                 2.7251
 IR Inten    --      2.8855                 1.0999                 9.7957

                     43                     44                     45
                      A                      A                      A
 Frequencies --   1065.7335              1069.7526              1074.8411
 Red. masses --      1.4161                 3.0711                 1.5414
 Frc consts  --      0.9476                 2.0707                 1.0492
 IR Inten    --      4.4587                 0.1845                 2.3328

                     46                     47                     48
                      A                      A                      A
 Frequencies --   1128.8544              1148.8691              1188.2491
 Red. masses --      2.9999                 1.4101                 2.3098
 Frc consts  --      2.2523                 1.0966                 1.9215
 IR Inten    --     25.5039                14.9645               194.7070

                     49                     50                     51
                      A                      A                      A
 Frequencies --   1234.5137              1239.7991              1260.7135
 Red. masses --      2.2423                 1.4769                 2.7909
 Frc consts  --      2.0134                 1.3376                 2.6135
 IR Inten    --     55.1142                13.9078                47.9752

                     52                     53                     54
                      A                      A                      A
 Frequencies --   1292.3906              1311.0282              1346.6155
 Red. masses --      3.1468                 7.1739                 5.1481
 Frc consts  --      3.0967                 7.2649                 5.5003
 IR Inten    --     56.6138                38.7508               432.7693

                     55                     56                     57
                      A                      A                      A
 Frequencies --   1382.5749              1431.3189              1435.1541
 Red. masses --      1.3026                 1.2327                 1.2435
 Frc consts  --      1.4670                 1.4880                 1.5090
 IR Inten    --      2.1304                 5.5436                 7.6522

                     58                     59                     60
                      A                      A                      A
 Frequencies --   1443.2329              1457.9869              1465.3845
 Red. masses --      3.3219                 1.5277                 2.0934
 Frc consts  --      4.0768                 1.9134                 2.6485
 IR Inten    --    165.4258               111.9222                22.2560

                     61                     62                     63
                      A                      A                      A
 Frequencies --   1469.1453              1506.6923              1512.6484
 Red. masses --      1.3227                 1.0535                 1.0508
 Frc consts  --      1.6820                 1.4091                 1.4165
 IR Inten    --     43.5709                 3.3892                 1.1800

                     64                     65                     66
                      A                      A                      A
 Frequencies --   1515.8087              1529.3093              1529.4888
 Red. masses --      1.0471                 1.9468                 1.1715
 Frc consts  --      1.4175                 2.6826                 1.6147
 IR Inten    --      2.2171                14.8135                35.9150

                     67                     68                     69
                      A                      A                      A
 Frequencies --   1538.2895              1549.2482              1587.4215
 Red. masses --      1.0662                 1.0563                 1.5199
 Frc consts  --      1.4865                 1.4937                 2.2566
 IR Inten    --      7.4767                 8.8871               235.0622

                     70                     71                     72
                      A                      A                      A
 Frequencies --   1626.0140              1649.1848              1771.4021
 Red. masses --      5.1152                 5.5149                 9.6806
 Frc consts  --      7.9682                 8.8374                17.8973
 IR Inten    --      9.8957                46.3788               328.7879

                     73                     74                     75
                      A                      A                      A
 Frequencies --   3050.3706              3061.7841              3078.3969
 Red. masses --      1.0361                 1.0386                 1.0401
 Frc consts  --      5.6799                 5.7364                 5.8071
 IR Inten    --     12.4610                22.2430                10.9357

                     76                     77                     78
                      A                      A                      A
 Frequencies --   3117.0163              3124.4347              3134.9438
 Red. masses --      1.1016                 1.1017                 1.1031
 Frc consts  --      6.3059                 6.3365                 6.3874
 IR Inten    --      5.0548                36.2787                 5.4173

                     79                     80                     81
                      A                      A                      A
 Frequencies --   3142.8463              3167.2739              3174.8841
 Red. masses --      1.1003                 1.0990                 1.1003
 Frc consts  --      6.4031                 6.4956                 6.5343
 IR Inten    --     34.5311                 5.3399                20.7147

                     82                     83                     84
                      A                      A                      A
 Frequencies --   3179.9749              3200.6296              3211.5897
 Red. masses --      1.0893                 1.0919                 1.0903
 Frc consts  --      6.4899                 6.5906                 6.6256
 IR Inten    --     19.9295                 6.0563                 9.4070

                     85                     86                     87
                      A                      A                      A
 Frequencies --   3225.7976              3562.4092              3594.7338
 Red. masses --      1.0961                 1.0748                 1.0760
 Frc consts  --      6.7202                 8.0367                 8.1922
 IR Inten    --      6.9151                24.5033                62.6935

 - Thermochemistry -
 -------------------
 Temperature   298.150 Kelvin.  Pressure   1.00000 Atm.
 Atom     1 has atomic number  6 and mass  12.00000

 Molecular mass:   237.09358 amu.
 Principal axes and moments of inertia in atomic units:
                           1         2         3
     Eigenvalues --  2939.084064621.392085236.22648
           X            0.99938  -0.03348  -0.01101
           Y            0.03363   0.99934   0.01398
           Z            0.01053  -0.01434   0.99984
 This molecule is an asymmetric top.
 Rotational symmetry number  1.
 Warning -- assumption of classical behavior for rotation
           may cause significant error
 Rotational temperatures (Kelvin)      0.02947     0.01874     0.01654
 Rotational constants (GHZ):           0.61405     0.39052     0.34466
 Zero-point vibrational energy     670189.4 (Joules/Mol)
                                  160.17912 (Kcal/Mol)
 Warning -- explicit consideration of  24 degrees of freedom as
           vibrations may cause significant error
 Vibrational temperatures:     60.11    72.32    83.77   105.92   143.29
          (Kelvin)            158.48   267.57   292.86   308.42   345.89
                              404.07   411.67   436.66   468.92   513.01
                              523.14   546.70   594.51   607.71   637.88
                              641.64   729.78   796.17   856.91   910.97
                              927.00   971.18  1025.83  1038.21  1069.27
                             1128.73  1143.54  1214.79  1293.49  1339.92
                             1373.65  1388.03  1405.36  1413.56  1428.00
                             1444.27  1501.36  1533.35  1539.14  1546.46
                             1624.17  1652.97  1709.63  1776.19  1783.79
                             1813.89  1859.46  1886.28  1937.48  1989.22
                             2059.35  2064.87  2076.49  2097.72  2108.36
                             2113.77  2167.79  2176.36  2180.91  2200.33
                             2200.59  2213.26  2229.02  2283.95  2339.47
                             2372.81  2548.65  4388.80  4405.22  4429.13
                             4484.69  4495.36  4510.48  4521.85  4557.00
                             4567.95  4575.27  4604.99  4620.76  4641.20
                             5125.51  5172.02

 Zero-point correction=                           0.255262 (Hartree/Particle)
 Thermal correction to Energy=                    0.271038
 Thermal correction to Enthalpy=                  0.271982
 Thermal correction to Gibbs Free Energy=         0.211797
 Sum of electronic and zero-point Energies=          -1065.695089
 Sum of electronic and thermal Energies=             -1065.679313
 Sum of electronic and thermal Enthalpies=           -1065.678369
 Sum of electronic and thermal Free Energies=        -1065.738554

                     E (Thermal)             CV                S
                      KCal/Mol        Cal/Mol-Kelvin    Cal/Mol-Kelvin
 Total                  170.079             60.001            126.670
 Electronic               0.000              0.000              0.000
 Translational            0.889              2.981             42.291
 Rotational               0.889              2.981             32.631
 Vibrational            168.301             54.039             51.748
 Vibration     1          0.594              1.980              5.173
 Vibration     2          0.595              1.977              4.807
 Vibration     3          0.596              1.974              4.517
 Vibration     4          0.599              1.966              4.054
 Vibration     5          0.604              1.949              3.462
 Vibration     6          0.606              1.941              3.266
 Vibration     7          0.632              1.859              2.268
 Vibration     8          0.639              1.835              2.101
 Vibration     9          0.644              1.819              2.006
 Vibration    10          0.657              1.779              1.800
 Vibration    11          0.681              1.709              1.529
 Vibration    12          0.684              1.699              1.497
 Vibration    13          0.695              1.667              1.398
 Vibration    14          0.710              1.624              1.280
 Vibration    15          0.732              1.562              1.137
 Vibration    16          0.737              1.547              1.107
 Vibration    17          0.750              1.513              1.039
 Vibration    18          0.777              1.442              0.915
 Vibration    19          0.785              1.422              0.884
 Vibration    20          0.803              1.376              0.816
 Vibration    21          0.805              1.370              0.808
 Vibration    22          0.862              1.234              0.640
 Vibration    23          0.909              1.132              0.537
 Vibration    24          0.953              1.041              0.457

 Optimization completed.
    -- Stationary point found.
 Normal termination of Gaussian 16 at Thu Dec 10 23:55:04 2020.

 ----------------------------------------------------------------------
 # B3LYP/6-311++G(d,p) empiricaldispersion=gd3bj scf=xqc pop=npa geom=c
 heck
 ----------------------------------------------------------------------

 -------------------------------------
 CID_1227137_JID_6553_Energie_neutraal
 -------------------------------------
 Structure from the checkpoint file:  "JID_6553.chk"
 Charge =  0 Multiplicity = 1

 SCF Done:  E(RB3LYP) =  -1066.16344278     A.U. after   16 cycles
 Normal termination of Gaussian 16 at Fri Dec 11 00:00:21 2020.

 ----------------------------------------------------------------------
 # B3LYP/6-311++G(d,p) empiricaldispersion=gd3bj scf=xqc pop=npa geom=c
 heck
 ----------------------------------------------------------------------

 -----------------------------------
 CID_1227137_JID_6553_Energie_kation
 -----------------------------------
 Structure from the checkpoint file:  "JID_6553.chk"
 Charge =  1 Multiplicity = 2

 SCF Done:  E(UB3LYP) =  -1065.86475399     A.U. after   29 cycles
 Normal termination of Gaussian 16 at Fri Dec 11 00:12:57 2020.
 Gaussian 16:  ES64L-G16RevA.03 25-Dec-2016

 ----------------------------------------------------------------------
 # B3LYP/6-311++G(d,p) empiricaldispersion=gd3bj scf=xqc pop=npa geom=c
 heck
 ----------------------------------------------------------------------

 ----------------------------------
 CID_1227137_JID_6553_Energie_anion
 ----------------------------------
 Structure from the checkpoint file:  "JID_6553.chk"
 Charge = -1 Multiplicity = 2

                         Standard orientation:
 ---------------------------------------------------------------------
 Center     Atomic      Atomic             Coordinates (Angstroms)
 Number     Number       Type             X           Y           Z
 ---------------------------------------------------------------------
      1          6           0       -1.017567    1.463407    1.699669
      2          6           0       -1.193755    1.701824    0.198448
      3          6           0       -2.506895    2.477148   -0.026904
      4          6           0       -0.010313    2.499650   -0.368336
      5          7           0       -1.327837    0.445091   -0.607304
      6          6           0       -1.588986   -0.839767   -0.260614
      7         16           0       -2.650212   -1.803705   -1.122817
      8          7           0       -0.908813   -1.370986    0.836343
      9          6           0        0.426414   -1.278566    1.241013
     10          8           0        0.750466   -1.737399    2.325139
     11          6           0        1.433995   -0.679072    0.319449
     12          6           0        1.382344   -0.803201   -1.075760
     13          7           0        2.313257   -0.304724   -1.893764
     14          6           0        3.343025    0.344550   -1.335486
     15          6           0        3.511896    0.490513    0.043166
     16          6           0        2.544651   -0.045992    0.885402
     17          1           0       -1.066876    2.435774    2.199906
     18          1           0       -0.053468    1.019948    1.950233
     19          1           0       -1.809749    0.831623    2.108918
     20          1           0       -2.471194    3.442192    0.488985
     21          1           0       -2.670628    2.674744   -1.092939
     22          1           0       -3.362326    1.909018    0.352029
     23          1           0        0.933860    1.976468   -0.206382
     24          1           0       -0.130511    2.661463   -1.445152
     25          1           0        0.046785    3.479997    0.116900
     26          1           0       -1.750474    0.642138   -1.508320
     27          1           0       -1.402474   -2.120912    1.306874
     28          1           0        0.570076   -1.343755   -1.553666
     29          1           0        4.074489    0.759416   -2.026334
     30          1           0        4.381090    1.005198    0.439938
     31          1           0        2.625965    0.016520    1.965767
 ---------------------------------------------------------------------

 SCF Done:  E(UB3LYP) =  -1066.19074923     A.U. after   25 cycles

 The electronic state is 2-A.
 Alpha  occ. eigenvalues --  -88.66161 -18.94249 -14.21750 -14.21638 -14.17685
 Alpha  occ. eigenvalues --  -10.14472 -10.12763 -10.11972 -10.07425 -10.07253
 Alpha  occ. eigenvalues --  -10.06643 -10.06174 -10.05988 -10.05429 -10.05083
 Alpha  occ. eigenvalues --  -10.04420  -7.74952  -5.71327  -5.70827  -5.70494
 Alpha  occ. eigenvalues --   -0.90368  -0.85116  -0.81054  -0.78359  -0.70327
 Alpha  occ. eigenvalues --   -0.67597  -0.63797  -0.60236  -0.60026  -0.59384
 Alpha  occ. eigenvalues --   -0.52487  -0.50110  -0.50007  -0.47915  -0.44691
 Alpha  occ. eigenvalues --   -0.40581  -0.38921  -0.37593  -0.36534  -0.35401
 Alpha  occ. eigenvalues --   -0.34455  -0.33293  -0.31461  -0.31166  -0.29805
 Alpha  occ. eigenvalues --   -0.29237  -0.28603  -0.28053  -0.27729  -0.26987
 Alpha  occ. eigenvalues --   -0.26139  -0.25890  -0.24693  -0.24306  -0.23747
 Alpha  occ. eigenvalues --   -0.21957  -0.16383  -0.15074  -0.13771  -0.13186
 Alpha  occ. eigenvalues --   -0.11969  -0.10506  -0.08398   0.02843
 Alpha virt. eigenvalues --    0.06928   0.08134   0.08530   0.09482   0.09852
 Alpha virt. eigenvalues --    0.10064   0.10597   0.10738   0.11885   0.12268
 Alpha virt. eigenvalues --    0.12774   0.13057   0.13828   0.14432   0.14866

  Beta  occ. eigenvalues --  -88.66141 -18.93814 -14.21870 -14.21542 -14.17704
  Beta  occ. eigenvalues --  -10.14124 -10.12750 -10.11653 -10.07420 -10.07185
  Beta  occ. eigenvalues --  -10.06348 -10.06172 -10.05984 -10.05505 -10.04895
  Beta  occ. eigenvalues --  -10.04315  -7.74934  -5.71329  -5.70756  -5.70479
  Beta  occ. eigenvalues --   -0.89687  -0.84753  -0.80864  -0.78209  -0.70217
  Beta  occ. eigenvalues --   -0.67288  -0.63422  -0.60051  -0.59925  -0.59323
  Beta  occ. eigenvalues --   -0.51824  -0.49950  -0.49767  -0.47685  -0.44451
  Beta  occ. eigenvalues --   -0.40441  -0.38815  -0.37450  -0.36241  -0.35280
  Beta  occ. eigenvalues --   -0.34273  -0.33204  -0.31150  -0.31063  -0.29653
  Beta  occ. eigenvalues --   -0.28927  -0.28192  -0.27652  -0.27420  -0.26776
  Beta  occ. eigenvalues --   -0.25628  -0.25527  -0.24589  -0.24082  -0.23423
  Beta  occ. eigenvalues --   -0.20741  -0.15682  -0.14335  -0.13323  -0.12588
  Beta  occ. eigenvalues --   -0.11502  -0.10040  -0.08165
  Beta virt. eigenvalues --    0.06906   0.08218   0.08617   0.09234   0.09788
  Beta virt. eigenvalues --    0.10229   0.10270   0.10691   0.10846   0.11876
  Beta virt. eigenvalues --    0.12252   0.12753   0.13038   0.13859   0.14430

 Mulliken charges and spin densities:
               1          2
     1  C   -0.458644  -0.002209
     2  C    0.373362  -0.036906
     3  C   -0.572229   0.002752
     4  C   -0.650902   0.030335
     5  N    0.184501   0.064983
     6  C    0.124140   0.132159
     7  S   -1.001082   0.077731
     8  N   -0.110813  -0.070863
     9  C   -0.653557   0.181941
    10  O   -0.335881   0.156457
    11  C    0.666343   0.019169
    12  C   -0.621140   0.042293
    13  N   -0.022629  -0.018253
    14  C   -0.322297   0.214992
    15  C   -0.183891  -0.058999
    16  C    0.002081   0.228486
    17  H    0.139304   0.000422
    18  H    0.228007  -0.005105
    19  H    0.164455   0.002993
    20  H    0.112799   0.011156
    21  H    0.129012  -0.000069
    22  H    0.159845   0.003470
    23  H    0.177270  -0.002584
    24  H    0.136637   0.002623
    25  H    0.106309   0.003227
    26  H    0.248083   0.001497
    27  H    0.299921   0.027808
    28  H    0.234228   0.008885
    29  H    0.136273  -0.018657
    30  H    0.132326   0.004878
    31  H    0.178167  -0.004612
 Sum of Mulliken charges =  -1.00000   1.00000

 Dipole moment (field-independent basis, Debye):
    X=             -0.4884    Y=              7.3100    Z=              1.2910  Tot=              7.4392
 Quadrupole moment (field-independent basis, Debye-Ang):
   XX=           -138.9276   YY=           -124.2522   ZZ=           -131.6092
   XY=             -5.5738   XZ=             -3.7845   YZ=              1.5411

 Summary of Natural Population Analysis:

                                       Natural Population
                Natural  -----------------------------------------------
    Atom  No    Charge         Core      Valence    Rydberg      Total
 -----------------------------------------------------------------------
      C    1   -0.29112      0.99962     2.28581    0.00569     3.29112
      C    2    0.06366      0.99959     1.92677    0.00999     2.93634
      C    3   -0.28541      0.99962     2.28066    0.00513     3.28541
      C    4   -0.28738      0.99961     2.28169    0.00607     3.28738
      N    5   -0.30672      0.99961     2.79197    0.01514     3.80672
      C    6    0.20071      0.99967     1.77873    0.02089     2.79929
      S    7   -0.14982      4.99956     3.13618    0.01408     8.14982
      N    8   -0.34508      0.99962     2.83299    0.01247     3.84508
      C    9    0.37404      0.99962     1.60454    0.02180     2.62596
      O   10   -0.27264      0.99988     3.26716    0.00560     4.27264
      C   11   -0.07771      0.99946     2.06536    0.01289     3.07771
      C   12    0.05485      0.99955     1.93181    0.01379     2.94515
      N   13   -0.24847      0.99972     2.73694    0.01182     3.74847
      C   14    0.07364      0.99960     1.91191    0.01486     2.92636
      C   15   -0.15295      0.99956     2.14469    0.00869     3.15295
      C   16   -0.03573      0.99954     2.02758    0.00861     3.03573
      H   17    0.09564      0.00000     0.40357    0.00079     0.40436
      H   18    0.11378      0.00000     0.38533    0.00089     0.38622
      H   19    0.10643      0.00000     0.39280    0.00077     0.39357
      H   20    0.09589      0.00000     0.40329    0.00082     0.40411
      H   21    0.09608      0.00000     0.40313    0.00079     0.40392
      H   22    0.10437      0.00000     0.39488    0.00075     0.39563
      H   23    0.11603      0.00000     0.38280    0.00118     0.38397
      H   24    0.09815      0.00000     0.40109    0.00076     0.40185
      H   25    0.09199      0.00000     0.40719    0.00082     0.40801
      H   26    0.19104      0.00000     0.30724    0.00172     0.30896
      H   27    0.20478      0.00000     0.29375    0.00147     0.29522
      H   28    0.09569      0.00000     0.40298    0.00133     0.40431
      H   29    0.07734      0.00000     0.42138    0.00128     0.42266
      H   30    0.09509      0.00000     0.40374    0.00117     0.40491
      H   31    0.10385      0.00000     0.39508    0.00107     0.39615
 =======================================================================
   * Total *    0.00000     19.99383    42.80302    0.20314    63.00000

 Normal termination of Gaussian 16 at Fri Dec 11 00:23:53 2020.
