 Gaussian 16, Revision A.03,

 -----------------------------------------------------------
 # opt freq B3LYP/6-31G(d) empiricaldispersion=gd3bj scf=xqc
 -----------------------------------------------------------

 ------------------------------
 CID_83263659_JID_4145_neutraal
 ------------------------------
 Symbolic Z-matrix:
 Charge =  0 Multiplicity = 1

 SCF Done:  E(RB3LYP) =  -653.102747506     A.U. after   14 cycles
 SCF Done:  E(RB3LYP) =  -653.108515654     A.U. after   12 cycles
 SCF Done:  E(RB3LYP) =  -653.110152103     A.U. after   12 cycles
 SCF Done:  E(RB3LYP) =  -653.111234545     A.U. after   12 cycles
 SCF Done:  E(RB3LYP) =  -653.111867771     A.U. after   13 cycles
 SCF Done:  E(RB3LYP) =  -653.112395469     A.U. after   11 cycles
 SCF Done:  E(RB3LYP) =  -653.112593257     A.U. after   12 cycles
 SCF Done:  E(RB3LYP) =  -653.112667598     A.U. after   11 cycles
 SCF Done:  E(RB3LYP) =  -653.112683646     A.U. after   11 cycles
 SCF Done:  E(RB3LYP) =  -653.112651526     A.U. after   11 cycles
 SCF Done:  E(RB3LYP) =  -653.112757377     A.U. after   10 cycles
 SCF Done:  E(RB3LYP) =  -653.112760127     A.U. after    9 cycles
 SCF Done:  E(RB3LYP) =  -653.112760940     A.U. after    9 cycles
 SCF Done:  E(RB3LYP) =  -653.112761066     A.U. after    7 cycles
 SCF Done:  E(RB3LYP) =  -653.112761105     A.U. after    7 cycles
 Optimization completed.
    -- Stationary point found.
 Normal termination of Gaussian 16 at Thu Dec 10 09:22:30 2020.

 --------------------------------------------------------------------
 #N Geom=AllCheck Guess=TCheck SCRF=Check GenChk RB3LYP/6-31G(d) Freq
 --------------------------------------------------------------------

 Structure from the checkpoint file:  "JID_4145.chk"
 ------------------------------
 CID_83263659_JID_4145_neutraal
 ------------------------------
 Charge =  0 Multiplicity = 1

 SCF Done:  E(RB3LYP) =  -653.112761105     A.U. after    1 cycles

  Exact polarizability: 136.073  -2.751 125.392  -2.046   5.562 104.862
 Approx polarizability: 170.175  -6.194 173.930  -3.769  15.729 161.948

                      1                      2                      3
                      A                      A                      A
 Frequencies --     22.2779                56.1286                65.6836
 Red. masses --      3.9916                 3.0662                 3.1163
 Frc consts  --      0.0012                 0.0057                 0.0079
 IR Inten    --      1.2338                 0.4658                 0.9906

                      4                      5                      6
                      A                      A                      A
 Frequencies --     91.0386               107.7173               116.5991
 Red. masses --      3.4975                 2.1997                 2.7529
 Frc consts  --      0.0171                 0.0150                 0.0221
 IR Inten    --      0.5262                 1.1220                 1.8655

                      7                      8                      9
                      A                      A                      A
 Frequencies --    127.1729               172.6323               178.5767
 Red. masses --      2.5302                 2.2160                 2.4606
 Frc consts  --      0.0241                 0.0389                 0.0462
 IR Inten    --      1.3589                 8.0265                 3.5181

                     10                     11                     12
                      A                      A                      A
 Frequencies --    199.0111               220.0635               234.2140
 Red. masses --      2.4990                 1.7053                 1.3671
 Frc consts  --      0.0583                 0.0487                 0.0442
 IR Inten    --      1.6562                 0.3923                 0.2006

                     13                     14                     15
                      A                      A                      A
 Frequencies --    261.7398               278.9592               293.1443
 Red. masses --      1.2121                 2.9371                 1.9427
 Frc consts  --      0.0489                 0.1347                 0.0984
 IR Inten    --      8.9193                 4.6551                 1.0315

                     16                     17                     18
                      A                      A                      A
 Frequencies --    332.5100               361.2227               423.1674
 Red. masses --      2.6658                 2.6659                 2.7959
 Frc consts  --      0.1737                 0.2049                 0.2950
 IR Inten    --      0.2676                 1.5497                 1.2877

                     19                     20                     21
                      A                      A                      A
 Frequencies --    443.5537               488.6782               533.2497
 Red. masses --      2.5471                 2.8897                 4.4210
 Frc consts  --      0.2953                 0.4066                 0.7407
 IR Inten    --      0.2969                 7.4577                14.3557

                     22                     23                     24
                      A                      A                      A
 Frequencies --    573.4112               639.1193               648.1463
 Red. masses --      3.1618                 3.0631                 3.6624
 Frc consts  --      0.6125                 0.7372                 0.9065
 IR Inten    --     15.9880                 1.1835                10.4004

                     25                     26                     27
                      A                      A                      A
 Frequencies --    693.6306               729.7347               780.7750
 Red. masses --      3.9663                 2.3801                 1.3822
 Frc consts  --      1.1243                 0.7468                 0.4965
 IR Inten    --      6.0886                 4.5678                15.0131

                     28                     29                     30
                      A                      A                      A
 Frequencies --    852.2725               868.5971               893.6673
 Red. masses --      2.0601                 2.4540                 1.8543
 Frc consts  --      0.8816                 1.0908                 0.8725
 IR Inten    --    115.8632                 2.0164                 0.2319

                     31                     32                     33
                      A                      A                      A
 Frequencies --    914.3260               921.8865               978.6072
 Red. masses --      1.5053                 1.9149                 2.1765
 Frc consts  --      0.7414                 0.9588                 1.2281
 IR Inten    --      3.5486                 6.1100                19.7249

                     34                     35                     36
                      A                      A                      A
 Frequencies --   1005.4405              1025.4363              1028.2328
 Red. masses --      2.4347                 2.0367                 1.6840
 Frc consts  --      1.4501                 1.2618                 1.0490
 IR Inten    --     13.1688                 1.9944                 9.5441

                     37                     38                     39
                      A                      A                      A
 Frequencies --   1063.3575              1086.3583              1093.6110
 Red. masses --      1.9595                 2.9923                 2.6899
 Frc consts  --      1.3054                 2.0807                 1.8955
 IR Inten    --      2.3154                 5.1195                 8.5881

                     40                     41                     42
                      A                      A                      A
 Frequencies --   1110.3874              1137.1453              1146.9431
 Red. masses --      1.9870                 1.7772                 2.3705
 Frc consts  --      1.4435                 1.3540                 1.8373
 IR Inten    --     16.7028                25.1960                71.7960

                     43                     44                     45
                      A                      A                      A
 Frequencies --   1155.5567              1164.8035              1180.0101
 Red. masses --      2.3048                 2.1123                 2.9286
 Frc consts  --      1.8133                 1.6885                 2.4026
 IR Inten    --      4.8392                 2.3041                69.7502

                     46                     47                     48
                      A                      A                      A
 Frequencies --   1195.7908              1216.2781              1234.1077
 Red. masses --      1.3927                 2.7246                 1.7849
 Frc consts  --      1.1733                 2.3748                 1.6017
 IR Inten    --      7.3430                32.2230                37.1234

                     49                     50                     51
                      A                      A                      A
 Frequencies --   1260.8709              1272.8941              1300.9318
 Red. masses --      1.5002                 1.4171                 1.3131
 Frc consts  --      1.4052                 1.3528                 1.3094
 IR Inten    --     30.7322                11.2314                42.5005

                     52                     53                     54
                      A                      A                      A
 Frequencies --   1316.2425              1318.3507              1340.4948
 Red. masses --      1.4128                 1.2947                 1.5821
 Frc consts  --      1.4421                 1.3258                 1.6750
 IR Inten    --     73.9434                17.9747                29.5730

                     55                     56                     57
                      A                      A                      A
 Frequencies --   1371.6472              1391.9950              1403.3472
 Red. masses --      1.2771                 1.4810                 1.5027
 Frc consts  --      1.4156                 1.6908                 1.7436
 IR Inten    --     17.3867                25.1057                41.5906

                     58                     59                     60
                      A                      A                      A
 Frequencies --   1409.2504              1418.8985              1439.6038
 Red. masses --      1.4155                 1.5557                 1.2780
 Frc consts  --      1.6563                 1.8453                 1.5606
 IR Inten    --     17.8117                40.4580                33.3672

                     61                     62                     63
                      A                      A                      A
 Frequencies --   1444.8927              1447.9171              1460.7789
 Red. masses --      1.2960                 1.2981                 1.4338
 Frc consts  --      1.5942                 1.6034                 1.8026
 IR Inten    --     13.5389                 8.1000                32.1871

                     64                     65                     66
                      A                      A                      A
 Frequencies --   1500.8508              1504.3225              1510.6592
 Red. masses --      1.1493                 1.1699                 1.0849
 Frc consts  --      1.5254                 1.5598                 1.4587
 IR Inten    --     18.6502                22.2423                 1.2929

                     67                     68                     69
                      A                      A                      A
 Frequencies --   1514.5314              1515.4195              1516.8551
 Red. masses --      1.0482                 1.0839                 1.0596
 Frc consts  --      1.4166                 1.4665                 1.4364
 IR Inten    --      5.3874                 0.9382                 9.3511

                     70                     71                     72
                      A                      A                      A
 Frequencies --   1523.6910              1530.4802              1531.3928
 Red. masses --      1.0581                 1.0602                 1.0628
 Frc consts  --      1.4473                 1.4632                 1.4684
 IR Inten    --      2.0399                 7.2027                 8.3937

                     73                     74                     75
                      A                      A                      A
 Frequencies --   1534.5107              1539.8927              1552.5321
 Red. masses --      1.0523                 1.0808                 1.0880
 Frc consts  --      1.4599                 1.5099                 1.5451
 IR Inten    --      4.8861                 7.2158                 5.2853

                     76                     77                     78
                      A                      A                      A
 Frequencies --   1806.4102              2985.8624              2997.3104
 Red. masses --     11.8087                 1.0514                 1.0451
 Frc consts  --     22.7031                 5.5226                 5.5317
 IR Inten    --    298.2829                32.9814                85.3527

                     79                     80                     81
                      A                      A                      A
 Frequencies --   3013.2525              3029.5172              3039.5334
 Red. masses --      1.0837                 1.1016                 1.1055
 Frc consts  --      5.7973                 5.9568                 6.0175
 IR Inten    --     32.8278                75.9031                40.5155

                     82                     83                     84
                      A                      A                      A
 Frequencies --   3042.9533              3044.5599              3047.3230
 Red. masses --      1.0649                 1.0702                 1.0435
 Frc consts  --      5.8097                 5.8448                 5.7093
 IR Inten    --     18.0562                33.7407                31.6698

                     85                     86                     87
                      A                      A                      A
 Frequencies --   3047.5029              3055.8730              3078.6728
 Red. masses --      1.0588                 1.0420                 1.0846
 Frc consts  --      5.7936                 5.7332                 6.0568
 IR Inten    --     14.6979                22.9604                16.9870

                     88                     89                     90
                      A                      A                      A
 Frequencies --   3080.7292              3104.1307              3114.3414
 Red. masses --      1.0980                 1.0963                 1.1021
 Frc consts  --      6.1400                 6.2240                 6.2981
 IR Inten    --     14.9823                27.4081                51.9265

                     91                     92                     93
                      A                      A                      A
 Frequencies --   3115.9467              3123.7733              3133.9497
 Red. masses --      1.1017                 1.1005                 1.0951
 Frc consts  --      6.3021                 6.3268                 6.3370
 IR Inten    --     47.0277                31.3661                12.7279

                     94                     95                     96
                      A                      A                      A
 Frequencies --   3139.4964              3186.6281              3479.9475
 Red. masses --      1.0972                 1.0975                 1.0744
 Frc consts  --      6.3715                 6.5662                 7.6657
 IR Inten    --     29.0130                 2.7797                 0.0478

 - Thermochemistry -
 -------------------
 Temperature   298.150 Kelvin.  Pressure   1.00000 Atm.
 Atom     1 has atomic number  6 and mass  12.00000

 Molecular mass:   200.15248 amu.
 Principal axes and moments of inertia in atomic units:
                           1         2         3
     Eigenvalues --  2190.440823520.374234628.02642
           X            0.99935   0.03519   0.00760
           Y           -0.03495   0.99897  -0.02884
           Z           -0.00861   0.02855   0.99956
 This molecule is an asymmetric top.
 Rotational symmetry number  1.
 Warning -- assumption of classical behavior for rotation
           may cause significant error
 Rotational temperatures (Kelvin)      0.03954     0.02460     0.01872
 Rotational constants (GHZ):           0.82392     0.51266     0.38996
 Zero-point vibrational energy     800815.8 (Joules/Mol)
                                  191.39956 (Kcal/Mol)
 Warning -- explicit consideration of  22 degrees of freedom as
           vibrations may cause significant error
 Vibrational temperatures:     32.05    80.76    94.50   130.98   154.98
          (Kelvin)            167.76   182.97   248.38   256.93   286.33
                              316.62   336.98   376.59   401.36   421.77
                              478.41   519.72   608.84   638.17   703.10
                              767.23   825.01   919.55   932.54   997.98
                             1049.93  1123.36  1226.23  1249.72  1285.79
                             1315.51  1326.39  1408.00  1446.60  1475.37
                             1479.40  1529.93  1563.03  1573.46  1597.60
                             1636.10  1650.20  1662.59  1675.89  1697.77
                             1720.48  1749.95  1775.61  1814.11  1831.41
                             1871.75  1893.78  1896.81  1928.67  1973.49
                             2002.77  2019.10  2027.60  2041.48  2071.27
                             2078.88  2083.23  2101.74  2159.39  2164.38
                             2173.50  2179.07  2180.35  2182.42  2192.25
                             2202.02  2203.33  2207.82  2215.56  2233.75
                             2599.02  4295.99  4312.46  4335.40  4358.80
                             4373.21  4378.13  4380.44  4384.42  4384.68
                             4396.72  4429.52  4432.48  4466.15  4480.84
                             4483.15  4494.41  4509.05  4517.04  4584.85
                             5006.87

 Zero-point correction=                           0.305015 (Hartree/Particle)
 Thermal correction to Energy=                    0.320703
 Thermal correction to Enthalpy=                  0.321647
 Thermal correction to Gibbs Free Energy=         0.261299
 Sum of electronic and zero-point Energies=           -652.807746
 Sum of electronic and thermal Energies=              -652.792058
 Sum of electronic and thermal Enthalpies=            -652.791114
 Sum of electronic and thermal Free Energies=         -652.851462

                     E (Thermal)             CV                S
                      KCal/Mol        Cal/Mol-Kelvin    Cal/Mol-Kelvin
 Total                  201.244             57.258            127.013
 Electronic               0.000              0.000              0.000
 Translational            0.889              2.981             41.786
 Rotational               0.889              2.981             31.946
 Vibrational            199.467             51.296             53.281
 Vibration     1          0.593              1.985              6.420
 Vibration     2          0.596              1.975              4.589
 Vibration     3          0.597              1.971              4.279
 Vibration     4          0.602              1.956              3.638
 Vibration     5          0.606              1.943              3.310
 Vibration     6          0.608              1.936              3.156
 Vibration     7          0.611              1.926              2.988
 Vibration     8          0.626              1.876              2.407
 Vibration     9          0.629              1.869              2.343
 Vibration    10          0.637              1.841              2.142
 Vibration    11          0.647              1.811              1.959
 Vibration    12          0.654              1.789              1.846
 Vibration    13          0.669              1.743              1.650
 Vibration    14          0.679              1.712              1.540
 Vibration    15          0.688              1.687              1.456
 Vibration    16          0.714              1.611              1.248
 Vibration    17          0.735              1.552              1.117
 Vibration    18          0.785              1.420              0.881
 Vibration    19          0.803              1.375              0.816
 Vibration    20          0.845              1.275              0.687
 Vibration    21          0.888              1.176              0.580
 Vibration    22          0.930              1.089              0.498

                           ! Non-Optimized Parameters !
 Normal termination of Gaussian 16 at Thu Dec 10 09:32:32 2020.

 ----------------------------------------------------------------------
 # B3LYP/6-311++G(d,p) empiricaldispersion=gd3bj scf=xqc pop=npa geom=c
 heck
 ----------------------------------------------------------------------

 --------------------------------------
 CID_83263659_JID_4145_Energie_neutraal
 --------------------------------------
 Structure from the checkpoint file:  "JID_4145.chk"
 Charge =  0 Multiplicity = 1

 SCF Done:  E(RB3LYP) =  -653.304634754     A.U. after   15 cycles
 Normal termination of Gaussian 16 at Thu Dec 10 09:36:45 2020.

 ----------------------------------------------------------------------
 # B3LYP/6-311++G(d,p) empiricaldispersion=gd3bj scf=xqc pop=npa geom=c
 heck
 ----------------------------------------------------------------------

 ------------------------------------
 CID_83263659_JID_4145_Energie_kation
 ------------------------------------
 Structure from the checkpoint file:  "JID_4145.chk"
 Charge =  1 Multiplicity = 2

 SCF Done:  E(UB3LYP) =  -652.990724153     A.U. after   33 cycles
 SCF Done:  E(UB3LYP) =  -652.990724153     a.u. after    1 cycles
 Normal termination of Gaussian 16 at Thu Dec 10 09:49:05 2020.
 Gaussian 16:  ES64L-G16RevA.03 25-Dec-2016

 ----------------------------------------------------------------------
 # B3LYP/6-311++G(d,p) empiricaldispersion=gd3bj scf=xqc pop=npa geom=c
 heck
 ----------------------------------------------------------------------

 -----------------------------------
 CID_83263659_JID_4145_Energie_anion
 -----------------------------------
 Structure from the checkpoint file:  "JID_4145.chk"
 Charge = -1 Multiplicity = 2

                         Standard orientation:
 ---------------------------------------------------------------------
 Center     Atomic      Atomic             Coordinates (Angstroms)
 Number     Number       Type             X           Y           Z
 ---------------------------------------------------------------------
      1          6           0       -2.762189   -2.525909    0.231974
      2          6           0       -2.535990   -1.261409    1.066406
      3          6           0       -1.074169   -0.794850    1.121444
      4          6           0       -0.466033   -0.462114   -0.251313
      5          6           0       -1.270057    0.577849   -1.034730
      6          8           0       -1.669696    1.650257   -0.200228
      7          6           0       -2.394863    2.637898   -0.899502
      8          7           0        0.961690   -0.145678   -0.152760
      9          6           0        1.610870    0.681694    0.892496
     10          7           0        3.044827    0.594218    0.592622
     11          6           0        3.229070   -0.677824   -0.113595
     12          6           0        1.865102   -1.022998   -0.708447
     13          8           0        1.609686   -1.926770   -1.490483
     14          6           0        1.152617    2.129209    0.926550
     15          1           0       -2.540238   -2.364667   -0.828881
     16          1           0       -3.803173   -2.860244    0.301216
     17          1           0       -2.122645   -3.346523    0.578923
     18          1           0       -3.161125   -0.442994    0.689636
     19          1           0       -2.869268   -1.447052    2.095474
     20          1           0       -1.012227    0.083481    1.771947
     21          1           0       -0.457459   -1.580383    1.578052
     22          1           0       -0.474012   -1.364610   -0.871752
     23          1           0       -0.663063    0.944748   -1.876521
     24          1           0       -2.165255    0.092616   -1.457234
     25          1           0       -1.791431    3.091915   -1.701287
     26          1           0       -3.311232    2.223245   -1.348868
     27          1           0       -2.669635    3.410781   -0.177448
     28          1           0        1.430728    0.217112    1.873116
     29          1           0        3.260447    1.349532   -0.056782
     30          1           0        3.510994   -1.478583    0.584027
     31          1           0        4.005253   -0.620219   -0.880097
     32          1           0        0.096389    2.211318    1.181140
     33          1           0        1.752908    2.673332    1.663089
     34          1           0        1.292356    2.590239   -0.058791
 ---------------------------------------------------------------------

 SCF Done:  E(UB3LYP) =  -653.291256046     A.U. after   29 cycles

 The electronic state is 2-A.
 Alpha  occ. eigenvalues --  -19.03045 -18.99800 -14.24411 -14.21869 -10.17376
 Alpha  occ. eigenvalues --  -10.14664 -10.12023 -10.11515 -10.11371 -10.11089
 Alpha  occ. eigenvalues --  -10.07487 -10.07190 -10.06631 -10.06426  -0.95002
 Alpha  occ. eigenvalues --   -0.94427  -0.87822  -0.79759  -0.70773  -0.67386
 Alpha  occ. eigenvalues --   -0.65841  -0.60650  -0.59159  -0.57060  -0.53362
 Alpha  occ. eigenvalues --   -0.52275  -0.48327  -0.45523  -0.42157  -0.40173
 Alpha  occ. eigenvalues --   -0.39778  -0.38973  -0.37252  -0.36201  -0.35621
 Alpha  occ. eigenvalues --   -0.34981  -0.33944  -0.33324  -0.32105  -0.31140
 Alpha  occ. eigenvalues --   -0.30655  -0.29282  -0.28765  -0.28066  -0.27743
 Alpha  occ. eigenvalues --   -0.26878  -0.25807  -0.24766  -0.24163  -0.23483
 Alpha  occ. eigenvalues --   -0.22460  -0.18945  -0.16813  -0.15499  -0.14658
 Alpha  occ. eigenvalues --    0.04318
 Alpha virt. eigenvalues --    0.06211   0.06675   0.07475   0.08292   0.08824
 Alpha virt. eigenvalues --    0.09164   0.09538   0.10133   0.10736   0.10901
 Alpha virt. eigenvalues --    0.11376   0.11634   0.12354   0.12697   0.13162

  Beta  occ. eigenvalues --  -19.03035 -18.99792 -14.24412 -14.21850 -10.17367
  Beta  occ. eigenvalues --  -10.14659 -10.12003 -10.11513 -10.11359 -10.11036
  Beta  occ. eigenvalues --  -10.07478 -10.07171 -10.06611 -10.06397  -0.94986
  Beta  occ. eigenvalues --   -0.94414  -0.87808  -0.79740  -0.70749  -0.67358
  Beta  occ. eigenvalues --   -0.65807  -0.60598  -0.59115  -0.56995  -0.53292
  Beta  occ. eigenvalues --   -0.52224  -0.48283  -0.45494  -0.42134  -0.40126
  Beta  occ. eigenvalues --   -0.39722  -0.38945  -0.37221  -0.36164  -0.35589
  Beta  occ. eigenvalues --   -0.34956  -0.33903  -0.33294  -0.32079  -0.31101
  Beta  occ. eigenvalues --   -0.30624  -0.29246  -0.28728  -0.28043  -0.27712
  Beta  occ. eigenvalues --   -0.26841  -0.25766  -0.24736  -0.24129  -0.23453
  Beta  occ. eigenvalues --   -0.22410  -0.18929  -0.16788  -0.15482  -0.14642
  Beta virt. eigenvalues --    0.06451   0.07081   0.07457   0.07892   0.08650
  Beta virt. eigenvalues --    0.09211   0.09616   0.09975   0.10503   0.11073
  Beta virt. eigenvalues --    0.11315   0.11696   0.11885   0.12643   0.12890

 Mulliken charges and spin densities:
               1          2
     1  C    0.169046  -0.737932
     2  C   -0.121388  -0.132984
     3  C    0.042338  -0.129959
     4  C   -0.968358   0.056873
     5  C    0.056938  -0.455653
     6  O   -0.170303   0.119546
     7  C    1.121756  -1.369816
     8  N    0.463806   0.034003
     9  C   -0.283113  -0.069779
    10  N   -0.175301   0.136120
    11  C   -0.028211  -0.483179
    12  C    0.162273   0.182582
    13  O   -0.354925   0.014007
    14  C    0.445529  -0.952816
    15  H   -0.040105   0.167576
    16  H   -0.221070   0.365242
    17  H    0.093091   0.039053
    18  H   -0.007812   0.170421
    19  H   -0.286998   0.451449
    20  H    0.149153   0.049455
    21  H   -0.064086   0.214581
    22  H    0.151187   0.091649
    23  H    0.120496   0.057984
    24  H    0.140668   0.021741
    25  H   -0.388742   0.533016
    26  H   -0.427817   0.557318
    27  H   -0.441803   0.591919
    28  H    0.070069   0.131514
    29  H   -0.047268   0.291162
    30  H    0.181214  -0.002520
    31  H   -0.171811   0.370590
    32  H    0.234390  -0.051675
    33  H   -0.229525   0.402792
    34  H   -0.173319   0.335723
 Sum of Mulliken charges =  -1.00000   1.00000

 Dipole moment (field-independent basis, Debye):
    X=              2.8071    Y=             -3.2663    Z=              1.7695  Tot=              4.6561
 Quadrupole moment (field-independent basis, Debye-Ang):
   XX=           -156.8093   YY=           -145.8244   ZZ=           -124.7089
   XY=              1.3252   XZ=              2.2416   YZ=              0.9307

 Summary of Natural Population Analysis:

                                       Natural Population
                Natural  -----------------------------------------------
    Atom  No    Charge         Core      Valence    Rydberg      Total
 -----------------------------------------------------------------------
      C    1   -0.28819      0.99967     2.28275    0.00578     3.28819
      C    2   -0.19213      0.99964     2.18419    0.00830     3.19213
      C    3   -0.19277      0.99960     2.18398    0.00919     3.19277
      C    4   -0.02254      0.99956     2.00920    0.01378     3.02254
      C    5   -0.00975      0.99955     1.99778    0.01242     3.00975
      O    6   -0.30454      0.99988     3.29444    0.01022     4.30454
      C    7   -0.09580      0.99962     2.08689    0.00929     3.09580
      N    8   -0.26526      0.99961     2.75338    0.01228     3.76526
      C    9    0.09647      0.99962     1.89109    0.01282     2.90353
      N   10   -0.33319      0.99975     2.82167    0.01177     3.83319
      C   11   -0.12891      0.99960     2.11822    0.01108     3.12891
      C   12    0.34344      0.99963     1.63482    0.02211     2.65656
      O   13   -0.32434      0.99987     3.31913    0.00533     4.32434
      C   14   -0.29905      0.99963     2.29228    0.00715     3.29905
      H   15    0.09606      0.00000     0.40301    0.00094     0.40394
      H   16    0.10000      0.00000     0.39915    0.00086     0.40000
      H   17    0.09524      0.00000     0.40391    0.00085     0.40476
      H   18    0.10108      0.00000     0.39729    0.00164     0.39892
      H   19    0.09642      0.00000     0.40245    0.00113     0.40358
      H   20    0.10434      0.00000     0.39395    0.00171     0.39566
      H   21    0.09631      0.00000     0.40245    0.00123     0.40369
      H   22    0.11683      0.00000     0.38076    0.00241     0.38317
      H   23    0.08869      0.00000     0.40972    0.00159     0.41131
      H   24    0.08348      0.00000     0.41522    0.00130     0.41652
      H   25    0.08072      0.00000     0.41707    0.00221     0.41928
      H   26    0.08010      0.00000     0.41776    0.00215     0.41990
      H   27    0.09207      0.00000     0.40634    0.00159     0.40793
      H   28    0.08404      0.00000     0.41417    0.00179     0.41596
      H   29    0.17423      0.00000     0.32203    0.00374     0.32577
      H   30    0.09888      0.00000     0.40000    0.00111     0.40112
      H   31    0.10621      0.00000     0.39255    0.00124     0.39379
      H   32    0.11744      0.00000     0.38095    0.00161     0.38256
      H   33    0.10259      0.00000     0.39635    0.00107     0.39741
      H   34    0.10183      0.00000     0.39621    0.00196     0.39817
 =======================================================================
   * Total *   -0.00000     13.99524    40.82114    0.18362    55.00000

 Normal termination of Gaussian 16 at Thu Dec 10 09:59:52 2020.
