 Gaussian 16, Revision A.03,

 -----------------------------------------------------------
 # opt freq B3LYP/6-31G(d) empiricaldispersion=gd3bj scf=xqc
 -----------------------------------------------------------

 -----------------------------
 CID_74393488_JID_112_neutraal
 -----------------------------
 Symbolic Z-matrix:
 Charge =  0 Multiplicity = 1

 SCF Done:  E(RB3LYP) =  -463.715199769     A.U. after   13 cycles
 SCF Done:  E(RB3LYP) =  -463.717827113     A.U. after   12 cycles
 SCF Done:  E(RB3LYP) =  -463.718192369     A.U. after   11 cycles
 SCF Done:  E(RB3LYP) =  -463.718463093     A.U. after   12 cycles
 SCF Done:  E(RB3LYP) =  -463.718516793     A.U. after   11 cycles
 SCF Done:  E(RB3LYP) =  -463.718609385     A.U. after   10 cycles
 SCF Done:  E(RB3LYP) =  -463.718680250     A.U. after   11 cycles
 SCF Done:  E(RB3LYP) =  -463.718686158     A.U. after   10 cycles
 SCF Done:  E(RB3LYP) =  -463.718696880     A.U. after    9 cycles
 SCF Done:  E(RB3LYP) =  -463.718702637     A.U. after    9 cycles
 SCF Done:  E(RB3LYP) =  -463.718703476     A.U. after    9 cycles
 SCF Done:  E(RB3LYP) =  -463.718704434     A.U. after    9 cycles
 SCF Done:  E(RB3LYP) =  -463.718704587     A.U. after    7 cycles
 SCF Done:  E(RB3LYP) =  -463.718704620     A.U. after    7 cycles
 Optimization completed.
    -- Stationary point found.

 1\1\GINC-NODE311\FOpt\RB3LYP\6-31G(d)\C8H14O2\VSC10255\08-Dec-2020\0\\
 # opt freq B3LYP/6-31G(d) empiricaldispersion=gd3bj scf=xqc\\CID_74393
 488_JID_112_neutraal\\0,1\C,1.0269364313,-0.5214880983,-0.0381254381\C
 ,-0.0661090634,-0.8100101044,0.6691310189\C,-1.4580579586,-0.858825970
 4,0.0945919701\C,-1.8347755096,-2.2144401303,-0.5243879041\C,-1.585220
 0077,-3.4559178639,0.3390791984\C,-1.3825932864,-4.5429086722,-0.72310
 29763\C,-0.6498379043,-3.7802937696,-1.8409399742\O,-1.0591643856,-2.4
 116692661,-1.7129129614\C,0.8773158904,-3.8442993274,-1.7391365115\O,1

 Normal termination of Gaussian 16 at Tue Dec  8 10:18:04 2020.

 --------------------------------------------------------------------
 #N Geom=AllCheck Guess=TCheck SCRF=Check GenChk RB3LYP/6-31G(d) Freq
 --------------------------------------------------------------------

 Structure from the checkpoint file:  "JID_112.chk"
 -----------------------------
 CID_74393488_JID_112_neutraal
 -----------------------------
 Charge =  0 Multiplicity = 1

 SCF Done:  E(RB3LYP) =  -463.718704620     A.U. after    1 cycles

  Exact polarizability:  87.495  -2.216  95.259  -1.277   2.875  75.532
 Approx polarizability: 112.291  -7.733 136.344  -2.935   8.344 114.900

                      1                      2                      3
                      A                      A                      A
 Frequencies --     49.1546                65.4251                96.7514
 Red. masses --      3.7997                 2.9829                 2.9268
 Frc consts  --      0.0054                 0.0075                 0.0161
 IR Inten    --      0.0263                 0.1253                 2.8557

                      4                      5                      6
                      A                      A                      A
 Frequencies --    115.1643               173.1149               233.5753
 Red. masses --      2.8473                 2.0819                 2.4819
 Frc consts  --      0.0222                 0.0368                 0.0798
 IR Inten    --      3.5333                 2.3444                 1.4480

                      7                      8                      9
                      A                      A                      A
 Frequencies --    269.4143               294.7984               302.7641
 Red. masses --      2.1302                 1.8096                 1.8922
 Frc consts  --      0.0911                 0.0927                 0.1022
 IR Inten    --      2.4754                59.0947                68.6034

                     10                     11                     12
                      A                      A                      A
 Frequencies --    386.1824               417.6610               437.4630
 Red. masses --      2.8940                 1.8676                 2.9855
 Frc consts  --      0.2543                 0.1919                 0.3366
 IR Inten    --      0.5536                 0.3336                 1.9712

                     13                     14                     15
                      A                      A                      A
 Frequencies --    512.2000               572.6337               715.5450
 Red. masses --      2.0269                 2.2261                 3.4515
 Frc consts  --      0.3133                 0.4301                 1.0412
 IR Inten    --      2.0534                 2.3334                 3.0480

                     16                     17                     18
                      A                      A                      A
 Frequencies --    746.1051               814.0512               836.5539
 Red. masses --      2.3157                 2.5304                 2.6972
 Frc consts  --      0.7595                 0.9880                 1.1121
 IR Inten    --     11.7029                 5.0375                 5.5063

                     19                     20                     21
                      A                      A                      A
 Frequencies --    877.0358               904.9242               929.0154
 Red. masses --      1.8575                 1.8918                 1.9433
 Frc consts  --      0.8418                 0.9127                 0.9882
 IR Inten    --      4.9247                 4.7801                 1.6524

                     22                     23                     24
                      A                      A                      A
 Frequencies --    943.0228               968.2431               995.0300
 Red. masses --      1.3590                 1.6292                 2.4200
 Frc consts  --      0.7120                 0.8999                 1.4117
 IR Inten    --     39.6481                 7.4697                22.9437

                     25                     26                     27
                      A                      A                      A
 Frequencies --   1004.2070              1036.0760              1062.3573
 Red. masses --      1.8976                 1.0993                 2.3460
 Frc consts  --      1.1275                 0.6952                 1.5600
 IR Inten    --      0.0542                22.9361                75.4415

                     28                     29                     30
                      A                      A                      A
 Frequencies --   1076.4767              1080.9188              1089.9728
 Red. masses --      1.8601                 2.1427                 2.7594
 Frc consts  --      1.2699                 1.4751                 1.9315
 IR Inten    --      8.6959                53.8020                48.3076

                     31                     32                     33
                      A                      A                      A
 Frequencies --   1131.1941              1154.9283              1185.0259
 Red. masses --      2.3053                 1.7868                 1.5866
 Frc consts  --      1.7380                 1.4042                 1.3128
 IR Inten    --     85.6249                14.6161                 0.4775

                     34                     35                     36
                      A                      A                      A
 Frequencies --   1225.2701              1246.2522              1286.2275
 Red. masses --      1.5217                 1.4559                 1.2015
 Frc consts  --      1.3460                 1.3322                 1.1712
 IR Inten    --      6.8629                32.9159                 1.1082

                     37                     38                     39
                      A                      A                      A
 Frequencies --   1318.7544              1334.0006              1336.7916
 Red. masses --      1.3613                 1.3267                 1.2842
 Frc consts  --      1.3948                 1.3910                 1.3521
 IR Inten    --      2.8345                 2.3833                 1.7296

                     40                     41                     42
                      A                      A                      A
 Frequencies --   1344.4593              1364.2632              1379.9603
 Red. masses --      1.3043                 1.4316                 1.3661
 Frc consts  --      1.3891                 1.5699                 1.5327
 IR Inten    --      2.1508                 7.0958                 2.7712

                     43                     44                     45
                      A                      A                      A
 Frequencies --   1396.5183              1406.5805              1420.4576
 Red. masses --      1.3063                 1.2314                 1.3890
 Frc consts  --      1.5010                 1.4355                 1.6513
 IR Inten    --      8.1848                32.5546                11.6245

                     46                     47                     48
                      A                      A                      A
 Frequencies --   1438.0249              1472.8875              1512.0280
 Red. masses --      1.3915                 1.1816                 1.1188
 Frc consts  --      1.6954                 1.5103                 1.5070
 IR Inten    --     12.8891                 2.5440                 5.9365

                     49                     50                     51
                      A                      A                      A
 Frequencies --   1516.2467              1526.1637              1535.9958
 Red. masses --      1.0904                 1.0964                 1.1030
 Frc consts  --      1.4770                 1.5045                 1.5332
 IR Inten    --      0.9123                 4.0404                 7.0538

                     52                     53                     54
                      A                      A                      A
 Frequencies --   1730.2551              2983.5258              3023.5613
 Red. masses --      4.4028                 1.0841                 1.0698
 Frc consts  --      7.7660                 5.6855                 5.7624
 IR Inten    --      3.8127                70.8432                27.8349

                     55                     56                     57
                      A                      A                      A
 Frequencies --   3051.1759              3055.5951              3066.5110
 Red. masses --      1.0622                 1.0756                 1.0694
 Frc consts  --      5.8262                 5.9171                 5.9252
 IR Inten    --     43.0250                27.6244                75.3291

                     58                     59                     60
                      A                      A                      A
 Frequencies --   3075.8840              3093.6263              3099.5439
 Red. masses --      1.0637                 1.1014                 1.1023
 Frc consts  --      5.9296                 6.2107                 6.2392
 IR Inten    --      9.1407                 9.9538                26.2217

                     61                     62                     63
                      A                      A                      A
 Frequencies --   3122.2198              3126.1433              3147.5544
 Red. masses --      1.0971                 1.1049                 1.0803
 Frc consts  --      6.3011                 6.3619                 6.3059
 IR Inten    --     40.1016                31.5522                21.6095

                     64                     65                     66
                      A                      A                      A
 Frequencies --   3164.4689              3242.3234              3750.6509
 Red. masses --      1.0694                 1.1165                 1.0660
 Frc consts  --      6.3093                 6.9157                 8.8355
 IR Inten    --      7.1420                16.4859                 6.7438

 - Thermochemistry -
 -------------------
 Temperature   298.150 Kelvin.  Pressure   1.00000 Atm.
 Atom     1 has atomic number  6 and mass  12.00000

 Molecular mass:   142.09938 amu.
 Principal axes and moments of inertia in atomic units:
                           1         2         3
     Eigenvalues --   942.532921851.002652334.82977
           X            0.99984   0.01796   0.00264
           Y           -0.01799   0.99977   0.01181
           Z           -0.00243  -0.01185   0.99993
 This molecule is an asymmetric top.
 Rotational symmetry number  1.
 Warning -- assumption of classical behavior for rotation
           may cause significant error
 Rotational temperatures (Kelvin)      0.09189     0.04679     0.03710
 Rotational constants (GHZ):           1.91478     0.97501     0.77296
 Zero-point vibrational energy     557883.9 (Joules/Mol)
                                  133.33746 (Kcal/Mol)
 Warning -- explicit consideration of  14 degrees of freedom as
           vibrations may cause significant error
 Vibrational temperatures:     70.72    94.13   139.20   165.70   249.07
          (Kelvin)            336.06   387.63   424.15   435.61   555.63
                              600.92   629.41   736.94   823.89  1029.51
                             1073.48  1171.24  1203.61  1261.86  1301.98
                             1336.65  1356.80  1393.09  1431.63  1444.83
                             1490.68  1528.50  1548.81  1555.20  1568.23
                             1627.54  1661.68  1704.99  1762.89  1793.08
                             1850.59  1897.39  1919.33  1923.34  1934.38
                             1962.87  1985.46  2009.28  2023.76  2043.72
                             2069.00  2119.16  2175.47  2181.54  2195.81
                             2209.96  2489.45  4292.63  4350.23  4389.96
                             4396.32  4412.03  4425.51  4451.04  4459.55
                             4492.18  4497.82  4528.63  4552.97  4664.98
                             5396.35

 Zero-point correction=                           0.212487 (Hartree/Particle)
 Thermal correction to Energy=                    0.223122
 Thermal correction to Enthalpy=                  0.224066
 Thermal correction to Gibbs Free Energy=         0.175802
 Sum of electronic and zero-point Energies=           -463.506218
 Sum of electronic and thermal Energies=              -463.495583
 Sum of electronic and thermal Enthalpies=            -463.494639
 Sum of electronic and thermal Free Energies=         -463.542903

                     E (Thermal)             CV                S
                      KCal/Mol        Cal/Mol-Kelvin    Cal/Mol-Kelvin
 Total                  140.011             39.366            101.580
 Electronic               0.000              0.000              0.000
 Translational            0.889              2.981             40.765
 Rotational               0.889              2.981             29.789
 Vibrational            138.233             33.404             31.026
 Vibration     1          0.595              1.978              4.851
 Vibration     2          0.597              1.971              4.286
 Vibration     3          0.603              1.951              3.519
 Vibration     4          0.608              1.937              3.180
 Vibration     5          0.627              1.876              2.401
 Vibration     6          0.654              1.790              1.851
 Vibration     7          0.674              1.729              1.600
 Vibration     8          0.689              1.683              1.446
 Vibration     9          0.694              1.668              1.402
 Vibration    10          0.755              1.500              1.015
 Vibration    11          0.781              1.432              0.900
 Vibration    12          0.798              1.389              0.835
 Vibration    13          0.867              1.223              0.628
 Vibration    14          0.929              1.090              0.499

 Optimization completed.
    -- Stationary point found.

 1\1\GINC-NODE311\Freq\RB3LYP\6-31G(d)\C8H14O2\VSC10255\08-Dec-2020\0\\
 #N Geom=AllCheck Guess=TCheck SCRF=Check GenChk RB3LYP/6-31G(d) Freq\\
 CID_74393488_JID_112_neutraal\\0,1\C,1.0269364313,-0.5214880983,-0.038
 1254381\C,-0.0661090634,-0.8100101044,0.6691310189\C,-1.4580579586,-0.
 8588259704,0.0945919701\C,-1.8347755096,-2.2144401303,-0.5243879041\C,
 -1.5852200077,-3.4559178639,0.3390791984\C,-1.3825932864,-4.5429086722
 ,-0.7231029763\C,-0.6498379043,-3.7802937696,-1.8409399742\O,-1.059164
 3856,-2.4116692661,-1.7129129614\C,0.8773158904,-3.8442993274,-1.73913

 Normal termination of Gaussian 16 at Tue Dec  8 10:22:16 2020.

 ----------------------------------------------------------------------
 # B3LYP/6-311++G(d,p) empiricaldispersion=gd3bj scf=xqc pop=npa geom=c
 heck
 ----------------------------------------------------------------------

 -------------------------------------
 CID_74393488_JID_112_Energie_neutraal
 -------------------------------------
 Structure from the checkpoint file:  "JID_112.chk"
 Charge =  0 Multiplicity = 1

 SCF Done:  E(RB3LYP) =  -463.863091947     A.U. after   13 cycles
 Normal termination of Gaussian 16 at Tue Dec  8 10:23:38 2020.

 ----------------------------------------------------------------------
 # B3LYP/6-311++G(d,p) empiricaldispersion=gd3bj scf=xqc pop=npa geom=c
 heck
 ----------------------------------------------------------------------

 -----------------------------------
 CID_74393488_JID_112_Energie_kation
 -----------------------------------
 Structure from the checkpoint file:  "JID_112.chk"
 Charge =  1 Multiplicity = 2

 SCF Done:  E(UB3LYP) =  -463.538905785     A.U. after   22 cycles
 Normal termination of Gaussian 16 at Tue Dec  8 10:26:37 2020.
 Gaussian 16:  ES64L-G16RevA.03 25-Dec-2016

 ----------------------------------
 CID_74393488_JID_112_Energie_anion
 ----------------------------------
 Structure from the checkpoint file:  "JID_112.chk"
 Charge = -1 Multiplicity = 2

                         Standard orientation:
 ---------------------------------------------------------------------
 Center     Atomic      Atomic             Coordinates (Angstroms)
 Number     Number       Type             X           Y           Z
 ---------------------------------------------------------------------
      1          6           0        1.968841    2.009572   -0.136174
      2          6           0        2.285285    0.793278   -0.581928
      3          6           0        2.298144   -0.445842    0.275052
      4          6           0        0.933382   -1.143527    0.390818
      5          6           0        0.194376   -1.427116   -0.921648
      6          6           0       -1.269015   -1.433617   -0.464176
      7          6           0       -1.279908   -0.345989    0.624410
      8          8           0        0.052070   -0.311609    1.155190
      9          6           0       -1.633887    1.050644    0.104052
     10          8           0       -3.012926    1.170023   -0.225743
     11          1           0        1.714741    2.180019    0.906826
     12          1           0        1.949858    2.874573   -0.794011
     13          1           0        2.525099    0.662713   -1.637273
     14          1           0        3.020719   -1.172890   -0.117223
     15          1           0        2.616333   -0.195627    1.293457
     16          1           0        1.081245   -2.088039    0.939419
     17          1           0        0.368668   -0.615502   -1.635616
     18          1           0        0.510294   -2.365547   -1.386809
     19          1           0       -1.978068   -1.232162   -1.275424
     20          1           0       -1.534902   -2.405617   -0.034667
     21          1           0       -1.975492   -0.592615    1.435662
     22          1           0       -1.442566    1.776912    0.898547
     23          1           0       -0.982126    1.312189   -0.742920
     24          1           0       -3.170269    0.649852   -1.027981
 ---------------------------------------------------------------------

 SCF Done:  E(UB3LYP) =  -463.849257342     A.U. after   32 cycles

 The electronic state is 2-A.
 Alpha  occ. eigenvalues --  -19.01536 -19.01034 -10.11173 -10.10802 -10.10197
 Alpha  occ. eigenvalues --  -10.06911 -10.06548 -10.05903 -10.05847 -10.05527
 Alpha  occ. eigenvalues --   -0.93047  -0.91360  -0.69953  -0.67507  -0.64841
 Alpha  occ. eigenvalues --   -0.59091  -0.54393  -0.48908  -0.46597  -0.43918
 Alpha  occ. eigenvalues --   -0.41715  -0.38332  -0.37840  -0.36210  -0.33830
 Alpha  occ. eigenvalues --   -0.32274  -0.31319  -0.30988  -0.29724  -0.26401
 Alpha  occ. eigenvalues --   -0.25596  -0.24863  -0.23676  -0.22422  -0.21894
 Alpha  occ. eigenvalues --   -0.20815  -0.18292  -0.15742  -0.14098   0.04832
 Alpha virt. eigenvalues --    0.07267   0.07959   0.08612   0.09494   0.09933
 Alpha virt. eigenvalues --    0.10670   0.10751   0.11157   0.11500   0.13177
 Alpha virt. eigenvalues --    0.13572   0.13622   0.14219   0.16136   0.16598

  Beta  occ. eigenvalues --  -19.01498 -19.01034 -10.11157 -10.10799 -10.10188
  Beta  occ. eigenvalues --  -10.06885 -10.06535 -10.05858 -10.05818 -10.05487
  Beta  occ. eigenvalues --   -0.93032  -0.91284  -0.69900  -0.67450  -0.64792
  Beta  occ. eigenvalues --   -0.59039  -0.54316  -0.48816  -0.46535  -0.43853
  Beta  occ. eigenvalues --   -0.41652  -0.38264  -0.37774  -0.36165  -0.33776
  Beta  occ. eigenvalues --   -0.32242  -0.31279  -0.30946  -0.29685  -0.26357
  Beta  occ. eigenvalues --   -0.25543  -0.24811  -0.23611  -0.22377  -0.21853
  Beta  occ. eigenvalues --   -0.20786  -0.18247  -0.15614  -0.14075
  Beta virt. eigenvalues --    0.07444   0.08456   0.08521   0.09114   0.09793
  Beta virt. eigenvalues --    0.10461   0.11069   0.11205   0.11553   0.12078
  Beta virt. eigenvalues --    0.13619   0.14010   0.14307   0.14482   0.16214

 Mulliken charges and spin densities:
               1          2
     1  C   -0.006981  -0.560613
     2  C    0.052865   0.238228
     3  C    0.339010  -0.985974
     4  C    0.274762  -0.086701
     5  C    0.701908  -1.103827
     6  C    0.416011  -0.672792
     7  C   -0.396430   0.229909
     8  O   -0.101571  -0.007308
     9  C    0.514158  -0.938684
    10  O   -0.295474   0.048572
    11  H    0.043319   0.076082
    12  H    0.047803   0.060581
    13  H   -0.472010   0.645607
    14  H   -0.044478   0.175469
    15  H   -0.049693   0.229568
    16  H   -0.455816   0.656291
    17  H    0.066814   0.088241
    18  H   -0.796933   0.987594
    19  H   -0.822614   0.954274
    20  H   -0.163155   0.316115
    21  H    0.054738   0.123875
    22  H    0.224718  -0.036443
    23  H   -0.080779   0.257908
    24  H   -0.050173   0.304027
 Sum of Mulliken charges =  -1.00000   1.00000

 Dipole moment (field-independent basis, Debye):
    X=              1.4071    Y=              3.7566    Z=              3.8226  Tot=              5.5411
 Quadrupole moment (field-independent basis, Debye-Ang):
   XX=           -114.4434   YY=           -104.5986   ZZ=            -95.6718
   XY=              3.4911   XZ=             -3.3575   YZ=             -3.8586

 Summary of Natural Population Analysis:

                                       Natural Population
                Natural  -----------------------------------------------
    Atom  No    Charge         Core      Valence    Rydberg      Total
 -----------------------------------------------------------------------
      C    1   -0.18765      0.99955     2.18099    0.00710     3.18765
      C    2   -0.08483      0.99956     2.07374    0.01152     3.08483
      C    3   -0.21705      0.99958     2.20593    0.01153     3.21705
      C    4    0.07399      0.99955     1.91034    0.01612     2.92601
      C    5   -0.20548      0.99961     2.19617    0.00969     3.20548
      C    6   -0.20209      0.99962     2.19268    0.00979     3.20209
      C    7    0.05689      0.99955     1.92890    0.01465     2.94311
      O    8   -0.31211      0.99988     3.30328    0.00895     4.31211
      C    9   -0.01869      0.99957     2.00553    0.01359     3.01869
      O   10   -0.37166      0.99990     3.36535    0.00641     4.37166
      H   11    0.09191      0.00000     0.40681    0.00128     0.40809
      H   12    0.09065      0.00000     0.40829    0.00105     0.40935
      H   13    0.09337      0.00000     0.40529    0.00133     0.40663
      H   14    0.10530      0.00000     0.39326    0.00144     0.39470
      H   15    0.10326      0.00000     0.39555    0.00118     0.39674
      H   16    0.08295      0.00000     0.41519    0.00187     0.41705
      H   17    0.10084      0.00000     0.39682    0.00234     0.39916
      H   18    0.10965      0.00000     0.38654    0.00380     0.39035
      H   19    0.10416      0.00000     0.39223    0.00361     0.39584
      H   20    0.10160      0.00000     0.39665    0.00176     0.39840
      H   21    0.08583      0.00000     0.41275    0.00141     0.41417
      H   22    0.08587      0.00000     0.41286    0.00128     0.41413
      H   23    0.08186      0.00000     0.41648    0.00167     0.41814
      H   24    0.23143      0.00000     0.26389    0.00467     0.26857
 =======================================================================
   * Total *   -0.00000      9.99638    28.86556    0.13806    39.00000

 Normal termination of Gaussian 16 at Tue Dec  8 10:30:54 2020.
