 Gaussian 16, Revision A.03,

 -----------------------------------------------------------
 # opt freq B3LYP/6-31G(d) empiricaldispersion=gd3bj scf=xqc
 -----------------------------------------------------------

 ------------------------------
 CID_71400342_JID_2608_neutraal
 ------------------------------
 Symbolic Z-matrix:
 Charge =  0 Multiplicity = 1

 SCF Done:  E(RB3LYP) =  -541.129626554     A.U. after   13 cycles
 SCF Done:  E(RB3LYP) =  -541.133068973     A.U. after   11 cycles
 SCF Done:  E(RB3LYP) =  -541.133181629     A.U. after   11 cycles
 SCF Done:  E(RB3LYP) =  -541.133566349     A.U. after   11 cycles
 SCF Done:  E(RB3LYP) =  -541.133624207     A.U. after    9 cycles
 SCF Done:  E(RB3LYP) =  -541.133633039     A.U. after    9 cycles
 SCF Done:  E(RB3LYP) =  -541.133637763     A.U. after    7 cycles
 SCF Done:  E(RB3LYP) =  -541.133639986     A.U. after    8 cycles
 SCF Done:  E(RB3LYP) =  -541.133640609     A.U. after    7 cycles
 SCF Done:  E(RB3LYP) =  -541.133640996     A.U. after    7 cycles
 SCF Done:  E(RB3LYP) =  -541.133641114     A.U. after    6 cycles
 SCF Done:  E(RB3LYP) =  -541.133641145     A.U. after    6 cycles
 Optimization completed.
    -- Stationary point found.
 Normal termination of Gaussian 16 at Wed Dec  9 17:42:49 2020.

 --------------------------------------------------------------------
 #N Geom=AllCheck Guess=TCheck SCRF=Check GenChk RB3LYP/6-31G(d) Freq
 --------------------------------------------------------------------

 Structure from the checkpoint file:  "JID_2608.chk"
 ------------------------------
 CID_71400342_JID_2608_neutraal
 ------------------------------
 Charge =  0 Multiplicity = 1

 SCF Done:  E(RB3LYP) =  -541.133641145     A.U. after    1 cycles

  Exact polarizability: 105.709  -3.613 107.478   3.023  -1.511  94.308
 Approx polarizability: 137.448  -5.769 147.245   7.429  -4.400 156.775

                      1                      2                      3
                      A                      A                      A
 Frequencies --     97.4086               110.8855               140.3060
 Red. masses --      2.5761                 1.3876                 1.9149
 Frc consts  --      0.0144                 0.0101                 0.0222
 IR Inten    --      2.2546                 0.9834                 0.7980

                      4                      5                      6
                      A                      A                      A
 Frequencies --    158.2072               178.9441               188.4809
 Red. masses --      2.4669                 1.3668                 1.8035
 Frc consts  --      0.0364                 0.0258                 0.0377
 IR Inten    --      0.2815                 1.1414                 2.2177

                      7                      8                      9
                      A                      A                      A
 Frequencies --    233.0280               261.0275               290.2067
 Red. masses --      2.4299                 1.1754                 2.7485
 Frc consts  --      0.0777                 0.0472                 0.1364
 IR Inten    --      1.2260                 0.1189                 3.9901

                     10                     11                     12
                      A                      A                      A
 Frequencies --    310.1956               358.4000               378.5132
 Red. masses --      3.6361                 2.5947                 3.8904
 Frc consts  --      0.2061                 0.1964                 0.3284
 IR Inten    --      9.0921                 2.9813                11.1463

                     13                     14                     15
                      A                      A                      A
 Frequencies --    393.3742               456.4159               479.0973
 Red. masses --      3.0927                 3.2937                 3.5880
 Frc consts  --      0.2820                 0.4043                 0.4852
 IR Inten    --      0.1475                 1.3223                 0.7007

                     16                     17                     18
                      A                      A                      A
 Frequencies --    510.1119               594.9493               667.8118
 Red. masses --      3.6288                 3.3205                 2.9764
 Frc consts  --      0.5563                 0.6925                 0.7821
 IR Inten    --      2.7299                 2.6969                 3.0948

                     19                     20                     21
                      A                      A                      A
 Frequencies --    690.6591               728.8897               793.0941
 Red. masses --      2.9899                 2.3167                 3.2184
 Frc consts  --      0.8403                 0.7252                 1.1927
 IR Inten    --     13.3032                29.6156                 4.6480

                     22                     23                     24
                      A                      A                      A
 Frequencies --    846.1393               855.5945               882.5664
 Red. masses --      3.7037                 2.8511                 2.0695
 Frc consts  --      1.5623                 1.2297                 0.9498
 IR Inten    --      1.2547                 4.5825                 2.0058

                     25                     26                     27
                      A                      A                      A
 Frequencies --    927.1985               933.5955               960.4678
 Red. masses --      1.8011                 1.3645                 1.8140
 Frc consts  --      0.9123                 0.7007                 0.9860
 IR Inten    --      4.8110                 1.3646                 2.8277

                     28                     29                     30
                      A                      A                      A
 Frequencies --    974.5734               990.6683              1022.4945
 Red. masses --      2.0706                 2.2120                 2.6108
 Frc consts  --      1.1587                 1.2791                 1.6082
 IR Inten    --      2.2925                 3.8863                 2.5689

                     31                     32                     33
                      A                      A                      A
 Frequencies --   1048.1410              1057.4601              1107.0206
 Red. masses --      2.9097                 2.6832                 1.8712
 Frc consts  --      1.8834                 1.7678                 1.3511
 IR Inten    --     21.4691                 9.5003                57.8190

                     34                     35                     36
                      A                      A                      A
 Frequencies --   1113.9595              1116.6315              1138.7408
 Red. masses --      2.2732                 2.2536                 1.4077
 Frc consts  --      1.6620                 1.6556                 1.0755
 IR Inten    --    100.0365                38.8329                12.6834

                     37                     38                     39
                      A                      A                      A
 Frequencies --   1153.2762              1158.2159              1189.0439
 Red. masses --      2.7694                 3.4913                 1.2936
 Frc consts  --      2.1702                 2.7594                 1.0776
 IR Inten    --    118.0798                64.7744                 1.3935

                     40                     41                     42
                      A                      A                      A
 Frequencies --   1193.6249              1221.5143              1226.5800
 Red. masses --      1.3046                 1.4600                 1.6759
 Frc consts  --      1.0951                 1.2835                 1.4856
 IR Inten    --      2.6536                10.5481                44.6969

                     43                     44                     45
                      A                      A                      A
 Frequencies --   1229.2549              1242.3033              1252.4060
 Red. masses --      1.5296                 1.6228                 1.6784
 Frc consts  --      1.3618                 1.4756                 1.5511
 IR Inten    --     25.2065                29.2295                 6.1290

                     46                     47                     48
                      A                      A                      A
 Frequencies --   1278.6037              1320.1603              1324.3171
 Red. masses --      1.4208                 1.4901                 1.6030
 Frc consts  --      1.3685                 1.5301                 1.6564
 IR Inten    --     11.3840                10.8355                20.6811

                     49                     50                     51
                      A                      A                      A
 Frequencies --   1360.0920              1371.4956              1397.6338
 Red. masses --      1.6402                 1.7279                 1.3852
 Frc consts  --      1.7877                 1.9150                 1.5942
 IR Inten    --     30.7383                 5.7510                 5.1449

                     52                     53                     54
                      A                      A                      A
 Frequencies --   1430.7899              1488.0743              1498.9639
 Red. masses --      1.2465                 1.1397                 1.1663
 Frc consts  --      1.5035                 1.4870                 1.5439
 IR Inten    --      1.7205                 0.5651                 0.4701

                     55                     56                     57
                      A                      A                      A
 Frequencies --   1515.9719              1518.7523              1521.6518
 Red. masses --      1.0535                 1.0761                 1.0557
 Frc consts  --      1.4265                 1.4624                 1.4402
 IR Inten    --      2.3668                 3.7032                 1.3342

                     58                     59                     60
                      A                      A                      A
 Frequencies --   1526.4788              1534.5223              1539.7327
 Red. masses --      1.0598                 1.0488                 1.0489
 Frc consts  --      1.4550                 1.4550                 1.4651
 IR Inten    --      3.1665                 7.8761                 1.8773

                     61                     62                     63
                      A                      A                      A
 Frequencies --   1550.6687              1660.9315              3024.5124
 Red. masses --      1.0508                 5.7024                 1.0357
 Frc consts  --      1.4886                 9.2686                 5.5820
 IR Inten    --      3.8862                 2.1455                46.7822

                     64                     65                     66
                      A                      A                      A
 Frequencies --   3039.2310              3045.0002              3061.8954
 Red. masses --      1.0364                 1.0422                 1.0827
 Frc consts  --      5.6404                 5.6932                 5.9807
 IR Inten    --     33.3371                43.9354                25.3148

                     67                     68                     69
                      A                      A                      A
 Frequencies --   3081.8566              3086.5236              3098.8550
 Red. masses --      1.0604                 1.1020                 1.1014
 Frc consts  --      5.9339                 6.1857                 6.2313
 IR Inten    --     33.6775                34.4942                37.5026

                     70                     71                     72
                      A                      A                      A
 Frequencies --   3106.4571              3127.2982              3128.7163
 Red. masses --      1.0983                 1.1062                 1.0880
 Frc consts  --      6.2447                 6.3743                 6.2748
 IR Inten    --     45.6993                19.8517                36.0961

                     73                     74                     75
                      A                      A                      A
 Frequencies --   3133.2774              3140.3014              3147.7143
 Red. masses --      1.0898                 1.1011                 1.1045
 Frc consts  --      6.3035                 6.3976                 6.4476
 IR Inten    --     28.8787                32.4309                25.9640

                     76                     77                     78
                      A                      A                      A
 Frequencies --   3155.2102              3207.0508              3230.8758
 Red. masses --      1.0968                 1.0862                 1.1054
 Frc consts  --      6.4335                 6.5823                 6.7987
 IR Inten    --     21.9303                 9.2957                23.8197

 - Thermochemistry -
 -------------------
 Temperature   298.150 Kelvin.  Pressure   1.00000 Atm.
 Atom     1 has atomic number  6 and mass  12.00000

 Molecular mass:   168.11503 amu.
 Principal axes and moments of inertia in atomic units:
                           1         2         3
     Eigenvalues --  1376.068301720.771882399.61346
           X            0.99930  -0.03539   0.01196
           Y            0.03565   0.99911  -0.02255
           Z           -0.01115   0.02296   0.99967
 This molecule is an asymmetric top.
 Rotational symmetry number  1.
 Warning -- assumption of classical behavior for rotation
           may cause significant error
 Rotational temperatures (Kelvin)      0.06294     0.05033     0.03609
 Rotational constants (GHZ):           1.31152     1.04880     0.75210
 Zero-point vibrational energy     649064.4 (Joules/Mol)
                                  155.13011 (Kcal/Mol)
 Warning -- explicit consideration of  17 degrees of freedom as
           vibrations may cause significant error
 Vibrational temperatures:    140.15   159.54   201.87   227.62   257.46
          (Kelvin)            271.18   335.28   375.56   417.54   446.30
                              515.66   544.60   565.98   656.68   689.31
                              733.94   856.00   960.83   993.70  1048.71
                             1141.09  1217.41  1231.01  1269.82  1334.03
                             1343.24  1381.90  1402.19  1425.35  1471.14
                             1508.04  1521.45  1592.76  1602.74  1606.58
                             1638.39  1659.31  1666.41  1710.77  1717.36
                             1757.49  1764.78  1768.62  1787.40  1801.93
                             1839.63  1899.42  1905.40  1956.87  1973.28
                             2010.88  2058.59  2141.01  2156.67  2181.15
                             2185.15  2189.32  2196.26  2207.84  2215.33
                             2231.07  2389.71  4351.60  4372.78  4381.08
                             4405.38  4434.10  4440.82  4458.56  4469.50
                             4499.48  4501.52  4508.09  4518.19  4528.86
                             4539.64  4614.23  4648.51

 Zero-point correction=                           0.247216 (Hartree/Particle)
 Thermal correction to Energy=                    0.258935
 Thermal correction to Enthalpy=                  0.259879
 Thermal correction to Gibbs Free Energy=         0.210716
 Sum of electronic and zero-point Energies=           -540.886426
 Sum of electronic and thermal Energies=              -540.874706
 Sum of electronic and thermal Enthalpies=            -540.873762
 Sum of electronic and thermal Free Energies=         -540.922925

                     E (Thermal)             CV                S
                      KCal/Mol        Cal/Mol-Kelvin    Cal/Mol-Kelvin
 Total                  162.484             46.123            103.472
 Electronic               0.000              0.000              0.000
 Translational            0.889              2.981             41.266
 Rotational               0.889              2.981             30.120
 Vibrational            160.707             40.162             32.086
 Vibration     1          0.603              1.951              3.506
 Vibration     2          0.607              1.940              3.253
 Vibration     3          0.615              1.913              2.800
 Vibration     4          0.621              1.893              2.571
 Vibration     5          0.629              1.868              2.339
 Vibration     6          0.633              1.856              2.243
 Vibration     7          0.654              1.790              1.855
 Vibration     8          0.669              1.744              1.655
 Vibration     9          0.686              1.692              1.473
 Vibration    10          0.699              1.654              1.361
 Vibration    11          0.733              1.558              1.129
 Vibration    12          0.749              1.516              1.045
 Vibration    13          0.761              1.484              0.987
 Vibration    14          0.815              1.347              0.777
 Vibration    15          0.836              1.296              0.713
 Vibration    16          0.865              1.228              0.633
 Vibration    17          0.953              1.043              0.458

 Optimization completed.
    -- Stationary point found.
 Normal termination of Gaussian 16 at Wed Dec  9 17:51:51 2020.

 ----------------------------------------------------------------------
 # B3LYP/6-311++G(d,p) empiricaldispersion=gd3bj scf=xqc pop=npa geom=c
 heck
 ----------------------------------------------------------------------

 --------------------------------------
 CID_71400342_JID_2608_Energie_neutraal
 --------------------------------------
 Structure from the checkpoint file:  "JID_2608.chk"
 Charge =  0 Multiplicity = 1

 SCF Done:  E(RB3LYP) =  -541.284918049     A.U. after   14 cycles
 Normal termination of Gaussian 16 at Wed Dec  9 17:55:52 2020.

 ----------------------------------------------------------------------
 # B3LYP/6-311++G(d,p) empiricaldispersion=gd3bj scf=xqc pop=npa geom=c
 heck
 ----------------------------------------------------------------------

 ------------------------------------
 CID_71400342_JID_2608_Energie_kation
 ------------------------------------
 Structure from the checkpoint file:  "JID_2608.chk"
 Charge =  1 Multiplicity = 2

 SCF Done:  E(UB3LYP) =  -540.970720780     A.U. after   23 cycles
 Normal termination of Gaussian 16 at Wed Dec  9 18:04:24 2020.
 Gaussian 16:  ES64L-G16RevA.03 25-Dec-2016

 ----------------------------------------------------------------------
 # B3LYP/6-311++G(d,p) empiricaldispersion=gd3bj scf=xqc pop=npa geom=c
 heck
 ----------------------------------------------------------------------

 -----------------------------------
 CID_71400342_JID_2608_Energie_anion
 -----------------------------------
 Structure from the checkpoint file:  "JID_2608.chk"
 Charge = -1 Multiplicity = 2

                         Standard orientation:
 ---------------------------------------------------------------------
 Center     Atomic      Atomic             Coordinates (Angstroms)
 Number     Number       Type             X           Y           Z
 ---------------------------------------------------------------------
      1          6           0       -2.601110    1.151652   -0.156802
      2          6           0       -1.888726   -0.201977   -0.145875
      3          6           0       -1.356470   -0.624236    1.264081
      4          6           0        0.131077   -1.006479    0.997704
      5          6           0        0.126550   -2.204025    0.065747
      6          6           0       -0.286280   -1.779617   -1.135968
      7          6           0       -0.592183   -0.294904   -1.027781
      8          6           0        0.521625    0.110307   -0.016610
      9          8           0        1.776856    0.005147   -0.637076
     10          6           0        2.870906   -0.099837    0.260192
     11          8           0        0.389338    1.366867    0.609009
     12          6           0        0.635962    2.481292   -0.239838
     13          1           0       -2.872139    1.446911   -1.178039
     14          1           0       -1.978130    1.935969    0.278121
     15          1           0       -3.527417    1.098937    0.427977
     16          1           0       -2.594113   -0.953178   -0.516782
     17          1           0       -1.408798    0.214990    1.962874
     18          1           0       -1.913104   -1.463523    1.690360
     19          1           0        0.744760   -1.078167    1.897324
     20          1           0        0.356868   -3.220936    0.364468
     21          1           0       -0.465011   -2.378257   -2.022808
     22          1           0       -0.627621    0.261505   -1.966487
     23          1           0        2.810923    0.649104    1.059412
     24          1           0        2.919958   -1.102088    0.707850
     25          1           0        3.775988    0.070072   -0.328166
     26          1           0        0.496171    3.371362    0.377971
     27          1           0        1.654856    2.463871   -0.639468
     28          1           0       -0.070850    2.514257   -1.079176
 ---------------------------------------------------------------------

 SCF Done:  E(UB3LYP) =  -541.266317487     A.U. after   33 cycles
 SCF Done:  E(UB3LYP) =  -541.266317486     a.u. after    1 cycles

 The electronic state is 2-A.
 Alpha  occ. eigenvalues --  -19.02786 -19.02454 -10.17035 -10.10771 -10.10664
 Alpha  occ. eigenvalues --  -10.07536 -10.07422 -10.07275 -10.06435 -10.06207
 Alpha  occ. eigenvalues --  -10.06188 -10.05262  -0.97530  -0.90853  -0.77703
 Alpha  occ. eigenvalues --   -0.66451  -0.63314  -0.62543  -0.58364  -0.57090
 Alpha  occ. eigenvalues --   -0.53583  -0.46637  -0.44961  -0.42997  -0.42401
 Alpha  occ. eigenvalues --   -0.41528  -0.37755  -0.35369  -0.34386  -0.33750
 Alpha  occ. eigenvalues --   -0.32517  -0.31764  -0.30955  -0.29986  -0.28254
 Alpha  occ. eigenvalues --   -0.27419  -0.26733  -0.25853  -0.25088  -0.22462
 Alpha  occ. eigenvalues --   -0.22282  -0.21261  -0.19272  -0.17532  -0.16401
 Alpha  occ. eigenvalues --   -0.13953   0.04702
 Alpha virt. eigenvalues --    0.06834   0.07006   0.07822   0.08687   0.09344
 Alpha virt. eigenvalues --    0.09505   0.09686   0.10008   0.11285   0.11916
 Alpha virt. eigenvalues --    0.12202   0.12422   0.12720   0.13512   0.14194

  Beta  occ. eigenvalues --  -19.02778 -19.02447 -10.17036 -10.10741 -10.10631
  Beta  occ. eigenvalues --  -10.07527 -10.07414 -10.07269 -10.06426 -10.06196
  Beta  occ. eigenvalues --  -10.06174 -10.05237  -0.97516  -0.90838  -0.77684
  Beta  occ. eigenvalues --   -0.66425  -0.63289  -0.62512  -0.58313  -0.57045
  Beta  occ. eigenvalues --   -0.53539  -0.46600  -0.44931  -0.42961  -0.42364
  Beta  occ. eigenvalues --   -0.41500  -0.37724  -0.35338  -0.34351  -0.33718
  Beta  occ. eigenvalues --   -0.32484  -0.31733  -0.30928  -0.29960  -0.28226
  Beta  occ. eigenvalues --   -0.27388  -0.26702  -0.25823  -0.25062  -0.22438
  Beta  occ. eigenvalues --   -0.22253  -0.21237  -0.19247  -0.17512  -0.16385
  Beta  occ. eigenvalues --   -0.13937
  Beta virt. eigenvalues --    0.06891   0.07788   0.07935   0.08393   0.09382
  Beta virt. eigenvalues --    0.09817   0.10146   0.10189   0.10404   0.11524
  Beta virt. eigenvalues --    0.12475   0.12743   0.12970   0.13203   0.13863

 Mulliken charges and spin densities:
               1          2
     1  C    1.029199  -1.768792
     2  C   -1.349915   1.568280
     3  C    0.443893  -1.155061
     4  C    0.885999  -0.087420
     5  C   -0.352125  -0.231723
     6  C    0.402057  -0.737020
     7  C    1.354485  -0.833030
     8  C   -1.941909   0.414636
     9  O   -0.059468   0.031466
    10  C    0.713861  -0.916899
    11  O   -0.021482   0.022055
    12  C    0.939344  -1.061450
    13  H   -0.231517   0.365482
    14  H    0.034930   0.131483
    15  H   -0.244011   0.377611
    16  H   -0.084808   0.294234
    17  H    0.127909   0.034047
    18  H   -0.154437   0.319762
    19  H   -0.076160   0.324724
    20  H   -0.854195   1.017269
    21  H   -0.370750   0.522237
    22  H    0.108529   0.159872
    23  H   -0.139164   0.305951
    24  H   -0.233176   0.376666
    25  H   -0.288804   0.450074
    26  H   -0.272913   0.432168
    27  H   -0.131832   0.274164
    28  H   -0.233539   0.369210
 Sum of Mulliken charges =  -1.00000   1.00000

 Dipole moment (field-independent basis, Debye):
    X=             -0.6362    Y=              0.9125    Z=              0.0099  Tot=              1.1124
 Quadrupole moment (field-independent basis, Debye-Ang):
   XX=           -127.6483   YY=           -129.3569   ZZ=           -109.0407
   XY=              3.1366   XZ=             -2.5736   YZ=              3.1348

 Summary of Natural Population Analysis:

                                       Natural Population
                Natural  -----------------------------------------------
    Atom  No    Charge         Core      Valence    Rydberg      Total
 -----------------------------------------------------------------------
      C    1   -0.28370      0.99964     2.27773    0.00634     3.28370
      C    2   -0.10807      0.99960     2.09711    0.01136     3.10807
      C    3   -0.18318      0.99961     2.17491    0.00865     3.18318
      C    4   -0.14298      0.99953     2.12939    0.01406     3.14298
      C    5   -0.09412      0.99952     2.08268    0.01193     3.09412
      C    6   -0.08212      0.99952     2.07102    0.01158     3.08212
      C    7   -0.14074      0.99951     2.12702    0.01422     3.14074
      C    8    0.31845      0.99945     1.65661    0.02549     2.68155
      O    9   -0.30770      0.99985     3.29743    0.01042     4.30770
      C   10   -0.10286      0.99959     2.09396    0.00932     3.10286
      O   11   -0.31272      0.99985     3.30273    0.01015     4.31272
      C   12   -0.10427      0.99958     2.09498    0.00971     3.10427
      H   13    0.09779      0.00000     0.40100    0.00121     0.40221
      H   14    0.10232      0.00000     0.39609    0.00159     0.39768
      H   15    0.09786      0.00000     0.40122    0.00092     0.40214
      H   16    0.09776      0.00000     0.40090    0.00135     0.40224
      H   17    0.10459      0.00000     0.39395    0.00146     0.39541
      H   18    0.10025      0.00000     0.39868    0.00107     0.39975
      H   19    0.10890      0.00000     0.38936    0.00174     0.39110
      H   20    0.10369      0.00000     0.39459    0.00172     0.39631
      H   21    0.10084      0.00000     0.39808    0.00108     0.39916
      H   22    0.10868      0.00000     0.38971    0.00161     0.39132
      H   23    0.08585      0.00000     0.41261    0.00154     0.41415
      H   24    0.08366      0.00000     0.41482    0.00152     0.41634
      H   25    0.09027      0.00000     0.40870    0.00103     0.40973
      H   26    0.09032      0.00000     0.40859    0.00110     0.40968
      H   27    0.08839      0.00000     0.41027    0.00133     0.41161
      H   28    0.08283      0.00000     0.41575    0.00142     0.41717
 =======================================================================
   * Total *   -0.00000     11.99524    33.83986    0.16490    46.00000

 Normal termination of Gaussian 16 at Wed Dec  9 18:16:35 2020.
