 Gaussian 16, Revision A.03,

 -----------------------------------------------------------
 # opt freq B3LYP/6-31G(d) empiricaldispersion=gd3bj scf=xqc
 -----------------------------------------------------------

 ------------------------------
 CID_22280336_JID_6678_neutraal
 ------------------------------
 Symbolic Z-matrix:
 Charge =  0 Multiplicity = 1

 SCF Done:  E(RB3LYP) =  -649.069725010     A.U. after   14 cycles
 SCF Done:  E(RB3LYP) =  -649.074938402     A.U. after   12 cycles
 SCF Done:  E(RB3LYP) =  -649.075252526     A.U. after   10 cycles
 SCF Done:  E(RB3LYP) =  -649.075269551     A.U. after    9 cycles
 Optimization completed.
    -- Stationary point found.
 Normal termination of Gaussian 16 at Fri Dec 11 00:09:55 2020.

 --------------------------------------------------------------------
 #N Geom=AllCheck Guess=TCheck SCRF=Check GenChk RB3LYP/6-31G(d) Freq
 --------------------------------------------------------------------

 Structure from the checkpoint file:  "JID_6678.chk"
 ------------------------------
 CID_22280336_JID_6678_neutraal
 ------------------------------
 Charge =  0 Multiplicity = 1

 SCF Done:  E(RB3LYP) =  -649.075269551     A.U. after    1 cycles

  Exact polarizability: 214.893  13.060 194.242  -0.001   0.000  59.404
 Approx polarizability: 383.339  48.032 361.472  -0.002   0.003  96.265

                      1                      2                      3
                      A                      A                      A
 Frequencies --     63.7112                86.8560               106.4140
 Red. masses --      2.2986                 2.2139                 6.3238
 Frc consts  --      0.0055                 0.0098                 0.0422
 IR Inten    --      3.9252                 0.0002                 1.3094

                      4                      5                      6
                      A                      A                      A
 Frequencies --    186.3367               259.3148               274.0311
 Red. masses --      4.3965                 7.7137                 3.1965
 Frc consts  --      0.0899                 0.3056                 0.1414
 IR Inten    --      0.4436                 0.0000                12.7240

                      7                      8                      9
                      A                      A                      A
 Frequencies --    333.7310               396.2443               415.4691
 Red. masses --      5.4229                 9.2043                 2.7208
 Frc consts  --      0.3559                 0.8515                 0.2767
 IR Inten    --      0.8396                 0.0000                 0.0002

                     10                     11                     12
                      A                      A                      A
 Frequencies --    470.4319               472.8757               478.1866
 Red. masses --      6.2842                 3.3721                 3.5941
 Frc consts  --      0.8194                 0.4443                 0.4842
 IR Inten    --      0.0004                 0.0000                11.2037

                     13                     14                     15
                      A                      A                      A
 Frequencies --    481.9318               498.4959               557.2545
 Red. masses --      4.8094                 5.1109                 6.7147
 Frc consts  --      0.6581                 0.7483                 1.2285
 IR Inten    --      0.0007                 0.1029                 9.8084

                     16                     17                     18
                      A                      A                      A
 Frequencies --    564.2133               606.4121               627.8650
 Red. masses --      3.0432                 6.4087                 3.7252
 Frc consts  --      0.5708                 1.3885                 0.8652
 IR Inten    --      0.0002                 0.0000                 0.5677

                     19                     20                     21
                      A                      A                      A
 Frequencies --    645.5047               678.3152               738.9912
 Red. masses --      9.6002                 3.5867                 5.7589
 Frc consts  --      2.3568                 0.9723                 1.8530
 IR Inten    --     18.9541                 2.3125                 0.0002

                     22                     23                     24
                      A                      A                      A
 Frequencies --    793.6188               801.1796               833.4546
 Red. masses --      4.0477                 6.3021                 5.2073
 Frc consts  --      1.5020                 2.3834                 2.1312
 IR Inten    --      0.0000                 0.0000                 0.4703

                     25                     26                     27
                      A                      A                      A
 Frequencies --    838.1553               842.3165               930.9151
 Red. masses --      1.2593                 1.3508                 1.5961
 Frc consts  --      0.5212                 0.5647                 0.8150
 IR Inten    --     43.6615                 0.0000                 0.0000

                     28                     29                     30
                      A                      A                      A
 Frequencies --    939.4229               958.4965               959.1892
 Red. masses --      1.3157                 1.8830                 5.2338
 Frc consts  --      0.6841                 1.0192                 2.8371
 IR Inten    --      1.2623                 8.3281                13.2442

                     31                     32                     33
                      A                      A                      A
 Frequencies --    971.4763               974.6560               984.0933
 Red. masses --      1.6249                 4.6594                 4.0662
 Frc consts  --      0.9035                 2.6079                 2.3201
 IR Inten    --      0.0007                 0.0002                42.6898

                     34                     35                     36
                      A                      A                      A
 Frequencies --   1013.8499              1016.0412              1019.1637
 Red. masses --      4.7767                 1.6682                 1.6784
 Frc consts  --      2.8929                 1.0147                 1.0272
 IR Inten    --     74.8633                 0.0038                 3.0604

                     37                     38                     39
                      A                      A                      A
 Frequencies --   1138.4448              1162.8914              1179.6260
 Red. masses --      1.5452                 1.9880                 4.5951
 Frc consts  --      1.1799                 1.5840                 3.7674
 IR Inten    --      0.0000                 9.7307                 0.0000

                     40                     41                     42
                      A                      A                      A
 Frequencies --   1220.4568              1255.0117              1269.9440
 Red. masses --      3.1360                 1.9130                 2.0925
 Frc consts  --      2.7522                 1.7752                 1.9883
 IR Inten    --      0.0000                 0.0000                19.3949

                     43                     44                     45
                      A                      A                      A
 Frequencies --   1273.7410              1275.6897              1285.3595
 Red. masses --      1.0709                 1.0705                 1.5513
 Frc consts  --      1.0236                 1.0265                 1.5100
 IR Inten    --      0.0040                 1.8663                 6.9405

                     46                     47                     48
                      A                      A                      A
 Frequencies --   1315.7511              1349.0640              1386.1637
 Red. masses --      2.6993                 1.6379                 1.7902
 Frc consts  --      2.7532                 1.7563                 2.0267
 IR Inten    --      0.6536                 0.0000                 0.0000

                     49                     50                     51
                      A                      A                      A
 Frequencies --   1403.2572              1418.0899              1430.1347
 Red. masses --      1.8346                 2.5001                 1.6477
 Frc consts  --      2.1284                 2.9622                 1.9856
 IR Inten    --     21.6166                 0.0000                 7.0936

                     52                     53                     54
                      A                      A                      A
 Frequencies --   1459.0036              1468.4426              1486.7478
 Red. masses --      3.0724                 2.9610                 1.1526
 Frc consts  --      3.8534                 3.7619                 1.5011
 IR Inten    --      0.0000                 2.3195                 0.0001

                     55                     56                     57
                      A                      A                      A
 Frequencies --   1488.3921              1522.5206              1564.9872
 Red. masses --      1.2178                 2.9605                 4.7880
 Frc consts  --      1.5895                 4.0433                 6.9092
 IR Inten    --      2.0113                 0.0000                65.6246

                     58                     59                     60
                      A                      A                      A
 Frequencies --   1642.2714              1647.9989              1657.2303
 Red. masses --      5.4659                 7.2998                 7.4996
 Frc consts  --      8.6856                11.6809                12.1355
 IR Inten    --     14.5684                 0.0000                 0.0000

                     61                     62                     63
                      A                      A                      A
 Frequencies --   1722.1355              1729.9948              3020.1702
 Red. masses --      8.2372                 8.3177                 1.0600
 Frc consts  --     14.3934                14.6670                 5.6969
 IR Inten    --     76.1749                 0.0000                 0.1820

                     64                     65                     66
                      A                      A                      A
 Frequencies --   3020.1960              3037.0438              3037.1256
 Red. masses --      1.0601                 1.1016                 1.1017
 Frc consts  --      5.6972                 5.9864                 5.9871
 IR Inten    --     63.2180                27.9317                 0.0273

                     67                     68                     69
                      A                      A                      A
 Frequencies --   3108.3401              3108.8645              3175.9805
 Red. masses --      1.0888                 1.0888                 1.0872
 Frc consts  --      6.1979                 6.2003                 6.4611
 IR Inten    --    108.1731                 0.0001                25.6293

                     70                     71                     72
                      A                      A                      A
 Frequencies --   3176.2090              3191.9112              3192.3136
 Red. masses --      1.0875                 1.0937                 1.0935
 Frc consts  --      6.4639                 6.5654                 6.5658
 IR Inten    --      0.0000                46.8707                 0.0000

 - Thermochemistry -
 -------------------
 Temperature   298.150 Kelvin.  Pressure   1.00000 Atm.
 Atom     1 has atomic number  6 and mass  12.00000

 Molecular mass:   206.08440 amu.
 Principal axes and moments of inertia in atomic units:
                           1         2         3
     Eigenvalues --  1753.259843485.972445217.39521
           X            0.99985   0.01732  -0.00000
           Y           -0.01732   0.99985  -0.00000
           Z            0.00000   0.00000   1.00000
 This molecule is an asymmetric top.
 Rotational symmetry number  1.
 Warning -- assumption of classical behavior for rotation
           may cause significant error
 Rotational temperatures (Kelvin)      0.04940     0.02485     0.01660
 Rotational constants (GHZ):           1.02936     0.51772     0.34591
 Zero-point vibrational energy     542148.3 (Joules/Mol)
                                  129.57656 (Kcal/Mol)
 Warning -- explicit consideration of  17 degrees of freedom as
           vibrations may cause significant error
 Vibrational temperatures:     91.67   124.97   153.11   268.10   373.10
          (Kelvin)            394.27   480.16   570.11   597.77   676.85
                              680.36   688.00   693.39   717.22   801.77
                              811.78   872.49   903.36   928.74   975.94
                             1063.24  1141.84  1152.72  1199.16  1205.92
                             1211.91  1339.38  1351.62  1379.06  1380.06
                             1397.74  1402.31  1415.89  1458.70  1461.86
                             1466.35  1637.97  1673.14  1697.22  1755.97
                             1805.68  1827.17  1832.63  1835.43  1849.35
                             1893.07  1941.00  1994.38  2018.97  2040.32
                             2057.64  2099.18  2112.76  2139.10  2141.46
                             2190.57  2251.67  2362.86  2371.10  2384.38
                             2477.77  2489.08  4345.35  4345.39  4369.63
                             4369.75  4472.21  4472.96  4569.53  4569.86
                             4592.45  4593.03

 Zero-point correction=                           0.206493 (Hartree/Particle)
 Thermal correction to Energy=                    0.217327
 Thermal correction to Enthalpy=                  0.218271
 Thermal correction to Gibbs Free Energy=         0.169480
 Sum of electronic and zero-point Energies=           -648.868776
 Sum of electronic and thermal Energies=              -648.857943
 Sum of electronic and thermal Enthalpies=            -648.856999
 Sum of electronic and thermal Free Energies=         -648.905789

                     E (Thermal)             CV                S
                      KCal/Mol        Cal/Mol-Kelvin    Cal/Mol-Kelvin
 Total                  136.375             45.103            102.689
 Electronic               0.000              0.000              0.000
 Translational            0.889              2.981             41.873
 Rotational               0.889              2.981             31.834
 Vibrational            134.597             39.141             28.981
 Vibration     1          0.597              1.972              4.339
 Vibration     2          0.601              1.958              3.730
 Vibration     3          0.605              1.944              3.333
 Vibration     4          0.632              1.859              2.264
 Vibration     5          0.668              1.747              1.666
 Vibration     6          0.676              1.721              1.571
 Vibration     7          0.715              1.608              1.242
 Vibration     8          0.763              1.478              0.977
 Vibration     9          0.779              1.437              0.907
 Vibration    10          0.827              1.316              0.736
 Vibration    11          0.830              1.310              0.730
 Vibration    12          0.835              1.298              0.715
 Vibration    13          0.838              1.290              0.705
 Vibration    14          0.854              1.253              0.662
 Vibration    15          0.913              1.124              0.529
 Vibration    16          0.920              1.109              0.515
 Vibration    17          0.965              1.018              0.439

                           ! Non-Optimized Parameters !
 Normal termination of Gaussian 16 at Fri Dec 11 00:18:19 2020.

 ----------------------------------------------------------------------
 # B3LYP/6-311++G(d,p) empiricaldispersion=gd3bj scf=xqc pop=npa geom=c
 heck
 ----------------------------------------------------------------------

 --------------------------------------
 CID_22280336_JID_6678_Energie_neutraal
 --------------------------------------
 Structure from the checkpoint file:  "JID_6678.chk"
 Charge =  0 Multiplicity = 1

 SCF Done:  E(RB3LYP) =  -649.228850854     A.U. after   14 cycles
 Normal termination of Gaussian 16 at Fri Dec 11 00:21:03 2020.

 ----------------------------------------------------------------------
 # B3LYP/6-311++G(d,p) empiricaldispersion=gd3bj scf=xqc pop=npa geom=c
 heck
 ----------------------------------------------------------------------

 ------------------------------------
 CID_22280336_JID_6678_Energie_kation
 ------------------------------------
 Structure from the checkpoint file:  "JID_6678.chk"
 Charge =  1 Multiplicity = 2

 SCF Done:  E(UB3LYP) =  -648.952291901     A.U. after   18 cycles
 Normal termination of Gaussian 16 at Fri Dec 11 00:25:44 2020.
 Gaussian 16:  ES64L-G16RevA.03 25-Dec-2016

 ----------------------------------------------------------------------
 # B3LYP/6-311++G(d,p) empiricaldispersion=gd3bj scf=xqc pop=npa geom=c
 heck
 ----------------------------------------------------------------------

 -----------------------------------
 CID_22280336_JID_6678_Energie_anion
 -----------------------------------
 Structure from the checkpoint file:  "JID_6678.chk"
 Charge = -1 Multiplicity = 2

                         Standard orientation:
 ---------------------------------------------------------------------
 Center     Atomic      Atomic             Coordinates (Angstroms)
 Number     Number       Type             X           Y           Z
 ---------------------------------------------------------------------
      1          6           0       -2.956219   -1.136922    0.001605
      2          6           0       -1.441587   -1.204769    0.000402
      3          6           0       -0.709222    0.010445    0.000311
      4          6           0       -1.390913    1.257799   -0.000144
      5          6           0       -0.659186    2.432013   -0.000379
      6          6           0        0.751197    2.403811   -0.000002
      7          6           0        1.441587    1.204769    0.000405
      8          6           0        0.709222   -0.010444    0.000279
      9          6           0        1.390913   -1.257799   -0.000191
     10          6           0        0.659186   -2.432013   -0.000505
     11          6           0       -0.751197   -2.403811   -0.000150
     12          6           0        2.854510   -1.225293   -0.000995
     13          7           0        3.589517   -0.179353   -0.000629
     14          6           0        2.956219    1.136922    0.001343
     15          6           0       -2.854510    1.225293   -0.001164
     16          7           0       -3.589517    0.179353   -0.000803
     17          1           0       -3.353979   -1.675232    0.874322
     18          1           0       -3.355823   -1.679738   -0.867400
     19          1           0       -1.178558    3.387315   -0.000935
     20          1           0        1.301588    3.341791   -0.000076
     21          1           0        1.178557   -3.387315   -0.001080
     22          1           0       -1.301588   -3.341791   -0.000294
     23          1           0        3.369256   -2.190885   -0.002308
     24          1           0        3.354180    1.675670    0.873691
     25          1           0        3.355623    1.679303   -0.868034
     26          1           0       -3.369255    2.190885   -0.002750
 ---------------------------------------------------------------------

 SCF Done:  E(UB3LYP) =  -649.255401975     A.U. after   20 cycles

 The electronic state is 2-A.
 Alpha  occ. eigenvalues --  -14.16129 -14.16129 -10.07126 -10.07126 -10.06821
 Alpha  occ. eigenvalues --  -10.06821 -10.04359 -10.04313 -10.04123 -10.04123
 Alpha  occ. eigenvalues --  -10.03476 -10.03475 -10.03340 -10.03340 -10.03259
 Alpha  occ. eigenvalues --  -10.03259  -0.79408  -0.78913  -0.73088  -0.69499
 Alpha  occ. eigenvalues --   -0.64311  -0.63576  -0.60801  -0.58771  -0.53634
 Alpha  occ. eigenvalues --   -0.49970  -0.49187  -0.48232  -0.42562  -0.39387
 Alpha  occ. eigenvalues --   -0.38096  -0.38068  -0.36304  -0.32344  -0.32163
 Alpha  occ. eigenvalues --   -0.31746  -0.31729  -0.29900  -0.29092  -0.27055
 Alpha  occ. eigenvalues --   -0.25922  -0.25828  -0.25144  -0.24269  -0.23126
 Alpha  occ. eigenvalues --   -0.22511  -0.19443  -0.19197  -0.16638  -0.13843
 Alpha  occ. eigenvalues --   -0.12126  -0.11966  -0.11078  -0.07171   0.02860
 Alpha virt. eigenvalues --    0.08697   0.08700   0.09220   0.09715   0.10677
 Alpha virt. eigenvalues --    0.11083   0.11272   0.11889   0.12654   0.12802
 Alpha virt. eigenvalues --    0.13723   0.14255   0.14521   0.15733   0.16160

  Beta  occ. eigenvalues --  -14.15879 -14.15879 -10.07125 -10.07125 -10.06864
  Beta  occ. eigenvalues --  -10.06864 -10.04385 -10.04339 -10.04092 -10.04092
  Beta  occ. eigenvalues --  -10.03297 -10.03297 -10.03202 -10.03202 -10.03076
  Beta  occ. eigenvalues --  -10.03076  -0.79045  -0.78537  -0.72819  -0.69183
  Beta  occ. eigenvalues --   -0.63869  -0.63259  -0.60616  -0.58581  -0.53444
  Beta  occ. eigenvalues --   -0.49630  -0.49058  -0.47835  -0.42328  -0.39278
  Beta  occ. eigenvalues --   -0.37927  -0.37778  -0.36164  -0.32026  -0.31775
  Beta  occ. eigenvalues --   -0.31562  -0.31216  -0.29786  -0.28928  -0.26933
  Beta  occ. eigenvalues --   -0.25780  -0.25679  -0.24604  -0.24119  -0.23001
  Beta  occ. eigenvalues --   -0.21648  -0.19287  -0.18225  -0.15750  -0.12663
  Beta  occ. eigenvalues --   -0.11820  -0.11334  -0.10800  -0.05717
  Beta virt. eigenvalues --    0.07585   0.08656   0.09167   0.09691   0.10118
  Beta virt. eigenvalues --    0.10646   0.11231   0.11242   0.12022   0.12629
  Beta virt. eigenvalues --    0.12906   0.13653   0.14465   0.14862   0.15688

 Mulliken charges and spin densities:
               1          2
     1  C   -0.806121  -0.048317
     2  C    0.451667   0.127940
     3  C    0.279246  -0.024485
     4  C    0.791695   0.150012
     5  C   -0.508752   0.037919
     6  C   -0.687730   0.092219
     7  C    0.451662   0.127940
     8  C    0.279248  -0.024485
     9  C    0.791704   0.150012
    10  C   -0.508757   0.037919
    11  C   -0.687737   0.092219
    12  C   -0.580223  -0.029432
    13  N   -0.045131   0.120005
    14  C   -0.806121  -0.048317
    15  C   -0.580219  -0.029431
    16  N   -0.045130   0.120006
    17  H    0.141870   0.042423
    18  H    0.142253   0.041810
    19  H    0.092588  -0.001158
    20  H    0.106143  -0.005963
    21  H    0.092588  -0.001158
    22  H    0.106143  -0.005963
    23  H    0.122495  -0.002973
    24  H    0.141912   0.042353
    25  H    0.142211   0.041879
    26  H    0.122495  -0.002973
 Sum of Mulliken charges =  -1.00000   1.00000

 Dipole moment (field-independent basis, Debye):
    X=              0.0000    Y=              0.0000    Z=              0.0021  Tot=              0.0021
 Quadrupole moment (field-independent basis, Debye-Ang):
   XX=           -146.7715   YY=           -103.4613   ZZ=           -102.1871
   XY=              1.3010   XZ=             -0.0013   YZ=              0.0000

 Summary of Natural Population Analysis:

                                       Natural Population
                Natural  -----------------------------------------------
    Atom  No    Charge         Core      Valence    Rydberg      Total
 -----------------------------------------------------------------------
      C    1   -0.11081      0.99959     2.09992    0.01131     3.11081
      C    2    0.02058      0.99954     1.96943    0.01045     2.97942
      C    3    0.03060      0.99938     1.96367    0.00635     2.96940
      C    4   -0.04278      0.99952     2.03232    0.01094     3.04278
      C    5   -0.08761      0.99955     2.07881    0.00926     3.08761
      C    6   -0.10232      0.99953     2.09326    0.00953     3.10232
      C    7    0.02947      0.99950     1.96266    0.00837     2.97053
      C    8   -0.02456      0.99941     2.01425    0.01090     3.02456
      C    9   -0.03677      0.99950     2.02742    0.00985     3.03677
      C   10   -0.07842      0.99945     2.06901    0.00997     3.07842
      C   11   -0.10515      0.99955     2.09589    0.00971     3.10515
      C   12    0.05828      0.99950     1.92644    0.01579     2.94172
      N   13   -0.20693      0.99972     2.69146    0.01575     3.70693
      C   14   -0.10393      0.99950     2.09315    0.01128     3.10393
      C   15    0.05184      0.99960     1.93284    0.01573     2.94816
      N   16   -0.20106      0.99971     2.68748    0.01387     3.70106
      H   17    0.09994      0.00000     0.39870    0.00136     0.40006
      H   18    0.09988      0.00000     0.39876    0.00136     0.40012
      H   19    0.09324      0.00000     0.40593    0.00084     0.40676
      H   20    0.08930      0.00000     0.40904    0.00165     0.41070
      H   21    0.08907      0.00000     0.40880    0.00212     0.41093
      H   22    0.09032      0.00000     0.40893    0.00075     0.40968
      H   23    0.07437      0.00000     0.42324    0.00240     0.42563
      H   24    0.09932      0.00000     0.39897    0.00171     0.40068
      H   25    0.09927      0.00000     0.39901    0.00171     0.40073
      H   26    0.07496      0.00000     0.42311    0.00193     0.42504
 =======================================================================
   * Total *    0.00009     15.99254    37.81249    0.19489    53.99991

 Normal termination of Gaussian 16 at Fri Dec 11 00:30:54 2020.
