 Gaussian 16, Revision A.03,

 -----------------------------------------------------------
 # opt freq B3LYP/6-31G(d) empiricaldispersion=gd3bj scf=xqc
 -----------------------------------------------------------

 ------------------------------
 CID_10821188_JID_2761_neutraal
 ------------------------------
 Symbolic Z-matrix:
 Charge =  0 Multiplicity = 1

 SCF Done:  E(RB3LYP) =  -871.532143366     A.U. after   15 cycles
 SCF Done:  E(RB3LYP) =  -871.539239713     A.U. after   13 cycles
 SCF Done:  E(RB3LYP) =  -871.541583759     A.U. after   13 cycles
 SCF Done:  E(RB3LYP) =  -871.542982000     A.U. after   12 cycles
 SCF Done:  E(RB3LYP) =  -871.543532371     A.U. after   13 cycles
 SCF Done:  E(RB3LYP) =  -871.543559497     A.U. after   12 cycles
 SCF Done:  E(RB3LYP) =  -871.543645845     A.U. after   10 cycles
 SCF Done:  E(RB3LYP) =  -871.543658901     A.U. after   10 cycles
 SCF Done:  E(RB3LYP) =  -871.543660698     A.U. after    9 cycles
 SCF Done:  E(RB3LYP) =  -871.543660977     A.U. after    7 cycles
 Optimization completed.
    -- Stationary point found.
 Normal termination of Gaussian 16 at Wed Dec  9 17:53:10 2020.

 --------------------------------------------------------------------
 #N Geom=AllCheck Guess=TCheck SCRF=Check GenChk RB3LYP/6-31G(d) Freq
 --------------------------------------------------------------------

 Structure from the checkpoint file:  "JID_2761.chk"
 ------------------------------
 CID_10821188_JID_2761_neutraal
 ------------------------------
 Charge =  0 Multiplicity = 1

 SCF Done:  E(RB3LYP) =  -871.543660977     A.U. after    1 cycles

  Exact polarizability: 154.565  -0.172 126.670  -3.610   4.607  62.095
 Approx polarizability: 230.304   3.361 227.690  -5.702  13.780 104.607

                      1                      2                      3
                      A                      A                      A
 Frequencies --     49.3320                87.4771               114.2243
 Red. masses --      5.3947                 5.5426                 5.8021
 Frc consts  --      0.0077                 0.0250                 0.0446
 IR Inten    --      0.5710                 2.3648                 1.7058

                      4                      5                      6
                      A                      A                      A
 Frequencies --    203.5726               237.9464               324.9605
 Red. masses --      6.3600                 5.8079                 4.4827
 Frc consts  --      0.1553                 0.1937                 0.2789
 IR Inten    --      0.8070                 3.3888                 1.8889

                      7                      8                      9
                      A                      A                      A
 Frequencies --    361.9619               418.4011               446.5761
 Red. masses --      6.7347                 3.2939                 4.8301
 Frc consts  --      0.5199                 0.3397                 0.5675
 IR Inten    --      3.6886                 2.3457                 4.5985

                     10                     11                     12
                      A                      A                      A
 Frequencies --    516.7904               529.5979               594.0229
 Red. masses --      4.2123                 1.6020                 6.3602
 Frc consts  --      0.6628                 0.2647                 1.3223
 IR Inten    --     10.9811                44.2404                10.7899

                     13                     14                     15
                      A                      A                      A
 Frequencies --    614.0518               631.0205               664.3383
 Red. masses --      2.7895                 7.0156                 2.7085
 Frc consts  --      0.6197                 1.6459                 0.7043
 IR Inten    --      6.9497                 5.8868                36.6313

                     16                     17                     18
                      A                      A                      A
 Frequencies --    702.9379               721.7381               739.2662
 Red. masses --      1.7618                 2.2735                 6.2484
 Frc consts  --      0.5129                 0.6978                 2.0120
 IR Inten    --     54.1127                15.5771                 4.7640

                     19                     20                     21
                      A                      A                      A
 Frequencies --    799.4914               823.4437               926.5318
 Red. masses --      1.2128                 1.6168                 5.2656
 Frc consts  --      0.4567                 0.6459                 2.6633
 IR Inten    --      1.6948                14.0667                18.7056

                     22                     23                     24
                      A                      A                      A
 Frequencies --    934.5205               963.5340               988.5235
 Red. masses --      1.3684                 1.3986                 1.3738
 Frc consts  --      0.7041                 0.7650                 0.7909
 IR Inten    --      1.2740                 1.8676                 0.2227

                     25                     26                     27
                      A                      A                      A
 Frequencies --    993.1924              1045.8474              1071.6278
 Red. masses --      4.2367                 3.5221                 2.6720
 Frc consts  --      2.4623                 2.2698                 1.8079
 IR Inten    --     12.9461                 8.9325                10.6455

                     28                     29                     30
                      A                      A                      A
 Frequencies --   1092.2482              1143.3747              1147.8349
 Red. masses --      1.6960                 1.4916                 1.4350
 Frc consts  --      1.1921                 1.1489                 1.1139
 IR Inten    --     27.4865                10.9993                 6.1709

                     31                     32                     33
                      A                      A                      A
 Frequencies --   1181.5469              1234.6751              1240.6637
 Red. masses --      3.1794                 1.6592                 2.2357
 Frc consts  --      2.6151                 1.4902                 2.0275
 IR Inten    --     14.1344                11.9874                23.4597

                     34                     35                     36
                      A                      A                      A
 Frequencies --   1272.6423              1312.3721              1348.7818
 Red. masses --      3.4325                 6.4693                 2.8980
 Frc consts  --      3.2755                 6.5648                 3.1062
 IR Inten    --     90.0111                 3.3605                70.7521

                     37                     38                     39
                      A                      A                      A
 Frequencies --   1378.4226              1441.1744              1475.6125
 Red. masses --      1.2996                 2.7986                 2.5318
 Frc consts  --      1.4548                 3.4247                 3.2481
 IR Inten    --      1.3288                40.3054               120.7170

                     40                     41                     42
                      A                      A                      A
 Frequencies --   1506.5798              1533.1759              1627.8643
 Red. masses --      3.2449                 2.5479                 5.0257
 Frc consts  --      4.3394                 3.5286                 7.8466
 IR Inten    --    218.7745                88.3989                10.5362

                     43                     44                     45
                      A                      A                      A
 Frequencies --   1642.0382              1649.9168              3181.5979
 Red. masses --      5.1122                 5.5856                 1.0890
 Frc consts  --      8.1213                 8.9588                 6.4947
 IR Inten    --      9.0802                 4.3445                18.0310

                     46                     47                     48
                      A                      A                      A
 Frequencies --   3203.1391              3219.3098              3226.2495
 Red. masses --      1.0897                 1.0967                 1.0927
 Frc consts  --      6.5876                 6.6965                 6.7010
 IR Inten    --     14.7259                15.0013                 1.9891

                     49                     50                     51
                      A                      A                      A
 Frequencies --   3301.6532              3321.7513              3672.6606
 Red. masses --      1.0906                 1.1089                 1.0811
 Frc consts  --      7.0045                 7.2092                 8.5915
 IR Inten    --      3.9392                 0.2069                98.7884

 - Thermochemistry -
 -------------------
 Temperature   298.150 Kelvin.  Pressure   1.00000 Atm.
 Atom     1 has atomic number  6 and mass  12.00000

 Molecular mass:   177.03607 amu.
 Principal axes and moments of inertia in atomic units:
                           1         2         3
     Eigenvalues --  1148.582982933.726123781.75923
           X            0.99993   0.00879  -0.00828
           Y           -0.00866   0.99984   0.01596
           Z            0.00842  -0.01588   0.99984
 This molecule is an asymmetric top.
 Rotational symmetry number  1.
 Warning -- assumption of classical behavior for rotation
           may cause significant error
 Rotational temperatures (Kelvin)      0.07541     0.02952     0.02290
 Rotational constants (GHZ):           1.57128     0.61517     0.47722
 Zero-point vibrational energy     375987.6 (Joules/Mol)
                                   89.86319 (Kcal/Mol)
 Warning -- explicit consideration of  13 degrees of freedom as
           vibrations may cause significant error
 Vibrational temperatures:     70.98   125.86   164.34   292.90   342.35
          (Kelvin)            467.55   520.78   601.99   642.52   743.55
                              761.97   854.67   883.48   907.90   955.83
                             1011.37  1038.42  1063.64  1150.29  1184.75
                             1333.07  1344.57  1386.31  1422.26  1428.98
                             1504.74  1541.83  1571.50  1645.06  1651.48
                             1699.98  1776.42  1785.04  1831.05  1888.21
                             1940.60  1983.24  2073.53  2123.08  2167.63
                             2205.90  2342.13  2362.53  2373.86  4577.61
                             4608.60  4631.87  4641.85  4750.34  4779.26
                             5284.14

 Zero-point correction=                           0.143206 (Hartree/Particle)
 Thermal correction to Energy=                    0.152621
 Thermal correction to Enthalpy=                  0.153565
 Thermal correction to Gibbs Free Energy=         0.107309
 Sum of electronic and zero-point Energies=           -871.400455
 Sum of electronic and thermal Energies=              -871.391040
 Sum of electronic and thermal Enthalpies=            -871.390096
 Sum of electronic and thermal Free Energies=         -871.436352

                     E (Thermal)             CV                S
                      KCal/Mol        Cal/Mol-Kelvin    Cal/Mol-Kelvin
 Total                   95.771             36.465             97.354
 Electronic               0.000              0.000              0.000
 Translational            0.889              2.981             41.421
 Rotational               0.889              2.981             30.922
 Vibrational             93.993             30.503             25.011
 Vibration     1          0.595              1.978              4.844
 Vibration     2          0.601              1.958              3.716
 Vibration     3          0.607              1.938              3.196
 Vibration     4          0.639              1.835              2.101
 Vibration     5          0.656              1.783              1.818
 Vibration     6          0.709              1.626              1.285
 Vibration     7          0.736              1.551              1.114
 Vibration     8          0.781              1.430              0.897
 Vibration     9          0.806              1.368              0.806
 Vibration    10          0.872              1.213              0.617
 Vibration    11          0.885              1.185              0.588
 Vibration    12          0.952              1.045              0.460
 Vibration    13          0.973              1.002              0.426

 Optimization completed.
    -- Stationary point found.
 Normal termination of Gaussian 16 at Wed Dec  9 17:57:53 2020.

 ----------------------------------------------------------------------
 # B3LYP/6-311++G(d,p) empiricaldispersion=gd3bj scf=xqc pop=npa geom=c
 heck
 ----------------------------------------------------------------------

 --------------------------------------
 CID_10821188_JID_2761_Energie_neutraal
 --------------------------------------
 Structure from the checkpoint file:  "JID_2761.chk"
 Charge =  0 Multiplicity = 1

 SCF Done:  E(RB3LYP) =  -871.694410174     A.U. after   15 cycles
 Normal termination of Gaussian 16 at Wed Dec  9 17:59:41 2020.

 ----------------------------------------------------------------------
 # B3LYP/6-311++G(d,p) empiricaldispersion=gd3bj scf=xqc pop=npa geom=c
 heck
 ----------------------------------------------------------------------

 ------------------------------------
 CID_10821188_JID_2761_Energie_kation
 ------------------------------------
 Structure from the checkpoint file:  "JID_2761.chk"
 Charge =  1 Multiplicity = 2

 SCF Done:  E(UB3LYP) =  -871.420961629     A.U. after   25 cycles
 Normal termination of Gaussian 16 at Wed Dec  9 18:03:07 2020.
 Gaussian 16:  ES64L-G16RevA.03 25-Dec-2016

 ----------------------------------------------------------------------
 # B3LYP/6-311++G(d,p) empiricaldispersion=gd3bj scf=xqc pop=npa geom=c
 heck
 ----------------------------------------------------------------------

 -----------------------------------
 CID_10821188_JID_2761_Energie_anion
 -----------------------------------
 Structure from the checkpoint file:  "JID_2761.chk"
 Charge = -1 Multiplicity = 2

                         Standard orientation:
 ---------------------------------------------------------------------
 Center     Atomic      Atomic             Coordinates (Angstroms)
 Number     Number       Type             X           Y           Z
 ---------------------------------------------------------------------
      1          6           0        2.943124   -0.872571   -0.701387
      2          6           0        1.573361   -1.123517   -0.695515
      3          6           0        0.752988   -0.295379    0.068341
      4          6           0        1.331215    0.755018    0.791257
      5          7           0        2.642637    1.000667    0.782367
      6          6           0        3.425604    0.199366    0.048379
      7          7           0       -0.642989   -0.543850    0.132309
      8          6           0       -1.198217   -1.811167    0.344956
      9          6           0       -2.542523   -1.681254    0.287546
     10          7           0       -2.800283   -0.342266    0.035923
     11          6           0       -1.647228    0.393155   -0.078004
     12         16           0       -1.536162    2.023938   -0.426515
     13          1           0        3.620480   -1.489920   -1.282780
     14          1           0        1.143399   -1.931656   -1.279562
     15          1           0        0.706016    1.411807    1.386576
     16          1           0        4.489704    0.425671    0.064854
     17          1           0       -0.576713   -2.666128    0.554728
     18          1           0       -3.327228   -2.408698    0.418653
     19          1           0       -3.702569    0.092151   -0.085868
 ---------------------------------------------------------------------

 SCF Done:  E(UB3LYP) =  -871.692480361     A.U. after   33 cycles
 SCF Done:  E(UB3LYP) =  -871.692480361     a.u. after    1 cycles

 The electronic state is 2-A.
 Alpha  occ. eigenvalues --  -88.67417 -14.27465 -14.26549 -14.18308 -10.16678
 Alpha  occ. eigenvalues --  -10.11043 -10.10756 -10.10158 -10.09054 -10.08297
 Alpha  occ. eigenvalues --  -10.07035 -10.06689  -7.76177  -5.72628  -5.71955
 Alpha  occ. eigenvalues --   -5.71724  -0.93847  -0.83477  -0.81317  -0.69390
 Alpha  occ. eigenvalues --   -0.68657  -0.65077  -0.58776  -0.55159  -0.53817
 Alpha  occ. eigenvalues --   -0.51174  -0.48213  -0.43029  -0.41391  -0.38821
 Alpha  occ. eigenvalues --   -0.37869  -0.35776  -0.35234  -0.33776  -0.32712
 Alpha  occ. eigenvalues --   -0.29307  -0.28794  -0.26672  -0.26393  -0.22543
 Alpha  occ. eigenvalues --   -0.18366  -0.17676  -0.14981  -0.14266  -0.10183
 Alpha  occ. eigenvalues --   -0.08674   0.04218
 Alpha virt. eigenvalues --    0.05982   0.07528   0.08356   0.08523   0.09620
 Alpha virt. eigenvalues --    0.10311   0.11122   0.11419   0.11939   0.12009
 Alpha virt. eigenvalues --    0.13845   0.14714   0.15486   0.15579   0.15827

  Beta  occ. eigenvalues --  -88.67413 -14.27487 -14.26528 -14.18059 -10.16598
  Beta  occ. eigenvalues --  -10.11013 -10.10717 -10.10022 -10.09099 -10.08157
  Beta  occ. eigenvalues --  -10.07084 -10.06453  -7.76173  -5.72628  -5.71941
  Beta  occ. eigenvalues --   -5.71724  -0.93778  -0.83256  -0.81087  -0.69151
  Beta  occ. eigenvalues --   -0.68420  -0.64876  -0.58677  -0.55039  -0.53604
  Beta  occ. eigenvalues --   -0.51018  -0.48013  -0.42913  -0.41285  -0.38668
  Beta  occ. eigenvalues --   -0.37715  -0.35610  -0.35161  -0.33665  -0.32673
  Beta  occ. eigenvalues --   -0.29143  -0.28064  -0.26552  -0.26293  -0.22289
  Beta  occ. eigenvalues --   -0.18133  -0.16624  -0.14350  -0.13960  -0.10155
  Beta  occ. eigenvalues --   -0.08564
  Beta virt. eigenvalues --    0.07303   0.07869   0.08315   0.08653   0.09140
  Beta virt. eigenvalues --    0.10038   0.10700   0.11391   0.11567   0.11989
  Beta virt. eigenvalues --    0.12214   0.13894   0.14711   0.15471   0.15659

 Mulliken charges and spin densities:
               1          2
     1  C   -0.144008  -0.060319
     2  C    0.602759   0.198386
     3  C   -0.976788   0.088613
     4  C   -0.249209   0.135572
     5  N   -0.113497   0.109052
     6  C   -0.397581   0.055685
     7  N    0.385950  -0.014015
     8  C   -0.063177  -0.002578
     9  C    1.469106  -1.606776
    10  N   -0.121474   0.060901
    11  C    0.399784  -0.383624
    12  S   -0.467132  -0.209146
    13  H    0.101658   0.043742
    14  H    0.125998   0.035216
    15  H    0.165184   0.009096
    16  H    0.134176  -0.011235
    17  H   -0.288233   0.452571
    18  H   -1.580597   1.779776
    19  H    0.017083   0.319082
 Sum of Mulliken charges =  -1.00000   1.00000

 Dipole moment (field-independent basis, Debye):
    X=              4.8189    Y=              0.2993    Z=             -0.7953  Tot=              4.8933
 Quadrupole moment (field-independent basis, Debye-Ang):
   XX=           -133.6648   YY=           -121.8473   ZZ=            -93.9130
   XY=            -18.6415   XZ=             -3.1692   YZ=              4.9659

 Summary of Natural Population Analysis:

                                       Natural Population
                Natural  -----------------------------------------------
    Atom  No    Charge         Core      Valence    Rydberg      Total
 -----------------------------------------------------------------------
      C    1   -0.13349      0.99957     2.12549    0.00844     3.13349
      C    2   -0.05341      0.99953     2.04413    0.00975     3.05341
      C    3    0.07193      0.99946     1.91504    0.01356     2.92807
      C    4    0.02561      0.99955     1.96235    0.01249     2.97439
      N    5   -0.20336      0.99971     2.69224    0.01140     3.70336
      C    6    0.04203      0.99960     1.94449    0.01388     2.95797
      N    7   -0.22271      0.99959     2.71121    0.01191     3.72271
      C    8   -0.01934      0.99955     2.00799    0.01181     3.01934
      C    9   -0.02332      0.99955     2.01094    0.01283     3.02332
      N   10   -0.28269      0.99964     2.77044    0.01261     3.78269
      C   11    0.13699      0.99964     1.84269    0.02068     2.86301
      S   12   -0.15288      4.99959     3.13881    0.01447     8.15288
      H   13    0.09791      0.00000     0.40112    0.00097     0.40209
      H   14    0.10028      0.00000     0.39878    0.00094     0.39972
      H   15    0.09873      0.00000     0.39966    0.00161     0.40127
      H   16    0.08156      0.00000     0.41726    0.00118     0.41844
      H   17    0.11173      0.00000     0.38698    0.00128     0.38827
      H   18    0.11436      0.00000     0.37303    0.01261     0.38564
      H   19    0.21007      0.00000     0.28728    0.00265     0.28993
 =======================================================================
   * Total *   -0.00000     15.99499    29.82994    0.17506    46.00000

 Normal termination of Gaussian 16 at Wed Dec  9 18:08:05 2020.
