 Gaussian 16, Revision A.03,

 -----------------------------------------------------------
 # opt freq B3LYP/6-31G(d) empiricaldispersion=gd3bj scf=xqc
 -----------------------------------------------------------

 -------------------------------
 CID_10901732_JID_10201_neutraal
 -------------------------------
 Symbolic Z-matrix:
 Charge =  0 Multiplicity = 1

 SCF Done:  E(RB3LYP) =  -885.582403181     A.U. after   15 cycles
 SCF Done:  E(RB3LYP) =  -885.589196170     A.U. after   12 cycles
 SCF Done:  E(RB3LYP) =  -885.590061524     A.U. after   11 cycles
 SCF Done:  E(RB3LYP) =  -885.589851988     A.U. after   12 cycles
 SCF Done:  E(RB3LYP) =  -885.590190448     A.U. after   11 cycles
 SCF Done:  E(RB3LYP) =  -885.590535973     A.U. after   11 cycles
 SCF Done:  E(RB3LYP) =  -885.590612121     A.U. after   11 cycles
 SCF Done:  E(RB3LYP) =  -885.590635163     A.U. after   10 cycles
 SCF Done:  E(RB3LYP) =  -885.590652185     A.U. after   10 cycles
 SCF Done:  E(RB3LYP) =  -885.590664441     A.U. after   11 cycles
 SCF Done:  E(RB3LYP) =  -885.590674917     A.U. after    8 cycles
 SCF Done:  E(RB3LYP) =  -885.590675115     A.U. after    8 cycles
 SCF Done:  E(RB3LYP) =  -885.590675228     A.U. after    8 cycles
 SCF Done:  E(RB3LYP) =  -885.590675318     A.U. after    7 cycles
 SCF Done:  E(RB3LYP) =  -885.590675356     A.U. after    7 cycles
 Optimization completed.
    -- Stationary point found.
 Normal termination of Gaussian 16 at Sat Dec 12 15:11:31 2020.

 --------------------------------------------------------------------
 #N Geom=AllCheck Guess=TCheck SCRF=Check GenChk RB3LYP/6-31G(d) Freq
 --------------------------------------------------------------------

 Structure from the checkpoint file:  "JID_10201.chk"
 -------------------------------
 CID_10901732_JID_10201_neutraal
 -------------------------------
 Charge =  0 Multiplicity = 1

 SCF Done:  E(RB3LYP) =  -885.590675356     A.U. after    1 cycles

  Exact polarizability: 189.545   5.273 230.167 -12.677  14.951 126.109
 Approx polarizability: 280.399  19.311 323.444 -30.878  31.427 213.647

                      1                      2                      3
                      A                      A                      A
 Frequencies --     11.2448                26.3670                29.6724
 Red. masses --      4.5651                 2.9119                 4.2964
 Frc consts  --      0.0003                 0.0012                 0.0022
 IR Inten    --      0.1416                 0.0165                 0.5801

                      4                      5                      6
                      A                      A                      A
 Frequencies --     52.0168                55.6183                69.0815
 Red. masses --      3.5200                 3.6751                 3.8459
 Frc consts  --      0.0056                 0.0067                 0.0108
 IR Inten    --      0.0954                 0.1547                 0.1928

                      7                      8                      9
                      A                      A                      A
 Frequencies --     78.7997                91.2215               116.1466
 Red. masses --      4.6184                 4.8911                 2.8776
 Frc consts  --      0.0169                 0.0240                 0.0229
 IR Inten    --      1.4853                 1.4216                 0.0096

                     10                     11                     12
                      A                      A                      A
 Frequencies --    158.6769               174.9361               214.4429
 Red. masses --      4.3944                 3.6186                 3.1849
 Frc consts  --      0.0652                 0.0652                 0.0863
 IR Inten    --      1.1182                 0.8034                 1.1045

                     13                     14                     15
                      A                      A                      A
 Frequencies --    238.3675               254.8803               264.9621
 Red. masses --      1.0520                 2.1789                 2.6318
 Frc consts  --      0.0352                 0.0834                 0.1089
 IR Inten    --      0.0631                 1.7015                 2.2136

                     16                     17                     18
                      A                      A                      A
 Frequencies --    280.2462               291.3813               298.6621
 Red. masses --      1.6223                 3.3632                 3.2649
 Frc consts  --      0.0751                 0.1682                 0.1716
 IR Inten    --      1.4547                 2.0607                 3.3918

                     19                     20                     21
                      A                      A                      A
 Frequencies --    338.8570               359.2059               409.5091
 Red. masses --      3.4653                 2.6868                 2.7138
 Frc consts  --      0.2344                 0.2043                 0.2681
 IR Inten    --      8.8054                 1.8749                 4.1836

                     22                     23                     24
                      A                      A                      A
 Frequencies --    410.3010               417.8934               428.5575
 Red. masses --      2.4604                 2.4000                 1.9886
 Frc consts  --      0.2440                 0.2469                 0.2152
 IR Inten    --      1.0847                 1.1489                 1.6531

                     25                     26                     27
                      A                      A                      A
 Frequencies --    439.9080               497.0691               529.5464
 Red. masses --      2.9440                 3.4206                 3.7970
 Frc consts  --      0.3357                 0.4980                 0.6273
 IR Inten    --      2.2713                 2.5280                 1.4001

                     28                     29                     30
                      A                      A                      A
 Frequencies --    573.1338               602.6677               621.7374
 Red. masses --      4.6937                 5.2671                 5.4451
 Frc consts  --      0.9084                 1.1271                 1.2401
 IR Inten    --      1.0390                 4.9493                 4.2697

                     31                     32                     33
                      A                      A                      A
 Frequencies --    674.2951               706.1506               722.0330
 Red. masses --      2.9915                 3.2908                 3.8497
 Frc consts  --      0.8014                 0.9668                 1.1825
 IR Inten    --      6.3183                 0.8231                 2.7400

                     34                     35                     36
                      A                      A                      A
 Frequencies --    745.0909               767.5725               779.0427
 Red. masses --      1.9401                 4.7720                 3.2811
 Frc consts  --      0.6346                 1.6565                 1.1733
 IR Inten    --     23.4216                25.8408                19.0079

                     37                     38                     39
                      A                      A                      A
 Frequencies --    800.5265               818.8005               841.8405
 Red. masses --      4.6187                 2.9625                 4.0747
 Frc consts  --      1.7439                 1.1702                 1.7014
 IR Inten    --     18.6359                 1.0060                 1.0599

                     40                     41                     42
                      A                      A                      A
 Frequencies --    873.7796               880.6671               924.6250
 Red. masses --      1.3525                 1.5717                 1.5387
 Frc consts  --      0.6084                 0.7182                 0.7751
 IR Inten    --      1.1775                 1.9865                 2.7775

                     43                     44                     45
                      A                      A                      A
 Frequencies --    938.0788               940.9926               942.4750
 Red. masses --      2.1612                 1.9405                 1.9951
 Frc consts  --      1.1206                 1.0124                 1.0441
 IR Inten    --     27.1151                 3.5849                14.8444

                     46                     47                     48
                      A                      A                      A
 Frequencies --    945.7090               962.4783               970.2298
 Red. masses --      1.4815                 2.0080                 1.3563
 Frc consts  --      0.7806                 1.0959                 0.7522
 IR Inten    --     14.3202                 3.3521                33.1208

                     49                     50                     51
                      A                      A                      A
 Frequencies --    977.6169               979.9659               987.3805
 Red. masses --      1.2630                 1.6649                 2.1794
 Frc consts  --      0.7112                 0.9420                 1.2519
 IR Inten    --      0.2471                 0.2664                 1.9681

                     52                     53                     54
                      A                      A                      A
 Frequencies --    998.2678              1027.3426              1041.2628
 Red. masses --      2.6027                 1.1210                 4.6811
 Frc consts  --      1.5282                 0.6971                 2.9903
 IR Inten    --     30.7570                25.3916                98.7399

                     55                     56                     57
                      A                      A                      A
 Frequencies --   1053.5889              1103.0103              1126.4804
 Red. masses --      2.1074                 2.1637                 1.9714
 Frc consts  --      1.3783                 1.5510                 1.4739
 IR Inten    --      2.4187                12.4350                 0.8751

                     58                     59                     60
                      A                      A                      A
 Frequencies --   1139.9708              1167.3965              1178.4649
 Red. masses --      1.6033                 1.4357                 2.2591
 Frc consts  --      1.2276                 1.1528                 1.8485
 IR Inten    --      0.8040                 0.8318                13.2717

                     61                     62                     63
                      A                      A                      A
 Frequencies --   1187.9937              1196.5062              1201.0350
 Red. masses --      1.2888                 1.6902                 2.0842
 Frc consts  --      1.0717                 1.4257                 1.7714
 IR Inten    --      0.6551                 3.7577                11.9230

                     64                     65                     66
                      A                      A                      A
 Frequencies --   1209.4064              1230.1735              1250.6164
 Red. masses --      2.0257                 2.7167                 1.8312
 Frc consts  --      1.7457                 2.4223                 1.6874
 IR Inten    --     16.8972                 6.0256                75.4475

                     67                     68                     69
                      A                      A                      A
 Frequencies --   1284.0974              1296.2478              1316.4185
 Red. masses --      4.0462                 1.4888                 1.1999
 Frc consts  --      3.9310                 1.4739                 1.2251
 IR Inten    --    964.5877                11.6640                41.2943

                     70                     71                     72
                      A                      A                      A
 Frequencies --   1326.9818              1337.7412              1343.4379
 Red. masses --      1.4656                 1.3114                 1.7050
 Frc consts  --      1.5206                 1.3827                 1.8131
 IR Inten    --     13.5492                39.5840                15.2126

                     73                     74                     75
                      A                      A                      A
 Frequencies --   1369.3530              1383.4789              1395.3462
 Red. masses --      3.0574                 1.4140                 1.5073
 Frc consts  --      3.3777                 1.5946                 1.7291
 IR Inten    --      1.3453                 3.6878                 3.2135

                     76                     77                     78
                      A                      A                      A
 Frequencies --   1408.8891              1415.4250              1428.7763
 Red. masses --      2.3736                 1.9054                 1.2844
 Frc consts  --      2.7759                 2.2491                 1.5449
 IR Inten    --     53.0710                19.4298                 4.2613

                     79                     80                     81
                      A                      A                      A
 Frequencies --   1446.9072              1470.2888              1476.0109
 Red. masses --      1.2411                 1.1376                 1.1798
 Frc consts  --      1.5309                 1.4490                 1.5145
 IR Inten    --      5.3443                 8.1916                 7.7319

                     82                     83                     84
                      A                      A                      A
 Frequencies --   1509.2273              1512.2120              1514.7008
 Red. masses --      1.1914                 2.3901                 2.2241
 Frc consts  --      1.5988                 3.2202                 3.0064
 IR Inten    --      5.7174                 3.1004                 6.1579

                     85                     86                     87
                      A                      A                      A
 Frequencies --   1518.9407              1520.2980              1524.4969
 Red. masses --      1.1338                 1.0585                 1.0595
 Frc consts  --      1.5413                 1.4414                 1.4509
 IR Inten    --     19.0779                 0.7546                 1.9695

                     88                     89                     90
                      A                      A                      A
 Frequencies --   1533.6453              1542.5509              1644.7472
 Red. masses --      1.0533                 1.0468                 6.0301
 Frc consts  --      1.4597                 1.4675                 9.6110
 IR Inten    --      2.2761                11.7248                 0.9920

                     91                     92                     93
                      A                      A                      A
 Frequencies --   1672.0143              1716.1575              1735.0466
 Red. masses --      6.6710                 9.2158                 4.4379
 Frc consts  --     10.9880                15.9918                 7.8714
 IR Inten    --      4.0525                19.2027                 1.5156

                     94                     95                     96
                      A                      A                      A
 Frequencies --   1833.4930              3030.4567              3034.7612
 Red. masses --     11.8718                 1.0584                 1.0429
 Frc consts  --     23.5139                 5.7267                 5.6590
 IR Inten    --    194.4623                10.1702                35.2821

                     97                     98                     99
                      A                      A                      A
 Frequencies --   3035.3247              3039.1148              3051.0567
 Red. masses --      1.0549                 1.0469                 1.0773
 Frc consts  --      5.7262                 5.6969                 5.9087
 IR Inten    --     11.8095                40.5295                19.9001

                    100                    101                    102
                      A                      A                      A
 Frequencies --   3064.7728              3075.1145              3099.1290
 Red. masses --      1.0994                 1.1022                 1.0996
 Frc consts  --      6.0845                 6.1411                 6.2227
 IR Inten    --     11.2492                17.3924                10.1652

                    103                    104                    105
                      A                      A                      A
 Frequencies --   3100.5065              3105.8187              3111.6541
 Red. masses --      1.0578                 1.1001                 1.1016
 Frc consts  --      5.9915                 6.2524                 6.2844
 IR Inten    --     30.5908                57.3017                49.3044

                    106                    107                    108
                      A                      A                      A
 Frequencies --   3128.5225              3154.0070              3166.4107
 Red. masses --      1.1008                 1.1025                 1.0658
 Frc consts  --      6.3481                 6.4615                 6.2958
 IR Inten    --     34.4480                 1.2609                11.5285

                    109                    110                    111
                      A                      A                      A
 Frequencies --   3178.0023              3179.5732              3188.3878
 Red. masses --      1.0921                 1.0862                 1.0886
 Frc consts  --      6.4983                 6.4700                 6.5199
 IR Inten    --     11.5578                 3.6749                 9.5828

                    112                    113                    114
                      A                      A                      A
 Frequencies --   3200.4461              3210.3023              3251.4797
 Red. masses --      1.0925                 1.0969                 1.1169
 Frc consts  --      6.5932                 6.6607                 6.9568
 IR Inten    --     31.5997                26.4424                11.6144

 - Thermochemistry -
 -------------------
 Temperature   298.150 Kelvin.  Pressure   1.00000 Atm.
 Atom     1 has atomic number  6 and mass  12.00000

 Molecular mass:   272.14124 amu.
 Principal axes and moments of inertia in atomic units:
                           1         2         3
     Eigenvalues --  5229.961785875.672629923.39068
           X            0.98857   0.15076  -0.00009
           Y           -0.15076   0.98857  -0.00277
           Z           -0.00033   0.00276   1.00000
 This molecule is an asymmetric top.
 Rotational symmetry number  1.
 Warning -- assumption of classical behavior for rotation
           may cause significant error
 Rotational temperatures (Kelvin)      0.01656     0.01474     0.00873
 Rotational constants (GHZ):           0.34508     0.30715     0.18187
 Zero-point vibrational energy     882292.3 (Joules/Mol)
                                  210.87291 (Kcal/Mol)
 Warning -- explicit consideration of  29 degrees of freedom as
           vibrations may cause significant error
 Vibrational temperatures:     16.18    37.94    42.69    74.84    80.02
          (Kelvin)             99.39   113.38   131.25   167.11   228.30
                              251.69   308.54   342.96   366.72   381.22
                              403.21   419.23   429.71   487.54   516.82
                              589.19   590.33   601.26   616.60   632.93
                              715.17   761.90   824.61   867.10   894.54
                              970.16  1015.99  1038.84  1072.02  1104.37
                             1120.87  1151.78  1178.07  1211.22  1257.17
                             1267.08  1330.33  1349.69  1353.88  1356.01
                             1360.66  1384.79  1395.94  1406.57  1409.95
                             1420.62  1436.28  1478.12  1498.14  1515.88
                             1586.99  1620.75  1640.16  1679.62  1695.55
                             1709.26  1721.51  1728.02  1740.07  1769.95
                             1799.36  1847.53  1865.01  1894.03  1909.23
                             1924.71  1932.91  1970.19  1990.52  2007.59
                             2027.08  2036.48  2055.69  2081.78  2115.42
                             2123.65  2171.44  2175.74  2179.32  2185.42
                             2187.37  2193.41  2206.57  2219.39  2366.42
                             2405.66  2469.17  2496.35  2637.99  4360.15
                             4366.34  4367.16  4372.61  4389.79  4409.52
                             4424.40  4458.96  4460.94  4468.58  4476.98
                             4501.25  4537.91  4555.76  4572.44  4574.70
                             4587.38  4604.73  4618.91  4678.15

 Zero-point correction=                           0.336047 (Hartree/Particle)
 Thermal correction to Energy=                    0.355724
 Thermal correction to Enthalpy=                  0.356669
 Thermal correction to Gibbs Free Energy=         0.284674
 Sum of electronic and zero-point Energies=           -885.254628
 Sum of electronic and thermal Energies=              -885.234951
 Sum of electronic and thermal Enthalpies=            -885.234007
 Sum of electronic and thermal Free Energies=         -885.306002

                     E (Thermal)             CV                S
                      KCal/Mol        Cal/Mol-Kelvin    Cal/Mol-Kelvin
 Total                  223.220             73.516            151.526
 Electronic               0.000              0.000              0.000
 Translational            0.889              2.981             42.702
 Rotational               0.889              2.981             34.077
 Vibrational            221.443             67.554             74.747
 Vibration     1          0.593              1.987              7.778
 Vibration     2          0.593              1.985              6.086
 Vibration     3          0.593              1.984              5.851
 Vibration     4          0.596              1.977              4.739
 Vibration     5          0.596              1.975              4.607
 Vibration     6          0.598              1.969              4.179
 Vibration     7          0.600              1.963              3.921
 Vibration     8          0.602              1.955              3.634
 Vibration     9          0.608              1.936              3.164
 Vibration    10          0.621              1.893              2.566
 Vibration    11          0.627              1.873              2.382
 Vibration    12          0.644              1.819              2.006
 Vibration    13          0.656              1.782              1.815
 Vibration    14          0.665              1.755              1.697
 Vibration    15          0.671              1.737              1.629
 Vibration    16          0.680              1.710              1.532
 Vibration    17          0.687              1.690              1.466
 Vibration    18          0.692              1.676              1.424
 Vibration    19          0.719              1.598              1.218
 Vibration    20          0.734              1.556              1.126
 Vibration    21          0.774              1.450              0.928
 Vibration    22          0.774              1.448              0.926
 Vibration    23          0.781              1.431              0.899
 Vibration    24          0.790              1.408              0.863
 Vibration    25          0.800              1.383              0.827
 Vibration    26          0.853              1.257              0.665
 Vibration    27          0.885              1.185              0.588
 Vibration    28          0.929              1.089              0.498
 Vibration    29          0.961              1.026              0.445

 Optimization completed.
    -- Stationary point found.
 Normal termination of Gaussian 16 at Sat Dec 12 15:32:35 2020.

 ----------------------------------------------------------------------
 # B3LYP/6-311++G(d,p) empiricaldispersion=gd3bj scf=xqc pop=npa geom=c
 heck
 ----------------------------------------------------------------------

 ---------------------------------------
 CID_10901732_JID_10201_Energie_neutraal
 ---------------------------------------
 Structure from the checkpoint file:  "JID_10201.chk"
 Charge =  0 Multiplicity = 1

 SCF Done:  E(RB3LYP) =  -885.832025798     A.U. after   15 cycles
 Normal termination of Gaussian 16 at Sat Dec 12 15:42:26 2020.

 ----------------------------------------------------------------------
 # B3LYP/6-311++G(d,p) empiricaldispersion=gd3bj scf=xqc pop=npa geom=c
 heck
 ----------------------------------------------------------------------

 -------------------------------------
 CID_10901732_JID_10201_Energie_kation
 -------------------------------------
 Structure from the checkpoint file:  "JID_10201.chk"
 Charge =  1 Multiplicity = 2

 SCF Done:  E(UB3LYP) =  -885.553265883     A.U. after   21 cycles
 Normal termination of Gaussian 16 at Sat Dec 12 16:02:39 2020.
 Gaussian 16:  ES64L-G16RevA.03 25-Dec-2016

 ----------------------------------------------------------------------
 # B3LYP/6-311++G(d,p) empiricaldispersion=gd3bj scf=xqc pop=npa geom=c
 heck
 ----------------------------------------------------------------------

 ------------------------------------
 CID_10901732_JID_10201_Energie_anion
 ------------------------------------
 Structure from the checkpoint file:  "JID_10201.chk"
 Charge = -1 Multiplicity = 2

                         Standard orientation:
 ---------------------------------------------------------------------
 Center     Atomic      Atomic             Coordinates (Angstroms)
 Number     Number       Type             X           Y           Z
 ---------------------------------------------------------------------
      1          6           0       -1.365741   -2.738271    1.707203
      2          6           0       -0.813063   -3.064614    0.316635
      3          6           0       -0.827844   -4.572084    0.044973
      4          6           0       -1.582582   -2.317946   -0.802354
      5          6           0       -1.652926   -0.835818   -0.600550
      6          6           0       -0.656554    0.056860   -0.748043
      7          6           0       -1.062543    1.411686   -0.390569
      8          6           0       -0.364440    2.616200   -0.383449
      9          6           0       -1.044165    3.767819    0.022746
     10          6           0       -2.387045    3.709054    0.408710
     11          6           0       -3.082541    2.492202    0.399378
     12          6           0       -2.414272    1.344386    0.000737
     13          6           0       -2.879137   -0.091791   -0.108260
     14          8           0        0.607717   -0.236000   -1.250632
     15          6           0        1.602876   -0.313248   -0.333979
     16          8           0        1.464654   -0.256753    0.864798
     17          8           0        2.747606   -0.482056   -1.007335
     18          6           0        3.944374   -0.436013   -0.181227
     19          6           0        4.360014    0.985148    0.054057
     20          6           0        4.252891    1.588470    1.237288
     21          1           0       -2.431889   -2.992915    1.777862
     22          1           0       -1.245415   -1.674933    1.936247
     23          1           0       -0.836059   -3.307468    2.479396
     24          1           0        0.227601   -2.717189    0.288137
     25          1           0       -1.852024   -4.965536    0.083131
     26          1           0       -0.417267   -4.805080   -0.944684
     27          1           0       -0.235981   -5.113015    0.792142
     28          1           0       -1.095435   -2.537560   -1.761050
     29          1           0       -2.600128   -2.727066   -0.863245
     30          1           0        0.679436    2.658039   -0.680387
     31          1           0       -0.522783    4.720838    0.039736
     32          1           0       -2.896514    4.616170    0.721107
     33          1           0       -4.125844    2.453678    0.702940
     34          1           0       -3.221643   -0.489528    0.857015
     35          1           0       -3.722333   -0.203869   -0.805080
     36          1           0        3.748708   -0.956657    0.757983
     37          1           0        4.683801   -0.988297   -0.765618
     38          1           0        4.736517    1.525852   -0.812890
     39          1           0        4.552470    2.623058    1.380498
     40          1           0        3.851144    1.067690    2.102329
 ---------------------------------------------------------------------

 SCF Done:  E(UB3LYP) =  -885.819659250     A.U. after   33 cycles
 SCF Done:  E(UB3LYP) =  -885.819659249     a.u. after    1 cycles

 The electronic state is 2-A.
 Alpha  occ. eigenvalues --  -19.07683 -19.07584 -19.01409 -10.24885 -10.13826
 Alpha  occ. eigenvalues --  -10.11448 -10.08411 -10.07874 -10.07816 -10.07304
 Alpha  occ. eigenvalues --  -10.07251 -10.07190 -10.07114 -10.06831 -10.06805
 Alpha  occ. eigenvalues --  -10.06721 -10.06616 -10.06452 -10.05806 -10.05615
 Alpha  occ. eigenvalues --   -1.04942  -0.96597  -0.92939  -0.77720  -0.72667
 Alpha  occ. eigenvalues --   -0.70664  -0.69945  -0.65617  -0.63422  -0.62695
 Alpha  occ. eigenvalues --   -0.58926  -0.58474  -0.57736  -0.52714  -0.49436
 Alpha  occ. eigenvalues --   -0.48306  -0.47644  -0.46409  -0.45765  -0.42952
 Alpha  occ. eigenvalues --   -0.40221  -0.39819  -0.37707  -0.37087  -0.36917
 Alpha  occ. eigenvalues --   -0.36020  -0.35677  -0.34987  -0.34301  -0.33627
 Alpha  occ. eigenvalues --   -0.32675  -0.32314  -0.31779  -0.30494  -0.29899
 Alpha  occ. eigenvalues --   -0.28723  -0.28171  -0.27360  -0.26675  -0.26241
 Alpha  occ. eigenvalues --   -0.25905  -0.25440  -0.23935  -0.23732  -0.22974
 Alpha  occ. eigenvalues --   -0.22215  -0.21531  -0.21057  -0.19964  -0.18606
 Alpha  occ. eigenvalues --   -0.18266  -0.14921  -0.11243   0.04564
 Alpha virt. eigenvalues --    0.06216   0.06630   0.06880   0.07345   0.07829
 Alpha virt. eigenvalues --    0.07934   0.08452   0.08749   0.09303   0.09462
 Alpha virt. eigenvalues --    0.09810   0.10606   0.10699   0.11174   0.11887

  Beta  occ. eigenvalues --  -19.07673 -19.07570 -19.01398 -10.24873 -10.13808
  Beta  occ. eigenvalues --  -10.11433 -10.08357 -10.07888 -10.07747 -10.07282
  Beta  occ. eigenvalues --  -10.07246 -10.07153 -10.07120 -10.06808 -10.06756
  Beta  occ. eigenvalues --  -10.06686 -10.06510 -10.06267 -10.05776 -10.05605
  Beta  occ. eigenvalues --   -1.04917  -0.96571  -0.92914  -0.77566  -0.72530
  Beta  occ. eigenvalues --   -0.70550  -0.69870  -0.65505  -0.63284  -0.62571
  Beta  occ. eigenvalues --   -0.58844  -0.58423  -0.57658  -0.52596  -0.49324
  Beta  occ. eigenvalues --   -0.48159  -0.47501  -0.46339  -0.45718  -0.42887
  Beta  occ. eigenvalues --   -0.40171  -0.39753  -0.37615  -0.37020  -0.36841
  Beta  occ. eigenvalues --   -0.35918  -0.35536  -0.34885  -0.34240  -0.33572
  Beta  occ. eigenvalues --   -0.32598  -0.32249  -0.31714  -0.30448  -0.29820
  Beta  occ. eigenvalues --   -0.28698  -0.28119  -0.27304  -0.26635  -0.26155
  Beta  occ. eigenvalues --   -0.25684  -0.25332  -0.23883  -0.23637  -0.22907
  Beta  occ. eigenvalues --   -0.22163  -0.21490  -0.20983  -0.19926  -0.18197
  Beta  occ. eigenvalues --   -0.17841  -0.14672  -0.10574
  Beta virt. eigenvalues --    0.06542   0.06938   0.07017   0.07686   0.07784
  Beta virt. eigenvalues --    0.08137   0.08323   0.08507   0.08913   0.09511
  Beta virt. eigenvalues --    0.09518   0.09989   0.10656   0.10901   0.11290

 Mulliken charges and spin densities:
               1          2
     1  C   -0.230378  -0.605054
     2  C   -0.463257   1.115334
     3  C    0.236126  -0.894926
     4  C   -0.128408  -0.288415
     5  C    0.787447   0.001382
     6  C    0.245122  -0.362558
     7  C    0.798123  -0.182854
     8  C    0.337950  -0.002617
     9  C   -0.290421   0.008870
    10  C   -0.193506  -0.021870
    11  C   -0.469592   0.004213
    12  C    0.031118  -0.024642
    13  C   -1.051683  -0.040618
    14  O   -0.035085   0.006879
    15  C   -0.995337   0.222594
    16  O   -0.107835   0.002232
    17  O   -0.044598   0.036710
    18  C    0.871776  -1.261675
    19  C   -0.559883   0.894702
    20  C   -0.052901  -0.367760
    21  H   -0.009599   0.160411
    22  H    0.197180  -0.034248
    23  H    0.082655   0.043778
    24  H    0.391422  -0.136873
    25  H   -0.074577   0.192502
    26  H   -0.217899   0.363469
    27  H   -0.164343   0.300077
    28  H    0.030280   0.174804
    29  H   -0.064067   0.232977
    30  H    0.145916  -0.028766
    31  H    0.101011   0.042435
    32  H    0.111984   0.000737
    33  H    0.057482   0.077698
    34  H    0.192668  -0.018458
    35  H    0.009760   0.174812
    36  H   -0.039291   0.202514
    37  H   -0.327704   0.507831
    38  H   -0.130060   0.286271
    39  H    0.014571   0.086146
    40  H    0.007835   0.131959
 Sum of Mulliken charges =  -1.00000   1.00000

 Dipole moment (field-independent basis, Debye):
    X=             -2.1576    Y=              3.4979    Z=              1.1015  Tot=              4.2548
 Quadrupole moment (field-independent basis, Debye-Ang):
   XX=           -176.7225   YY=           -178.6051   ZZ=           -148.2890
   XY=             -0.3594   XZ=             -3.2482   YZ=             -4.2855

 Summary of Natural Population Analysis:

                                       Natural Population
                Natural  -----------------------------------------------
    Atom  No    Charge         Core      Valence    Rydberg      Total
 -----------------------------------------------------------------------
      C    1   -0.28553      0.99965     2.28109    0.00479     3.28553
      C    2   -0.11076      0.99961     2.10116    0.00998     3.11076
      C    3   -0.28084      0.99965     2.27641    0.00478     3.28084
      C    4   -0.20498      0.99958     2.19486    0.01053     3.20498
      C    5    0.02849      0.99944     1.96212    0.00995     2.97151
      C    6    0.13760      0.99915     1.84971    0.01355     2.86240
      C    7   -0.02280      0.99942     2.01524    0.00814     3.02280
      C    8   -0.09642      0.99953     2.08873    0.00816     3.09642
      C    9   -0.10797      0.99958     2.09842    0.00997     3.10797
      C   10   -0.09531      0.99958     2.08516    0.01057     3.09531
      C   11   -0.10743      0.99951     2.09961    0.00831     3.10743
      C   12    0.00733      0.99949     1.98551    0.00767     2.99267
      C   13   -0.20578      0.99958     2.19927    0.00693     3.20578
      O   14   -0.26785      0.99983     3.25991    0.00811     4.26785
      C   15    0.51458      0.99971     1.45584    0.02987     2.48542
      O   16   -0.31429      0.99986     3.30962    0.00480     4.31429
      O   17   -0.27302      0.99986     3.26463    0.00854     4.27302
      C   18   -0.03250      0.99953     2.01923    0.01374     3.03250
      C   19   -0.10497      0.99956     2.09620    0.00921     3.10497
      C   20   -0.15894      0.99957     2.15236    0.00701     3.15894
      H   21    0.09159      0.00000     0.40753    0.00088     0.40841
      H   22    0.10688      0.00000     0.39228    0.00085     0.39312
      H   23    0.09750      0.00000     0.40177    0.00074     0.40250
      H   24    0.09653      0.00000     0.40129    0.00218     0.40347
      H   25    0.09402      0.00000     0.40486    0.00112     0.40598
      H   26    0.10019      0.00000     0.39861    0.00120     0.39981
      H   27    0.09741      0.00000     0.40166    0.00093     0.40259
      H   28    0.11093      0.00000     0.38782    0.00125     0.38907
      H   29    0.09823      0.00000     0.40069    0.00107     0.40177
      H   30    0.10162      0.00000     0.39677    0.00161     0.39838
      H   31    0.09592      0.00000     0.40330    0.00078     0.40408
      H   32    0.09377      0.00000     0.40541    0.00083     0.40623
      H   33    0.09539      0.00000     0.40331    0.00130     0.40461
      H   34    0.11336      0.00000     0.38560    0.00104     0.38664
      H   35    0.11246      0.00000     0.38622    0.00132     0.38754
      H   36    0.09903      0.00000     0.39950    0.00147     0.40097
      H   37    0.09697      0.00000     0.40107    0.00196     0.40303
      H   38    0.09280      0.00000     0.40608    0.00111     0.40720
      H   39    0.09113      0.00000     0.40781    0.00106     0.40887
      H   40    0.09564      0.00000     0.40320    0.00116     0.40436
 =======================================================================
   * Total *   -0.00000     19.99169    52.78985    0.21846    73.00000

 Normal termination of Gaussian 16 at Sat Dec 12 16:34:23 2020.
