 Gaussian 16, Revision A.03,

 -----------------------------------------------------------
 # opt freq B3LYP/6-31G(d) empiricaldispersion=gd3bj scf=xqc
 -----------------------------------------------------------

 -------------------------------
 CID_106076144_JID_9736_neutraal
 -------------------------------
 Symbolic Z-matrix:
 Charge =  0 Multiplicity = 1

 SCF Done:  E(RB3LYP) =  -1600.84261238     A.U. after   15 cycles
 SCF Done:  E(RB3LYP) =  -1600.85558807     A.U. after   13 cycles
 SCF Done:  E(RB3LYP) =  -1600.85759792     A.U. after   12 cycles
 SCF Done:  E(RB3LYP) =  -1600.85865688     A.U. after   12 cycles
 SCF Done:  E(RB3LYP) =  -1600.85960636     A.U. after   13 cycles
 SCF Done:  E(RB3LYP) =  -1600.86014670     A.U. after   13 cycles
 SCF Done:  E(RB3LYP) =  -1600.86046779     A.U. after   12 cycles
 SCF Done:  E(RB3LYP) =  -1600.86060149     A.U. after   12 cycles
 SCF Done:  E(RB3LYP) =  -1600.86064257     A.U. after   11 cycles
 SCF Done:  E(RB3LYP) =  -1600.86068718     A.U. after   11 cycles
 SCF Done:  E(RB3LYP) =  -1600.86073121     A.U. after    7 cycles
 SCF Done:  E(RB3LYP) =  -1600.86073131     A.U. after    7 cycles
 SCF Done:  E(RB3LYP) =  -1600.86073138     A.U. after    7 cycles
 SCF Done:  E(RB3LYP) =  -1600.86073144     A.U. after    7 cycles
 SCF Done:  E(RB3LYP) =  -1600.86073145     A.U. after    6 cycles
 Optimization completed.
    -- Stationary point found.
 Normal termination of Gaussian 16 at Sat Dec 12 10:17:06 2020.

 --------------------------------------------------------------------
 #N Geom=AllCheck Guess=TCheck SCRF=Check GenChk RB3LYP/6-31G(d) Freq
 --------------------------------------------------------------------

 Structure from the checkpoint file:  "JID_9736.chk"
 -------------------------------
 CID_106076144_JID_9736_neutraal
 -------------------------------
 Charge =  0 Multiplicity = 1

 SCF Done:  E(RB3LYP) =  -1600.86073145     A.U. after    1 cycles

  Exact polarizability: 215.339  18.707 154.405  -1.201  -5.817 165.867
 Approx polarizability: 284.402  31.688 223.284   4.970  -6.564 293.114

                      1                      2                      3
                      A                      A                      A
 Frequencies --     15.1388                18.7904                25.2358
 Red. masses --      3.9951                 4.4185                 3.7125
 Frc consts  --      0.0005                 0.0009                 0.0014
 IR Inten    --      0.8410                 0.1508                 0.7580

                      4                      5                      6
                      A                      A                      A
 Frequencies --     34.3075                43.4140                85.0504
 Red. masses --      2.7017                 3.6921                 1.8918
 Frc consts  --      0.0019                 0.0041                 0.0081
 IR Inten    --      2.4581                 1.2888                 1.3710

                      7                      8                      9
                      A                      A                      A
 Frequencies --     88.8729                98.6967               104.9993
 Red. masses --      1.6407                 3.9359                 3.4326
 Frc consts  --      0.0076                 0.0226                 0.0223
 IR Inten    --      1.5247                 2.4526                 2.4235

                     10                     11                     12
                      A                      A                      A
 Frequencies --    111.6396               158.0010               159.4179
 Red. masses --      1.8839                 4.6671                 3.7903
 Frc consts  --      0.0138                 0.0686                 0.0568
 IR Inten    --      2.0891                 1.1415                 0.7594

                     13                     14                     15
                      A                      A                      A
 Frequencies --    190.9047               207.5051               238.6561
 Red. masses --      3.9344                 2.9878                 1.1909
 Frc consts  --      0.0845                 0.0758                 0.0400
 IR Inten    --      1.2075                 3.6961                 0.2019

                     16                     17                     18
                      A                      A                      A
 Frequencies --    244.8006               257.2902               264.4248
 Red. masses --      1.7090                 2.4401                 5.6260
 Frc consts  --      0.0603                 0.0952                 0.2318
 IR Inten    --      0.9640                 1.6378                 1.0103

                     19                     20                     21
                      A                      A                      A
 Frequencies --    284.0176               308.2484               337.1128
 Red. masses --      3.5284                 3.0831                 3.5471
 Frc consts  --      0.1677                 0.1726                 0.2375
 IR Inten    --      0.0726                 1.2592                 0.1769

                     22                     23                     24
                      A                      A                      A
 Frequencies --    345.3504               357.2895               373.8841
 Red. masses --      3.9439                 5.2992                 5.1070
 Frc consts  --      0.2771                 0.3986                 0.4206
 IR Inten    --      2.1679                 0.1413                 0.3223

                     25                     26                     27
                      A                      A                      A
 Frequencies --    418.2523               450.5258               502.7891
 Red. masses --      2.6823                 4.9067                 5.3924
 Frc consts  --      0.2765                 0.5868                 0.8032
 IR Inten    --      6.9229                 2.5593                17.8423

                     28                     29                     30
                      A                      A                      A
 Frequencies --    509.7170               516.8064               547.5275
 Red. masses --      2.2206                 5.8029                 4.1162
 Frc consts  --      0.3399                 0.9132                 0.7270
 IR Inten    --     29.4170                 9.0987               124.4798

                     31                     32                     33
                      A                      A                      A
 Frequencies --    570.3443               620.4704               636.7123
 Red. masses --      5.8478                 4.5974                 4.1329
 Frc consts  --      1.1208                 1.0428                 0.9872
 IR Inten    --     42.5924                10.8258                33.2287

                     34                     35                     36
                      A                      A                      A
 Frequencies --    654.0020               674.9348               690.6688
 Red. masses --      3.1408                 3.8060                 5.1897
 Frc consts  --      0.7915                 1.0215                 1.4586
 IR Inten    --     34.2516                 3.3482                 6.8298

                     37                     38                     39
                      A                      A                      A
 Frequencies --    715.4661               809.1565               827.2012
 Red. masses --      5.0483                 1.3945                 3.1456
 Frc consts  --      1.5226                 0.5379                 1.2682
 IR Inten    --      2.3981                64.5300                40.4149

                     40                     41                     42
                      A                      A                      A
 Frequencies --    837.8311               845.1409               869.1547
 Red. masses --      1.9861                 1.3782                 2.1833
 Frc consts  --      0.8214                 0.5800                 0.9717
 IR Inten    --      2.2908                17.9687                46.4411

                     43                     44                     45
                      A                      A                      A
 Frequencies --    892.0517               906.4659               972.3160
 Red. masses --      2.2531                 2.0525                 2.4902
 Frc consts  --      1.0564                 0.9937                 1.3871
 IR Inten    --     27.6197                96.0043                 7.7153

                     46                     47                     48
                      A                      A                      A
 Frequencies --    989.3484              1000.0681              1002.9385
 Red. masses --      2.2771                 1.4625                 1.4424
 Frc consts  --      1.3132                 0.8618                 0.8549
 IR Inten    --      3.3446                16.6672                 4.8728

                     49                     50                     51
                      A                      A                      A
 Frequencies --   1040.6218              1052.6463              1059.2623
 Red. masses --      2.7124                 2.0679                 1.4023
 Frc consts  --      1.7306                 1.3501                 0.9270
 IR Inten    --     24.6798                29.5177                 3.3155

                     52                     53                     54
                      A                      A                      A
 Frequencies --   1100.9632              1112.2640              1129.9813
 Red. masses --      2.7856                 4.4673                 4.4854
 Frc consts  --      1.9893                 3.2562                 3.3744
 IR Inten    --     21.0831               157.3292               123.5885

                     55                     56                     57
                      A                      A                      A
 Frequencies --   1135.7048              1148.4062              1165.6008
 Red. masses --      2.1459                 3.9384                 1.5971
 Frc consts  --      1.6308                 3.0603                 1.2784
 IR Inten    --     18.2886                19.5420                17.4201

                     58                     59                     60
                      A                      A                      A
 Frequencies --   1167.5883              1175.6780              1185.1253
 Red. masses --      2.0563                 2.1909                 2.1655
 Frc consts  --      1.6517                 1.7842                 1.7920
 IR Inten    --      1.0324                64.6292                26.2970

                     61                     62                     63
                      A                      A                      A
 Frequencies --   1185.9667              1197.7153              1215.1368
 Red. masses --      2.8403                 1.8218                 2.8308
 Frc consts  --      2.3538                 1.5397                 2.4627
 IR Inten    --      2.0753                10.0001                11.8501

                     64                     65                     66
                      A                      A                      A
 Frequencies --   1220.9816              1250.1438              1287.6225
 Red. masses --      1.2968                 1.2923                 1.4806
 Frc consts  --      1.1391                 1.1899                 1.4463
 IR Inten    --     18.6782                19.0464                13.9469

                     67                     68                     69
                      A                      A                      A
 Frequencies --   1299.6492              1307.3340              1324.9057
 Red. masses --      1.6988                 1.4008                 2.8591
 Frc consts  --      1.6906                 1.4106                 2.9570
 IR Inten    --     29.5583                 6.9520               110.1283

                     70                     71                     72
                      A                      A                      A
 Frequencies --   1348.2351              1355.4094              1379.1034
 Red. masses --      1.2506                 2.2028                 1.2926
 Frc consts  --      1.3394                 2.3844                 1.4485
 IR Inten    --     13.1504                36.4178                22.1510

                     73                     74                     75
                      A                      A                      A
 Frequencies --   1403.1129              1408.1978              1417.3865
 Red. masses --      1.6760                 1.3430                 1.3476
 Frc consts  --      1.9440                 1.5691                 1.5951
 IR Inten    --     16.6922                16.0945                14.1304

                     76                     77                     78
                      A                      A                      A
 Frequencies --   1440.0259              1449.5246              1470.8703
 Red. masses --      1.4356                 1.1997                 1.3364
 Frc consts  --      1.7540                 1.4851                 1.7035
 IR Inten    --     11.4199                 0.4811                38.0676

                     79                     80                     81
                      A                      A                      A
 Frequencies --   1482.6915              1503.8766              1506.7070
 Red. masses --      1.1792                 1.0443                 1.2272
 Frc consts  --      1.5274                 1.3915                 1.6414
 IR Inten    --      1.2119                 4.9806                27.6102

                     82                     83                     84
                      A                      A                      A
 Frequencies --   1510.2742              1515.1632              1519.1506
 Red. masses --      1.1150                 1.0556                 1.0548
 Frc consts  --      1.4984                 1.4278                 1.4342
 IR Inten    --     17.7759                 8.0709                 9.8245

                     85                     86                     87
                      A                      A                      A
 Frequencies --   1525.9507              1528.3776              1534.0201
 Red. masses --      1.0921                 1.0532                 1.0796
 Frc consts  --      1.4983                 1.4495                 1.4968
 IR Inten    --      7.1106                 4.0861                 5.8400

                     88                     89                     90
                      A                      A                      A
 Frequencies --   1545.0116              1550.2703              1562.2315
 Red. masses --      1.1367                 4.5948                 1.0963
 Frc consts  --      1.5987                 6.5063                 1.5764
 IR Inten    --      8.5175                21.9314                 0.1488

                     91                     92                     93
                      A                      A                      A
 Frequencies --   1618.5765              2946.0711              2958.2950
 Red. masses --      6.8954                 1.0725                 1.0830
 Frc consts  --     10.6432                 5.4847                 5.5841
 IR Inten    --      3.1163                46.6495                56.9257

                     94                     95                     96
                      A                      A                      A
 Frequencies --   2966.4194              3036.4213              3043.2921
 Red. masses --      1.0598                 1.0867                 1.0573
 Frc consts  --      5.4946                 5.9033                 5.7695
 IR Inten    --    119.4538                29.0547                82.0329

                     97                     98                     99
                      A                      A                      A
 Frequencies --   3051.6812              3056.9717              3069.8533
 Red. masses --      1.0755                 1.0353                 1.0354
 Frc consts  --      5.9014                 5.7006                 5.7488
 IR Inten    --      8.8250                 9.5713                12.2239

                    100                    101                    102
                      A                      A                      A
 Frequencies --   3077.6846              3081.3054              3085.3155
 Red. masses --      1.1042                 1.0754                 1.0843
 Frc consts  --      6.1621                 6.0157                 6.0813
 IR Inten    --     35.7510                38.1317                31.7066

                    103                    104                    105
                      A                      A                      A
 Frequencies --   3129.0456              3130.6797              3134.5709
 Red. masses --      1.1023                 1.1022                 1.1015
 Frc consts  --      6.3586                 6.3648                 6.3769
 IR Inten    --     23.0887                26.3329                 9.3994

                    106                    107                    108
                      A                      A                      A
 Frequencies --   3137.3757              3143.2652              3147.5374
 Red. masses --      1.1031                 1.0969                 1.1032
 Frc consts  --      6.3976                 6.3852                 6.4396
 IR Inten    --     21.1194                12.4417                 6.5227

                    109                    110                    111
                      A                      A                      A
 Frequencies --   3238.4399              3495.1966              3519.7466
 Red. masses --      1.0935                 1.0744                 1.0748
 Frc consts  --      6.7570                 7.7330                 7.8450
 IR Inten    --      1.1349                 0.1345                24.4870

 - Thermochemistry -
 -------------------
 Temperature   298.150 Kelvin.  Pressure   1.00000 Atm.
 Atom     1 has atomic number  6 and mass  12.00000

 Molecular mass:   304.09154 amu.
 Principal axes and moments of inertia in atomic units:
                           1         2         3
     Eigenvalues --  4203.780108794.67616**********
           X            0.99984   0.01065  -0.01470
           Y           -0.01117   0.99930  -0.03558
           Z            0.01431   0.03574   0.99926
 This molecule is an asymmetric top.
 Rotational symmetry number  1.
 Warning -- assumption of classical behavior for rotation
           may cause significant error
 Rotational temperatures (Kelvin)      0.02060     0.00985     0.00820
 Rotational constants (GHZ):           0.42931     0.20521     0.17084
 Zero-point vibrational energy     846953.5 (Joules/Mol)
                                  202.42675 (Kcal/Mol)
 Warning -- explicit consideration of  32 degrees of freedom as
           vibrations may cause significant error
 Vibrational temperatures:     21.78    27.04    36.31    49.36    62.46
          (Kelvin)            122.37   127.87   142.00   151.07   160.62
                              227.33   229.37   274.67   298.55   343.37
                              352.21   370.18   380.45   408.64   443.50
                              485.03   496.88   514.06   537.94   601.77
                              648.21   723.40   733.37   743.57   787.77
                              820.60   892.72   916.09   940.96   971.08
                              993.72  1029.40  1164.20  1190.16  1205.45
                             1215.97  1250.52  1283.46  1304.20  1398.95
                             1423.45  1438.87  1443.00  1497.22  1514.52
                             1524.04  1584.04  1600.30  1625.79  1634.03
                             1652.30  1677.04  1679.90  1691.54  1705.13
                             1706.34  1723.25  1748.31  1756.72  1798.68
                             1852.60  1869.91  1880.96  1906.24  1939.81
                             1950.13  1984.22  2018.77  2026.08  2039.30
                             2071.88  2085.54  2116.25  2133.26  2163.74
                             2167.82  2172.95  2179.98  2185.72  2195.50
                             2198.99  2207.11  2222.93  2230.49  2247.70
                             2328.77  4238.74  4256.33  4268.02  4368.73
                             4378.62  4390.69  4398.30  4416.83  4428.10
                             4433.31  4439.08  4502.00  4504.35  4509.95
                             4513.98  4522.46  4528.60  4659.39  5028.81
                             5064.13

 Zero-point correction=                           0.322588 (Hartree/Particle)
 Thermal correction to Energy=                    0.343604
 Thermal correction to Enthalpy=                  0.344548
 Thermal correction to Gibbs Free Energy=         0.268960
 Sum of electronic and zero-point Energies=          -1600.538144
 Sum of electronic and thermal Energies=             -1600.517128
 Sum of electronic and thermal Enthalpies=           -1600.516184
 Sum of electronic and thermal Free Energies=        -1600.591771

                     E (Thermal)             CV                S
                      KCal/Mol        Cal/Mol-Kelvin    Cal/Mol-Kelvin
 Total                  215.615             75.929            159.088
 Electronic               0.000              0.000              0.000
 Translational            0.889              2.981             43.033
 Rotational               0.889              2.981             34.323
 Vibrational            213.837             69.968             81.732
 Vibration     1          0.593              1.986              7.187
 Vibration     2          0.593              1.986              6.758
 Vibration     3          0.593              1.985              6.173
 Vibration     4          0.594              1.983              5.563
 Vibration     5          0.595              1.980              5.097
 Vibration     6          0.601              1.960              3.771
 Vibration     7          0.602              1.957              3.685
 Vibration     8          0.604              1.950              3.480
 Vibration     9          0.605              1.945              3.359
 Vibration    10          0.607              1.940              3.240
 Vibration    11          0.621              1.894              2.574
 Vibration    12          0.621              1.892              2.557
 Vibration    13          0.634              1.852              2.219
 Vibration    14          0.641              1.829              2.066
 Vibration    15          0.657              1.781              1.813
 Vibration    16          0.660              1.771              1.768
 Vibration    17          0.667              1.750              1.680
 Vibration    18          0.671              1.738              1.632
 Vibration    19          0.682              1.703              1.509
 Vibration    20          0.698              1.658              1.372
 Vibration    21          0.718              1.601              1.226
 Vibration    22          0.724              1.585              1.187
 Vibration    23          0.732              1.560              1.134
 Vibration    24          0.745              1.526              1.064
 Vibration    25          0.781              1.431              0.898
 Vibration    26          0.809              1.360              0.794
 Vibration    27          0.858              1.244              0.651
 Vibration    28          0.865              1.228              0.634
 Vibration    29          0.872              1.213              0.617
 Vibration    30          0.903              1.145              0.549
 Vibration    31          0.926              1.095              0.504
 Vibration    32          0.981              0.989              0.416

 Optimization completed.
    -- Stationary point found.
 Normal termination of Gaussian 16 at Sat Dec 12 10:36:05 2020.

 ----------------------------------------------------------------------
 # B3LYP/6-311++G(d,p) empiricaldispersion=gd3bj scf=xqc pop=npa geom=c
 heck
 ----------------------------------------------------------------------

 ---------------------------------------
 CID_106076144_JID_9736_Energie_neutraal
 ---------------------------------------
 Structure from the checkpoint file:  "JID_9736.chk"
 Charge =  0 Multiplicity = 1

 SCF Done:  E(RB3LYP) =  -1601.14592746     A.U. after   16 cycles
 Normal termination of Gaussian 16 at Sat Dec 12 10:44:27 2020.

 ----------------------------------------------------------------------
 # B3LYP/6-311++G(d,p) empiricaldispersion=gd3bj scf=xqc pop=npa geom=c
 heck
 ----------------------------------------------------------------------

 -------------------------------------
 CID_106076144_JID_9736_Energie_kation
 -------------------------------------
 Structure from the checkpoint file:  "JID_9736.chk"
 Charge =  1 Multiplicity = 2

 SCF Done:  E(UB3LYP) =  -1600.84267076     A.U. after   32 cycles
 Normal termination of Gaussian 16 at Sat Dec 12 11:06:51 2020.
 Gaussian 16:  ES64L-G16RevA.03 25-Dec-2016

 ----------------------------------------------------------------------
 # B3LYP/6-311++G(d,p) empiricaldispersion=gd3bj scf=xqc pop=npa geom=c
 heck
 ----------------------------------------------------------------------

 ------------------------------------
 CID_106076144_JID_9736_Energie_anion
 ------------------------------------
 Structure from the checkpoint file:  "JID_9736.chk"
 Charge = -1 Multiplicity = 2

                         Standard orientation:
 ---------------------------------------------------------------------
 Center     Atomic      Atomic             Coordinates (Angstroms)
 Number     Number       Type             X           Y           Z
 ---------------------------------------------------------------------
      1          6           0       -0.692284    2.648786   -0.257223
      2          6           0       -2.111751    2.142805   -0.435868
      3          6           0       -2.293901    0.652303   -0.118957
      4          6           0       -3.787124    0.567016    0.216233
      5          6           0       -4.042192    1.924536    0.888263
      6          8           0       -2.983639    2.807316    0.475894
      7          7           0       -1.805489   -0.199779   -1.199054
      8         16           0       -1.208279   -1.721166   -0.769594
      9          8           0       -1.985412   -2.312313    0.328703
     10          8           0       -1.058445   -2.432332   -2.041484
     11          6           0        0.373025   -1.246529   -0.134312
     12          6           0        0.749902   -1.328023    1.186623
     13         16           0        2.348871   -0.658426    1.375506
     14          6           0        2.484783   -0.293565   -0.332425
     15          6           0        1.353304   -0.659080   -0.998472
     16          6           0        3.745043    0.313627   -0.866476
     17          7           0        4.260387    1.319214    0.055794
     18          6           0        5.521973    1.905294   -0.380093
     19          6           0        0.015626   -1.852284    2.385454
     20          1           0       -0.626893    3.716747   -0.486337
     21          1           0       -0.016070    2.099931   -0.920975
     22          1           0       -0.367598    2.496241    0.777952
     23          1           0       -2.442144    2.323554   -1.474754
     24          1           0       -1.697858    0.422852    0.770881
     25          1           0       -4.028404   -0.291570    0.846462
     26          1           0       -4.362348    0.475855   -0.713847
     27          1           0       -4.013510    1.849052    1.982411
     28          1           0       -5.009588    2.355934    0.604102
     29          1           0       -2.445384   -0.309359   -1.984454
     30          1           0        1.201717   -0.527484   -2.063038
     31          1           0        4.521006   -0.458011   -0.971196
     32          1           0        3.546587    0.694534   -1.886323
     33          1           0        3.559672    2.048740    0.174293
     34          1           0        5.487194    2.355728   -1.388732
     35          1           0        5.827973    2.677063    0.332345
     36          1           0        6.295716    1.129108   -0.388127
     37          1           0        0.631381   -1.763055    3.284698
     38          1           0       -0.919172   -1.307111    2.546663
     39          1           0       -0.254490   -2.902012    2.244812
 ---------------------------------------------------------------------

 SCF Done:  E(UB3LYP) =  -1601.14129064     A.U. after   33 cycles
 SCF Done:  E(UB3LYP) =  -1601.14129064     a.u. after    1 cycles

 The electronic state is 2-A.
 Alpha  occ. eigenvalues --  -88.95860 -88.75842 -19.03781 -19.01252 -19.01162
 Alpha  occ. eigenvalues --  -14.24454 -14.20674 -10.13674 -10.13517 -10.12782
 Alpha  occ. eigenvalues --  -10.10491 -10.09359 -10.09156 -10.08914 -10.08824
 Alpha  occ. eigenvalues --  -10.08348 -10.07347 -10.07189 -10.07155  -8.01976
 Alpha  occ. eigenvalues --   -7.84458  -5.98282  -5.98230  -5.98052  -5.80751
 Alpha  occ. eigenvalues --   -5.80382  -5.80064  -1.01477  -0.95572  -0.90469
 Alpha  occ. eigenvalues --   -0.83521  -0.81631  -0.77522  -0.69566  -0.68685
 Alpha  occ. eigenvalues --   -0.67265  -0.65002  -0.61503  -0.59415  -0.57973
 Alpha  occ. eigenvalues --   -0.54832  -0.53086  -0.52220  -0.49762  -0.45367
 Alpha  occ. eigenvalues --   -0.44688  -0.42693  -0.42156  -0.40769  -0.39828
 Alpha  occ. eigenvalues --   -0.37566  -0.37139  -0.35944  -0.35825  -0.35181
 Alpha  occ. eigenvalues --   -0.34736  -0.34105  -0.32835  -0.32520  -0.32111
 Alpha  occ. eigenvalues --   -0.30840  -0.29795  -0.29186  -0.28880  -0.28430
 Alpha  occ. eigenvalues --   -0.27935  -0.27256  -0.26056  -0.25688  -0.25362
 Alpha  occ. eigenvalues --   -0.24951  -0.24557  -0.24142  -0.22082  -0.20974
 Alpha  occ. eigenvalues --   -0.19965  -0.17906  -0.17183  -0.14799  -0.13826
 Alpha  occ. eigenvalues --   -0.12755   0.04091
 Alpha virt. eigenvalues --    0.05441   0.06201   0.07128   0.07751   0.08056
 Alpha virt. eigenvalues --    0.08585   0.09101   0.09550   0.09721   0.10564
 Alpha virt. eigenvalues --    0.10821   0.11179   0.11619   0.11783   0.11994

  Beta  occ. eigenvalues --  -88.95853 -88.75809 -19.03781 -19.01234 -19.01136
  Beta  occ. eigenvalues --  -14.24431 -14.20657 -10.13667 -10.13504 -10.12781
  Beta  occ. eigenvalues --  -10.10485 -10.09321 -10.08896 -10.08740 -10.08695
  Beta  occ. eigenvalues --  -10.08323 -10.07378 -10.07187 -10.07180  -8.01968
  Beta  occ. eigenvalues --   -7.84428  -5.98267  -5.98217  -5.98048  -5.80741
  Beta  occ. eigenvalues --   -5.80373  -5.79947  -1.01422  -0.95568  -0.90422
  Beta  occ. eigenvalues --   -0.83480  -0.81579  -0.77251  -0.69524  -0.68667
  Beta  occ. eigenvalues --   -0.66952  -0.64819  -0.61410  -0.59383  -0.57900
  Beta  occ. eigenvalues --   -0.54719  -0.53020  -0.52075  -0.49736  -0.45193
  Beta  occ. eigenvalues --   -0.44504  -0.42652  -0.42037  -0.40701  -0.39777
  Beta  occ. eigenvalues --   -0.37470  -0.37109  -0.35855  -0.35783  -0.35103
  Beta  occ. eigenvalues --   -0.34683  -0.34042  -0.32695  -0.32182  -0.32006
  Beta  occ. eigenvalues --   -0.30731  -0.29779  -0.29116  -0.28866  -0.28287
  Beta  occ. eigenvalues --   -0.27857  -0.27220  -0.25975  -0.25539  -0.25262
  Beta  occ. eigenvalues --   -0.24749  -0.24410  -0.24011  -0.22025  -0.20872
  Beta  occ. eigenvalues --   -0.19895  -0.17815  -0.17132  -0.14420  -0.13632
  Beta  occ. eigenvalues --   -0.11665
  Beta virt. eigenvalues --    0.06009   0.06345   0.07262   0.07850   0.08114
  Beta virt. eigenvalues --    0.08416   0.08951   0.09373   0.09699   0.10013
  Beta virt. eigenvalues --    0.10547   0.11015   0.11279   0.11621   0.11813

 Mulliken charges and spin densities:
               1          2
     1  C   -0.421758   0.020530
     2  C   -0.556680  -0.300659
     3  C   -0.197953   0.304183
     4  C    0.249656  -0.215322
     5  C    0.153615  -0.399737
     6  O   -0.072491   0.017155
     7  N   -0.127794  -0.024054
     8  S    0.387566   0.040455
     9  O   -0.113954   0.000018
    10  O   -0.132148   0.005672
    11  C   -1.055175   0.154694
    12  C    0.362606   0.046456
    13  S   -0.376188   0.060960
    14  C   -0.151677   0.494922
    15  C   -0.188939   0.376015
    16  C    0.353961  -0.993164
    17  N   -0.274177   0.167101
    18  C    0.670875  -1.021679
    19  C   -0.429144  -0.084071
    20  H    0.147399   0.009512
    21  H    0.166999   0.030878
    22  H    0.166544  -0.002734
    23  H    0.014111   0.135954
    24  H    0.159973  -0.093461
    25  H    0.132229   0.034204
    26  H   -0.111820   0.266483
    27  H    0.088282   0.047488
    28  H   -0.113883   0.280722
    29  H    0.224262   0.063599
    30  H    0.137005   0.049863
    31  H   -0.137293   0.313815
    32  H    0.148352  -0.004663
    33  H    0.142816   0.056550
    34  H   -0.279548   0.393012
    35  H   -0.140955   0.269467
    36  H   -0.265769   0.411539
    37  H    0.118591   0.007574
    38  H    0.155324   0.041835
    39  H    0.167180   0.038893
 Sum of Mulliken charges =  -1.00000   1.00000

 Dipole moment (field-independent basis, Debye):
    X=             -4.2456    Y=              1.2025    Z=              1.6801  Tot=              4.7216
 Quadrupole moment (field-independent basis, Debye-Ang):
   XX=           -223.4427   YY=           -176.8104   ZZ=           -153.2075
   XY=             -6.0304   XZ=              0.6278   YZ=             -4.2695

 Summary of Natural Population Analysis:

                                       Natural Population
                Natural  -----------------------------------------------
    Atom  No    Charge         Core      Valence    Rydberg      Total
 -----------------------------------------------------------------------
      C    1   -0.29303      0.99964     2.28676    0.00663     3.29303
      C    2    0.06934      0.99955     1.91512    0.01599     2.93066
      C    3   -0.03152      0.99955     2.01663    0.01534     3.03152
      C    4   -0.21024      0.99961     2.20204    0.00858     3.21024
      C    5   -0.00963      0.99960     1.99799    0.01204     3.00963
      O    6   -0.30723      0.99989     3.29888    0.00847     4.30723
      N    7   -0.43276      0.99973     2.92015    0.01288     3.93276
      S    8    1.11299      4.99914     1.78380    0.10407     6.88701
      O    9   -0.46872      0.99991     3.46370    0.00512     4.46872
      O   10   -0.46467      0.99991     3.45988    0.00488     4.46467
      C   11   -0.18849      0.99925     2.17343    0.01582     3.18849
      C   12   -0.00995      0.99944     1.99755    0.01295     3.00995
      S   13    0.22722      4.99938     2.75274    0.02066     7.77278
      C   14   -0.08425      0.99950     2.07217    0.01258     3.08425
      C   15   -0.12674      0.99941     2.11471    0.01262     3.12674
      C   16   -0.09955      0.99956     2.08716    0.01283     3.09955
      N   17   -0.33309      0.99975     2.82240    0.01094     3.83309
      C   18   -0.17506      0.99967     2.16868    0.00671     3.17506
      C   19   -0.30178      0.99962     2.29685    0.00532     3.30178
      H   20    0.09955      0.00000     0.39969    0.00076     0.40045
      H   21    0.10977      0.00000     0.38896    0.00127     0.39023
      H   22    0.10224      0.00000     0.39690    0.00085     0.39776
      H   23    0.07799      0.00000     0.42065    0.00136     0.42201
      H   24    0.10662      0.00000     0.39130    0.00208     0.39338
      H   25    0.11288      0.00000     0.38608    0.00104     0.38712
      H   26    0.09773      0.00000     0.40057    0.00170     0.40227
      H   27    0.08278      0.00000     0.41609    0.00112     0.41722
      H   28    0.08474      0.00000     0.41383    0.00144     0.41526
      H   29    0.19453      0.00000     0.30352    0.00195     0.30547
      H   30    0.11172      0.00000     0.38716    0.00113     0.38828
      H   31    0.10004      0.00000     0.39835    0.00161     0.39996
      H   32    0.08636      0.00000     0.41213    0.00151     0.41364
      H   33    0.17145      0.00000     0.32537    0.00318     0.32855
      H   34    0.07771      0.00000     0.41961    0.00268     0.42229
      H   35    0.09320      0.00000     0.40575    0.00105     0.40680
      H   36    0.09230      0.00000     0.40595    0.00174     0.40770
      H   37    0.09908      0.00000     0.40019    0.00073     0.40092
      H   38    0.11039      0.00000     0.38862    0.00098     0.38961
      H   39    0.11609      0.00000     0.38305    0.00086     0.38391
 =======================================================================
   * Total *   -0.00000     26.99210    53.67443    0.33348    81.00000

 Normal termination of Gaussian 16 at Sat Dec 12 11:30:31 2020.
