 Gaussian 16, Revision A.03,

 -----------------------------------------------------------
 # opt freq B3LYP/6-31G(d) empiricaldispersion=gd3bj scf=xqc
 -----------------------------------------------------------

 -------------------------------
 CID_102066265_JID_5440_neutraal
 -------------------------------
 Symbolic Z-matrix:
 Charge =  0 Multiplicity = 1

 SCF Done:  E(RB3LYP) =  -769.257792191     A.U. after   14 cycles
 SCF Done:  E(RB3LYP) =  -769.263812544     A.U. after   12 cycles
 SCF Done:  E(RB3LYP) =  -769.265018548     A.U. after   12 cycles
 SCF Done:  E(RB3LYP) =  -769.265166475     A.U. after   11 cycles
 SCF Done:  E(RB3LYP) =  -769.265970779     A.U. after   11 cycles
 SCF Done:  E(RB3LYP) =  -769.268153053     A.U. after   14 cycles
 SCF Done:  E(RB3LYP) =  -769.269239880     A.U. after   13 cycles
 SCF Done:  E(RB3LYP) =  -769.269857303     A.U. after   12 cycles
 SCF Done:  E(RB3LYP) =  -769.272249845     A.U. after   12 cycles
 SCF Done:  E(RB3LYP) =  -769.273050400     A.U. after   12 cycles
 SCF Done:  E(RB3LYP) =  -769.273437177     A.U. after    9 cycles
 SCF Done:  E(RB3LYP) =  -769.273439016     A.U. after    9 cycles
 SCF Done:  E(RB3LYP) =  -769.273439940     A.U. after    8 cycles
 SCF Done:  E(RB3LYP) =  -769.273440690     A.U. after    9 cycles
 SCF Done:  E(RB3LYP) =  -769.273440838     A.U. after    7 cycles
 SCF Done:  E(RB3LYP) =  -769.273440870     A.U. after    6 cycles
 Optimization completed.
    -- Stationary point found.
 Normal termination of Gaussian 16 at Thu Dec 10 16:15:21 2020.

 --------------------------------------------------------------------
 #N Geom=AllCheck Guess=TCheck SCRF=Check GenChk RB3LYP/6-31G(d) Freq
 --------------------------------------------------------------------

 Structure from the checkpoint file:  "JID_5440.chk"
 -------------------------------
 CID_102066265_JID_5440_neutraal
 -------------------------------
 Charge =  0 Multiplicity = 1

 SCF Done:  E(RB3LYP) =  -769.273440870     A.U. after    1 cycles

  Exact polarizability: 134.742  -5.400 114.998  -2.703  -0.264 117.304
 Approx polarizability: 168.854  -6.823 152.852  -8.127   2.147 167.311

                      1                      2                      3
                      A                      A                      A
 Frequencies --     19.3589                30.0803                34.3783
 Red. masses --      4.8303                 3.2889                 1.8786
 Frc consts  --      0.0011                 0.0018                 0.0013
 IR Inten    --      0.7072                 2.0957                 0.3545

                      4                      5                      6
                      A                      A                      A
 Frequencies --     47.8177                51.6364                63.9018
 Red. masses --      2.1296                 2.4482                 3.0246
 Frc consts  --      0.0029                 0.0038                 0.0073
 IR Inten    --      0.3442                 0.2953                 2.6339

                      7                      8                      9
                      A                      A                      A
 Frequencies --     67.1953                82.9461               106.1703
 Red. masses --      1.4776                 3.2140                 3.6097
 Frc consts  --      0.0039                 0.0130                 0.0240
 IR Inten    --      0.4605                 0.8410                 4.0085

                     10                     11                     12
                      A                      A                      A
 Frequencies --    142.1801               156.4834               179.0889
 Red. masses --      3.7041                 2.9112                 4.0285
 Frc consts  --      0.0441                 0.0420                 0.0761
 IR Inten    --      2.6024                 3.1938                 2.8059

                     13                     14                     15
                      A                      A                      A
 Frequencies --    225.0039               240.8611               243.5158
 Red. masses --      2.1612                 2.8206                 1.8547
 Frc consts  --      0.0645                 0.0964                 0.0648
 IR Inten    --      1.2392                 2.0380                 3.1903

                     16                     17                     18
                      A                      A                      A
 Frequencies --    263.2652               268.3680               313.9912
 Red. masses --      1.7489                 1.5714                 3.3994
 Frc consts  --      0.0714                 0.0667                 0.1975
 IR Inten    --      0.4950                 1.5641                 9.7314

                     19                     20                     21
                      A                      A                      A
 Frequencies --    317.1567               352.2287               353.5155
 Red. masses --      4.3320                 3.4277                 3.5519
 Frc consts  --      0.2567                 0.2506                 0.2615
 IR Inten    --      3.3150                 1.3935                13.9131

                     22                     23                     24
                      A                      A                      A
 Frequencies --    470.9192               481.6792               541.5057
 Red. masses --      3.5284                 3.8238                 3.5720
 Frc consts  --      0.4610                 0.5227                 0.6171
 IR Inten    --      0.8938                 5.9154                 6.5740

                     25                     26                     27
                      A                      A                      A
 Frequencies --    579.3975               601.3944               603.3373
 Red. masses --      2.1100                 2.7670                 1.5488
 Frc consts  --      0.4173                 0.5896                 0.3322
 IR Inten    --     27.0679                 5.5024               142.4606

                     28                     29                     30
                      A                      A                      A
 Frequencies --    646.2023               666.0548               830.2215
 Red. masses --      2.7164                 3.8584                 1.1142
 Frc consts  --      0.6683                 1.0085                 0.4525
 IR Inten    --      6.2242                 1.9892                 0.7756

                     31                     32                     33
                      A                      A                      A
 Frequencies --    831.9479               867.9064               908.6206
 Red. masses --      1.0965                 2.5603                 2.2915
 Frc consts  --      0.4472                 1.1363                 1.1146
 IR Inten    --      0.7484                 4.0365                11.7085

                     34                     35                     36
                      A                      A                      A
 Frequencies --    921.5372               932.8334               942.1473
 Red. masses --      2.4113                 2.4798                 1.8301
 Frc consts  --      1.2065                 1.2714                 0.9571
 IR Inten    --      9.4039                 7.5970                 2.1080

                     37                     38                     39
                      A                      A                      A
 Frequencies --    989.6835              1023.9681              1042.2029
 Red. masses --      2.7691                 2.8296                 2.7957
 Frc consts  --      1.5980                 1.7480                 1.7891
 IR Inten    --      6.4360                91.9428                 3.9917

                     40                     41                     42
                      A                      A                      A
 Frequencies --   1063.6971              1076.4256              1091.8575
 Red. masses --      3.0310                 1.7588                 4.0590
 Frc consts  --      2.0206                 1.2007                 2.8511
 IR Inten    --    151.4752                 7.1253                39.9908

                     43                     44                     45
                      A                      A                      A
 Frequencies --   1098.9153              1103.3646              1123.7298
 Red. masses --      2.5159                 5.0409                 2.7233
 Frc consts  --      1.7901                 3.6158                 2.0262
 IR Inten    --     97.6406               175.5453                96.1697

                     46                     47                     48
                      A                      A                      A
 Frequencies --   1144.0101              1157.1160              1169.5219
 Red. masses --      3.1128                 2.3469                 2.3581
 Frc consts  --      2.4003                 1.8514                 1.9004
 IR Inten    --     20.5215                19.2316                34.2338

                     49                     50                     51
                      A                      A                      A
 Frequencies --   1194.5971              1199.7625              1208.0099
 Red. masses --      2.0577                 1.5484                 2.1683
 Frc consts  --      1.7301                 1.3132                 1.8643
 IR Inten    --     79.1146                 8.3023               100.4954

                     52                     53                     54
                      A                      A                      A
 Frequencies --   1251.5518              1277.3805              1285.5772
 Red. masses --      1.2698                 1.2379                 3.0413
 Frc consts  --      1.1718                 1.1900                 2.9615
 IR Inten    --     13.0725                60.5939               371.2243

                     55                     56                     57
                      A                      A                      A
 Frequencies --   1304.9794              1307.4216              1319.4262
 Red. masses --      1.2153                 1.1174                 1.1138
 Frc consts  --      1.2194                 1.1253                 1.1424
 IR Inten    --     29.2830                 3.8158                 0.7214

                     58                     59                     60
                      A                      A                      A
 Frequencies --   1382.1577              1387.3203              1413.6120
 Red. masses --      1.1910                 1.2390                 1.3852
 Frc consts  --      1.3405                 1.4050                 1.6308
 IR Inten    --     11.7022                58.4910                16.4559

                     61                     62                     63
                      A                      A                      A
 Frequencies --   1415.2544              1417.9358              1433.5281
 Red. masses --      1.2565                 1.3098                 1.4123
 Frc consts  --      1.4828                 1.5516                 1.7100
 IR Inten    --      8.7861                24.6408                28.3279

                     64                     65                     66
                      A                      A                      A
 Frequencies --   1436.1727              1440.2962              1457.3758
 Red. masses --      1.2878                 1.3883                 1.4205
 Frc consts  --      1.5650                 1.6969                 1.7776
 IR Inten    --     20.2456                23.7163                 6.6112

                     67                     68                     69
                      A                      A                      A
 Frequencies --   1468.1890              1491.1424              1501.1725
 Red. masses --      1.3919                 1.2047                 1.0521
 Frc consts  --      1.7678                 1.5782                 1.3969
 IR Inten    --      3.0362                58.8344                10.3878

                     70                     71                     72
                      A                      A                      A
 Frequencies --   1505.9215              1514.9715              1516.9462
 Red. masses --      1.0465                 1.0405                 1.0449
 Frc consts  --      1.3983                 1.4070                 1.4167
 IR Inten    --      8.2267                 5.1852                 3.0682

                     73                     74                     75
                      A                      A                      A
 Frequencies --   1528.8501              1531.8822              1533.3427
 Red. masses --      1.0474                 1.0474                 1.0848
 Frc consts  --      1.4424                 1.4481                 1.5027
 IR Inten    --      2.3980                 2.5523                 8.6367

                     76                     77                     78
                      A                      A                      A
 Frequencies --   1542.7362              1553.7801              1558.9109
 Red. masses --      1.0898                 1.0890                 1.0918
 Frc consts  --      1.5282                 1.5490                 1.5633
 IR Inten    --      2.3268                 4.0694                 0.9034

                     79                     80                     81
                      A                      A                      A
 Frequencies --   1836.7051              2981.1563              3001.5629
 Red. masses --     11.0234                 1.0824                 1.0686
 Frc consts  --     21.9102                 5.6679                 5.6724
 IR Inten    --    237.3264                25.7904                37.4361

                     82                     83                     84
                      A                      A                      A
 Frequencies --   3009.4500              3020.9008              3050.4559
 Red. masses --      1.0610                 1.0663                 1.1018
 Frc consts  --      5.6616                 5.7334                 6.0404
 IR Inten    --     66.5981                36.7311                29.8567

                     85                     86                     87
                      A                      A                      A
 Frequencies --   3060.8916              3061.4377              3067.5415
 Red. masses --      1.0351                 1.0351                 1.0837
 Frc consts  --      5.7139                 5.7161                 6.0083
 IR Inten    --     18.5589                16.0693                21.8662

                     88                     89                     90
                      A                      A                      A
 Frequencies --   3071.3541              3078.0541              3079.9639
 Red. masses --      1.0373                 1.0943                 1.0684
 Frc consts  --      5.7652                 6.1085                 5.9712
 IR Inten    --      2.4223                26.6491                 9.8898

                     91                     92                     93
                      A                      A                      A
 Frequencies --   3089.3954              3132.7312              3133.2170
 Red. masses --      1.0924                 1.1026                 1.1023
 Frc consts  --      6.1432                 6.3755                 6.3759
 IR Inten    --     61.9018                24.0104                28.3162

                     94                     95                     96
                      A                      A                      A
 Frequencies --   3133.3732              3137.4874              3138.5244
 Red. masses --      1.1006                 1.1039                 1.1039
 Frc consts  --      6.3664                 6.4024                 6.4068
 IR Inten    --      6.5515                29.5966                29.4789

                     97                     98                     99
                      A                      A                      A
 Frequencies --   3144.6700              3184.4192              3670.7410
 Red. masses --      1.1036                 1.1031                 1.0651
 Frc consts  --      6.4300                 6.5903                 8.4558
 IR Inten    --     19.3457                 8.3288               131.1343

 - Thermochemistry -
 -------------------
 Temperature   298.150 Kelvin.  Pressure   1.00000 Atm.
 Atom     1 has atomic number  6 and mass  12.00000

 Molecular mass:   220.13107 amu.
 Principal axes and moments of inertia in atomic units:
                           1         2         3
     Eigenvalues --  2701.778515428.808476003.30174
           X            0.99999  -0.00279  -0.00407
           Y            0.00295   0.99920   0.03994
           Z            0.00395  -0.03995   0.99919
 This molecule is an asymmetric top.
 Rotational symmetry number  1.
 Warning -- assumption of classical behavior for rotation
           may cause significant error
 Rotational temperatures (Kelvin)      0.03206     0.01595     0.01443
 Rotational constants (GHZ):           0.66798     0.33244     0.30062
 Zero-point vibrational energy     801100.7 (Joules/Mol)
                                  191.46766 (Kcal/Mol)
 Warning -- explicit consideration of  27 degrees of freedom as
           vibrations may cause significant error
 Vibrational temperatures:     27.85    43.28    49.46    68.80    74.29
          (Kelvin)             91.94    96.68   119.34   152.76   204.57
                              225.14   257.67   323.73   346.55   350.36
                              378.78   386.12   451.76   456.32   506.78
                              508.63   677.55   693.03   779.11   833.62
                              865.27   868.07   929.74   958.30  1194.50
                             1196.99  1248.72  1307.30  1325.89  1342.14
                             1355.54  1423.93  1473.26  1499.50  1530.42
                             1548.74  1570.94  1581.09  1587.50  1616.80
                             1645.98  1664.83  1682.68  1718.76  1726.19
                             1738.06  1800.70  1837.87  1849.66  1877.57
                             1881.09  1898.36  1988.62  1996.04  2033.87
                             2036.24  2040.09  2062.53  2066.33  2072.26
                             2096.84  2112.40  2145.42  2159.85  2166.69
                             2179.71  2182.55  2199.67  2204.04  2206.14
                             2219.65  2235.54  2242.93  2642.61  4289.22
                             4318.58  4329.93  4346.40  4388.93  4403.94
                             4404.73  4413.51  4418.99  4428.63  4431.38
                             4444.95  4507.30  4508.00  4508.23  4514.14
                             4515.64  4524.48  4581.67  5281.38

 Zero-point correction=                           0.305123 (Hartree/Particle)
 Thermal correction to Energy=                    0.323601
 Thermal correction to Enthalpy=                  0.324545
 Thermal correction to Gibbs Free Energy=         0.255032
 Sum of electronic and zero-point Energies=           -768.968318
 Sum of electronic and thermal Energies=              -768.949840
 Sum of electronic and thermal Enthalpies=            -768.948896
 Sum of electronic and thermal Free Energies=         -769.018409

                     E (Thermal)             CV                S
                      KCal/Mol        Cal/Mol-Kelvin    Cal/Mol-Kelvin
 Total                  203.062             63.757            146.302
 Electronic               0.000              0.000              0.000
 Translational            0.889              2.981             42.070
 Rotational               0.889              2.981             32.843
 Vibrational            201.285             57.796             71.389
 Vibration     1          0.593              1.986              6.699
 Vibration     2          0.594              1.984              5.824
 Vibration     3          0.594              1.983              5.559
 Vibration     4          0.595              1.978              4.906
 Vibration     5          0.596              1.977              4.754
 Vibration     6          0.597              1.972              4.333
 Vibration     7          0.598              1.970              4.234
 Vibration     8          0.600              1.961              3.820
 Vibration     9          0.605              1.944              3.338
 Vibration    10          0.616              1.911              2.774
 Vibration    11          0.620              1.895              2.592
 Vibration    12          0.629              1.868              2.338
 Vibration    13          0.650              1.803              1.918
 Vibration    14          0.658              1.778              1.797
 Vibration    15          0.659              1.773              1.777
 Vibration    16          0.670              1.740              1.640
 Vibration    17          0.673              1.731              1.607
 Vibration    18          0.702              1.647              1.341
 Vibration    19          0.704              1.641              1.325
 Vibration    20          0.729              1.571              1.156
 Vibration    21          0.730              1.568              1.150
 Vibration    22          0.828              1.315              0.735
 Vibration    23          0.838              1.291              0.706
 Vibration    24          0.897              1.158              0.562
 Vibration    25          0.936              1.076              0.486
 Vibration    26          0.960              1.029              0.447
 Vibration    27          0.962              1.025              0.444

                           ! Non-Optimized Parameters !
 Normal termination of Gaussian 16 at Thu Dec 10 16:26:24 2020.

 ----------------------------------------------------------------------
 # B3LYP/6-311++G(d,p) empiricaldispersion=gd3bj scf=xqc pop=npa geom=c
 heck
 ----------------------------------------------------------------------

 ---------------------------------------
 CID_102066265_JID_5440_Energie_neutraal
 ---------------------------------------
 Structure from the checkpoint file:  "JID_5440.chk"
 Charge =  0 Multiplicity = 1

 SCF Done:  E(RB3LYP) =  -769.513587974     A.U. after   15 cycles
 Normal termination of Gaussian 16 at Thu Dec 10 16:31:38 2020.

 ----------------------------------------------------------------------
 # B3LYP/6-311++G(d,p) empiricaldispersion=gd3bj scf=xqc pop=npa geom=c
 heck
 ----------------------------------------------------------------------

 -------------------------------------
 CID_102066265_JID_5440_Energie_kation
 -------------------------------------
 Structure from the checkpoint file:  "JID_5440.chk"
 Charge =  1 Multiplicity = 2

 SCF Done:  E(UB3LYP) =  -769.178599373     A.U. after   32 cycles
 Normal termination of Gaussian 16 at Thu Dec 10 16:45:44 2020.
 Gaussian 16:  ES64L-G16RevA.03 25-Dec-2016

 ----------------------------------------------------------------------
 # B3LYP/6-311++G(d,p) empiricaldispersion=gd3bj scf=xqc pop=npa geom=c
 heck
 ----------------------------------------------------------------------

 ------------------------------------
 CID_102066265_JID_5440_Energie_anion
 ------------------------------------
 Structure from the checkpoint file:  "JID_5440.chk"
 Charge = -1 Multiplicity = 2

                         Standard orientation:
 ---------------------------------------------------------------------
 Center     Atomic      Atomic             Coordinates (Angstroms)
 Number     Number       Type             X           Y           Z
 ---------------------------------------------------------------------
      1          6           0        3.888012   -0.868573   -1.727656
      2          6           0        2.390930   -0.944475   -1.489197
      3          8           0        2.065694   -0.035600   -0.438510
      4          6           0        0.663320    0.136579   -0.201389
      5          6           0        0.075971   -0.993950    0.658775
      6          6           0        0.819363   -1.138455    1.999189
      7          8           0        2.156873   -1.576256    1.833451
      8          6           0       -1.411214   -0.767539    0.893155
      9          8           0       -2.059474   -0.732885   -0.398581
     10          6           0       -3.374420   -0.411669   -0.387284
     11          8           0       -3.999002   -0.182308    0.623788
     12          6           0       -3.928489   -0.384217   -1.791818
     13          8           0        0.493037    1.330552    0.487687
     14          6           0        0.805664    2.502666   -0.266634
     15          6           0        0.468453    3.709118    0.589022
     16          1           0        4.177065   -1.538677   -2.544172
     17          1           0        4.436734   -1.166901   -0.828433
     18          1           0        4.183822    0.152008   -1.990125
     19          1           0        1.832550   -0.667285   -2.396537
     20          1           0        2.097030   -1.966374   -1.212796
     21          1           0        0.156644    0.176702   -1.180579
     22          1           0        0.200501   -1.933196    0.106162
     23          1           0        0.770780   -0.183922    2.544037
     24          1           0        0.318448   -1.896307    2.611797
     25          1           0        2.559338   -0.934991    1.220424
     26          1           0       -1.848484   -1.577272    1.486066
     27          1           0       -1.596309    0.176264    1.410103
     28          1           0       -3.787893   -1.358438   -2.270998
     29          1           0       -4.989453   -0.135582   -1.758988
     30          1           0       -3.390956    0.356584   -2.392845
     31          1           0        1.866929    2.491254   -0.540708
     32          1           0        0.216779    2.501063   -1.197921
     33          1           0        1.054453    3.697072    1.513361
     34          1           0        0.692827    4.634236    0.047401
     35          1           0       -0.593361    3.708827    0.855072
 ---------------------------------------------------------------------

 SCF Done:  E(UB3LYP) =  -769.503103763     A.U. after   31 cycles

 The electronic state is 2-A.
 Alpha  occ. eigenvalues --  -19.07719 -19.04583 -19.04403 -19.02401 -19.02193
 Alpha  occ. eigenvalues --  -10.21275 -10.18229 -10.13995 -10.13009 -10.12933
 Alpha  occ. eigenvalues --  -10.12472 -10.09442 -10.08225 -10.07513 -10.07449
 Alpha  occ. eigenvalues --   -1.01743  -0.99061  -0.93382  -0.93157  -0.92445
 Alpha  occ. eigenvalues --   -0.72840  -0.68245  -0.66322  -0.65729  -0.59265
 Alpha  occ. eigenvalues --   -0.58182  -0.53462  -0.52777  -0.50064  -0.48010
 Alpha  occ. eigenvalues --   -0.43965  -0.43577  -0.41439  -0.40166  -0.39855
 Alpha  occ. eigenvalues --   -0.39100  -0.38014  -0.37393  -0.36626  -0.34181
 Alpha  occ. eigenvalues --   -0.33609  -0.32953  -0.31829  -0.31041  -0.30591
 Alpha  occ. eigenvalues --   -0.30344  -0.29634  -0.28894  -0.28503  -0.27737
 Alpha  occ. eigenvalues --   -0.27141  -0.26501  -0.25444  -0.23954  -0.23868
 Alpha  occ. eigenvalues --   -0.22054  -0.19433  -0.18970  -0.18482  -0.17606
 Alpha  occ. eigenvalues --    0.04129
 Alpha virt. eigenvalues --    0.06376   0.06589   0.07439   0.08380   0.08584
 Alpha virt. eigenvalues --    0.08982   0.09511   0.09746   0.09941   0.10523
 Alpha virt. eigenvalues --    0.10991   0.11892   0.12067   0.12405   0.12618

  Beta  occ. eigenvalues --  -19.07709 -19.04572 -19.04397 -19.02399 -19.02188
  Beta  occ. eigenvalues --  -10.21274 -10.18218 -10.13990 -10.12985 -10.12932
  Beta  occ. eigenvalues --  -10.12446 -10.09439 -10.08169 -10.07486 -10.07432
  Beta  occ. eigenvalues --   -1.01729  -0.99047  -0.93372  -0.93144  -0.92435
  Beta  occ. eigenvalues --   -0.72823  -0.68212  -0.66283  -0.65681  -0.59233
  Beta  occ. eigenvalues --   -0.58155  -0.53397  -0.52719  -0.50035  -0.47980
  Beta  occ. eigenvalues --   -0.43931  -0.43541  -0.41414  -0.40126  -0.39842
  Beta  occ. eigenvalues --   -0.39080  -0.37992  -0.37368  -0.36598  -0.34160
  Beta  occ. eigenvalues --   -0.33579  -0.32921  -0.31784  -0.31004  -0.30563
  Beta  occ. eigenvalues --   -0.30312  -0.29597  -0.28863  -0.28474  -0.27710
  Beta  occ. eigenvalues --   -0.27114  -0.26471  -0.25406  -0.23918  -0.23832
  Beta  occ. eigenvalues --   -0.22047  -0.19419  -0.18952  -0.18472  -0.17592
  Beta virt. eigenvalues --    0.06404   0.07098   0.07120   0.07715   0.08833
  Beta virt. eigenvalues --    0.08909   0.09323   0.09739   0.09966   0.10329
  Beta virt. eigenvalues --    0.10821   0.11350   0.12055   0.12385   0.12679

 Mulliken charges and spin densities:
               1          2
     1  C    0.922992  -1.468162
     2  C   -0.098562   0.018991
     3  O   -0.154340   0.013888
     4  C   -1.225897   0.599060
     5  C   -0.242852   0.461540
     6  C   -0.353734  -0.069299
     7  O   -0.215625   0.006418
     8  C    0.103491  -0.906039
     9  O    0.018996   0.029773
    10  C   -0.451328   0.753837
    11  O   -0.281530  -0.000630
    12  C    1.313275  -1.928617
    13  O    0.004477   0.028394
    14  C    0.302795  -0.155695
    15  C    0.091371  -0.682436
    16  H   -0.222576   0.367186
    17  H    0.000731   0.127449
    18  H   -0.141461   0.295200
    19  H   -0.643190   0.801013
    20  H   -0.002966   0.172110
    21  H    0.844988  -0.538324
    22  H   -0.025172   0.263718
    23  H    0.193582  -0.012077
    24  H    0.105371   0.055177
    25  H    0.261003  -0.016455
    26  H    0.083592   0.106374
    27  H    0.256344  -0.008141
    28  H   -0.393982   0.571246
    29  H   -0.109599   0.271548
    30  H   -0.548052   0.734376
    31  H    0.070824   0.077882
    32  H   -0.390254   0.538232
    33  H    0.077116   0.056041
    34  H   -0.172977   0.314887
    35  H    0.023149   0.121538
 Sum of Mulliken charges =  -1.00000   1.00000

 Dipole moment (field-independent basis, Debye):
    X=              1.8211    Y=             -0.5480    Z=              6.3525  Tot=              6.6311
 Quadrupole moment (field-independent basis, Debye-Ang):
   XX=           -165.8528   YY=           -136.9845   ZZ=           -144.9021
   XY=              4.4162   XZ=             -1.8712   YZ=              2.3288

 Summary of Natural Population Analysis:

                                       Natural Population
                Natural  -----------------------------------------------
    Atom  No    Charge         Core      Valence    Rydberg      Total
 -----------------------------------------------------------------------
      C    1   -0.29235      0.99966     2.28675    0.00594     3.29235
      C    2   -0.01297      0.99959     2.00187    0.01151     3.01297
      O    3   -0.31971      0.99987     3.31013    0.00971     4.31971
      C    4    0.22621      0.99953     1.75423    0.02003     2.77379
      C    5   -0.15141      0.99956     2.13970    0.01215     3.15141
      C    6   -0.00691      0.99957     1.99531    0.01204     3.00691
      O    7   -0.37719      0.99990     3.37029    0.00701     4.37719
      C    8   -0.01332      0.99952     2.00094    0.01286     3.01332
      O    9   -0.28501      0.99986     3.27566    0.00949     4.28501
      C   10    0.41146      0.99971     1.56478    0.02405     2.58854
      O   11   -0.30775      0.99987     3.30201    0.00587     4.30775
      C   12   -0.33296      0.99962     2.32801    0.00533     3.33296
      O   13   -0.30445      0.99986     3.29529    0.00930     4.30445
      C   14   -0.01136      0.99959     2.00033    0.01143     3.01136
      C   15   -0.29269      0.99966     2.28727    0.00576     3.29269
      H   16    0.10307      0.00000     0.39588    0.00105     0.39693
      H   17    0.09747      0.00000     0.40145    0.00108     0.40253
      H   18    0.10203      0.00000     0.39672    0.00125     0.39797
      H   19    0.08704      0.00000     0.41058    0.00238     0.41296
      H   20    0.08151      0.00000     0.41688    0.00161     0.41849
      H   21    0.08093      0.00000     0.41579    0.00328     0.41907
      H   22    0.10618      0.00000     0.39164    0.00219     0.39382
      H   23    0.08249      0.00000     0.41612    0.00139     0.41751
      H   24    0.08353      0.00000     0.41530    0.00117     0.41647
      H   25    0.23827      0.00000     0.25837    0.00336     0.26173
      H   26    0.09162      0.00000     0.40735    0.00104     0.40838
      H   27    0.10145      0.00000     0.39733    0.00122     0.39855
      H   28    0.11552      0.00000     0.38272    0.00176     0.38448
      H   29    0.10876      0.00000     0.39035    0.00090     0.39124
      H   30    0.11955      0.00000     0.37793    0.00252     0.38045
      H   31    0.08669      0.00000     0.41162    0.00169     0.41331
      H   32    0.08429      0.00000     0.41353    0.00219     0.41571
      H   33    0.09795      0.00000     0.40109    0.00096     0.40205
      H   34    0.10140      0.00000     0.39778    0.00082     0.39860
      H   35    0.10070      0.00000     0.39825    0.00105     0.39930
 =======================================================================
   * Total *    0.00000     14.99537    44.80925    0.19538    60.00000

 Normal termination of Gaussian 16 at Thu Dec 10 16:59:52 2020.
