 Gaussian 16, Revision A.03,

 -----------------------------------------------------------
 # opt freq B3LYP/6-31G(d) empiricaldispersion=gd3bj scf=xqc
 -----------------------------------------------------------

 -------------------------------
 CID_104841011_JID_3614_neutraal
 -------------------------------
 Symbolic Z-matrix:
 Charge =  0 Multiplicity = 1

 SCF Done:  E(RB3LYP) =  -899.652346236     A.U. after   14 cycles
 SCF Done:  E(RB3LYP) =  -899.656517210     A.U. after   12 cycles
 SCF Done:  E(RB3LYP) =  -899.657080524     A.U. after   12 cycles
 SCF Done:  E(RB3LYP) =  -899.657449169     A.U. after   12 cycles
 SCF Done:  E(RB3LYP) =  -899.657669453     A.U. after   11 cycles
 SCF Done:  E(RB3LYP) =  -899.657863157     A.U. after   12 cycles
 SCF Done:  E(RB3LYP) =  -899.658028002     A.U. after   11 cycles
 SCF Done:  E(RB3LYP) =  -899.658344890     A.U. after   12 cycles
 SCF Done:  E(RB3LYP) =  -899.658452785     A.U. after   12 cycles
 SCF Done:  E(RB3LYP) =  -899.658476599     A.U. after   11 cycles
 SCF Done:  E(RB3LYP) =  -899.658928062     A.U. after   10 cycles
 SCF Done:  E(RB3LYP) =  -899.658954779     A.U. after   10 cycles
 SCF Done:  E(RB3LYP) =  -899.658957755     A.U. after   10 cycles
 SCF Done:  E(RB3LYP) =  -899.658957685     A.U. after    9 cycles
 SCF Done:  E(RB3LYP) =  -899.658958309     A.U. after    9 cycles
 SCF Done:  E(RB3LYP) =  -899.658958381     A.U. after    7 cycles
 Optimization completed.
    -- Stationary point found.
 Normal termination of Gaussian 16 at Sun Dec 13 20:07:14 2020.

 --------------------------------------------------------------------
 #N Geom=AllCheck Guess=TCheck SCRF=Check GenChk RB3LYP/6-31G(d) Freq
 --------------------------------------------------------------------

 Structure from the checkpoint file:  "JID_3614.chk"
 -------------------------------
 CID_104841011_JID_3614_neutraal
 -------------------------------
 Charge =  0 Multiplicity = 1

 SCF Done:  E(RB3LYP) =  -899.658958381     A.U. after    1 cycles

  Exact polarizability: 158.961   0.375 142.695   7.102  -2.883 100.483
 Approx polarizability: 219.317  -4.319 225.471  18.224 -14.053 152.440

                      1                      2                      3
                      A                      A                      A
 Frequencies --     22.6269                38.8739                50.4147
 Red. masses --      3.4999                 2.6354                 3.5954
 Frc consts  --      0.0011                 0.0023                 0.0054
 IR Inten    --      0.0466                 0.6751                 0.1819

                      4                      5                      6
                      A                      A                      A
 Frequencies --     68.7447                87.6157               124.9208
 Red. masses --      2.9021                 2.6037                 3.6145
 Frc consts  --      0.0081                 0.0118                 0.0332
 IR Inten    --      3.2052                 2.6510                 0.0821

                      7                      8                      9
                      A                      A                      A
 Frequencies --    149.9322               160.6763               201.5179
 Red. masses --      2.5118                 2.9739                 2.1793
 Frc consts  --      0.0333                 0.0452                 0.0521
 IR Inten    --      0.8606                 2.8637                 3.3463

                     10                     11                     12
                      A                      A                      A
 Frequencies --    214.0423               259.6943               274.8531
 Red. masses --      1.2835                 1.5286                 1.5959
 Frc consts  --      0.0346                 0.0607                 0.0710
 IR Inten    --      0.3507                 7.3453                15.8451

                     13                     14                     15
                      A                      A                      A
 Frequencies --    297.2863               320.2421               345.0791
 Red. masses --      2.0808                 1.5744                 2.2627
 Frc consts  --      0.1084                 0.0951                 0.1588
 IR Inten    --      4.9809                24.0148                11.3116

                     16                     17                     18
                      A                      A                      A
 Frequencies --    352.2053               405.6616               445.2778
 Red. masses --      2.4656                 3.5748                 2.5469
 Frc consts  --      0.1802                 0.3466                 0.2975
 IR Inten    --     13.3191                 1.6926                 0.9886

                     19                     20                     21
                      A                      A                      A
 Frequencies --    497.1925               538.1066               577.0313
 Red. masses --      4.4725                 4.0295                 4.2565
 Frc consts  --      0.6514                 0.6874                 0.8350
 IR Inten    --      0.3953                 2.9854                 2.1108

                     22                     23                     24
                      A                      A                      A
 Frequencies --    638.4133               652.5450               689.3664
 Red. masses --      3.7115                 3.5773                 5.7660
 Frc consts  --      0.8913                 0.8975                 1.6145
 IR Inten    --      1.7302                 5.9481                 1.3456

                     25                     26                     27
                      A                      A                      A
 Frequencies --    722.5710               764.7359               803.9388
 Red. masses --      5.1841                 1.2689                 1.2559
 Frc consts  --      1.5947                 0.4372                 0.4782
 IR Inten    --      0.7298                16.7872                 1.1355

                     28                     29                     30
                      A                      A                      A
 Frequencies --    819.3063               868.6524               886.1753
 Red. masses --      2.5630                 1.2780                 1.9088
 Frc consts  --      1.0137                 0.5682                 0.8832
 IR Inten    --      0.5301                98.6856                13.6950

                     31                     32                     33
                      A                      A                      A
 Frequencies --    906.6292               949.3326               982.0773
 Red. masses --      1.7888                 2.1392                 1.7474
 Frc consts  --      0.8663                 1.1359                 0.9930
 IR Inten    --     28.4292                 2.8321                 2.7597

                     34                     35                     36
                      A                      A                      A
 Frequencies --    989.7147              1048.9695              1058.2147
 Red. masses --      1.7140                 1.9467                 2.8334
 Frc consts  --      0.9892                 1.2620                 1.8694
 IR Inten    --      3.7339                 8.6758                19.8539

                     37                     38                     39
                      A                      A                      A
 Frequencies --   1063.7832              1088.7847              1108.0683
 Red. masses --      2.4935                 1.9209                 1.7571
 Frc consts  --      1.6625                 1.3416                 1.2711
 IR Inten    --      1.6807                 5.8198                 4.2726

                     40                     41                     42
                      A                      A                      A
 Frequencies --   1120.4043              1128.9072              1174.1260
 Red. masses --      1.6919                 1.8681                 1.9307
 Frc consts  --      1.2513                 1.4027                 1.5682
 IR Inten    --      2.2234                 5.2124                10.8370

                     43                     44                     45
                      A                      A                      A
 Frequencies --   1186.1158              1213.0205              1260.6565
 Red. masses --      1.7744                 2.0853                 1.5089
 Frc consts  --      1.4708                 1.8078                 1.4129
 IR Inten    --     20.8200                 3.5161                16.5906

                     46                     47                     48
                      A                      A                      A
 Frequencies --   1273.8019              1300.1425              1327.1230
 Red. masses --      1.3531                 1.3950                 1.2308
 Frc consts  --      1.2935                 1.3894                 1.2772
 IR Inten    --      2.7573                 3.2169                 4.4595

                     49                     50                     51
                      A                      A                      A
 Frequencies --   1333.3155              1348.8789              1365.2192
 Red. masses --      1.1496                 2.1328                 1.4640
 Frc consts  --      1.2041                 2.2864                 1.6076
 IR Inten    --      2.4979                 7.6472                 5.1418

                     52                     53                     54
                      A                      A                      A
 Frequencies --   1378.0698              1396.9711              1410.2520
 Red. masses --      1.8731                 1.3102                 1.4755
 Frc consts  --      2.0958                 1.5065                 1.7290
 IR Inten    --      1.3735                 4.7512                 4.4394

                     55                     56                     57
                      A                      A                      A
 Frequencies --   1431.6861              1435.8463              1443.1048
 Red. masses --      1.2467                 1.4398                 1.2674
 Frc consts  --      1.5056                 1.7490                 1.5550
 IR Inten    --      3.7592                28.9545                 7.9477

                     58                     59                     60
                      A                      A                      A
 Frequencies --   1506.2163              1511.4479              1515.3957
 Red. masses --      1.0831                 1.0882                 1.1176
 Frc consts  --      1.4477                 1.4646                 1.5122
 IR Inten    --      3.8805                 1.8094                 1.4475

                     61                     62                     63
                      A                      A                      A
 Frequencies --   1520.6607              1524.5250              1531.6589
 Red. masses --      1.0681                 1.0471                 1.0627
 Frc consts  --      1.4553                 1.4339                 1.4689
 IR Inten    --      3.3071                 6.7525                 4.8191

                     64                     65                     66
                      A                      A                      A
 Frequencies --   1532.5299              1538.2800              1550.4971
 Red. masses --      1.0798                 1.0964                 1.0532
 Frc consts  --      1.4942                 1.5285                 1.4917
 IR Inten    --      1.6250                 8.2505                 2.9843

                     67                     68                     69
                      A                      A                      A
 Frequencies --   1561.8390              1614.6727              1690.9669
 Red. masses --      5.7310                 8.0600                 1.0930
 Frc consts  --      8.2367                12.3810                 1.8413
 IR Inten    --     22.3282                24.3603                33.2902

                     70                     71                     72
                      A                      A                      A
 Frequencies --   2984.1128              3032.9090              3041.5437
 Red. masses --      1.0695                 1.0609                 1.0619
 Frc consts  --      5.6111                 5.7498                 5.7881
 IR Inten    --     60.6801                22.6156                32.3035

                     73                     74                     75
                      A                      A                      A
 Frequencies --   3042.5733              3042.6851              3050.5644
 Red. masses --      1.0507                 1.0796                 1.0594
 Frc consts  --      5.7307                 5.8890                 5.8084
 IR Inten    --     50.1421                16.0269                24.8147

                     76                     77                     78
                      A                      A                      A
 Frequencies --   3052.5534              3062.8221              3068.7838
 Red. masses --      1.0417                 1.0644                 1.1006
 Frc consts  --      5.7189                 5.8831                 6.1067
 IR Inten    --     31.4892                24.8099                20.1954

                     79                     80                     81
                      A                      A                      A
 Frequencies --   3079.6844              3096.6003              3105.3663
 Red. masses --      1.1016                 1.0967                 1.1005
 Frc consts  --      6.1559                 6.1960                 6.2529
 IR Inten    --     57.9590                16.7724                46.8985

                     82                     83                     84
                      A                      A                      A
 Frequencies --   3117.8480              3119.0561              3132.3441
 Red. masses --      1.1033                 1.0996                 1.1006
 Frc consts  --      6.3188                 6.3030                 6.3626
 IR Inten    --     41.4324                24.8157                26.2732

                     85                     86                     87
                      A                      A                      A
 Frequencies --   3138.7566              3470.6373              3561.0164
 Red. masses --      1.1020                 1.0494                 1.0934
 Frc consts  --      6.3964                 7.4477                 8.1693
 IR Inten    --     28.9633                 1.8215                 0.4814

 - Thermochemistry -
 -------------------
 Temperature   298.150 Kelvin.  Pressure   1.00000 Atm.
 Atom     1 has atomic number  6 and mass  12.00000

 Molecular mass:   198.11907 amu.
 Principal axes and moments of inertia in atomic units:
                           1         2         3
     Eigenvalues --  2019.019043658.312724810.54714
           X            0.99992   0.01297  -0.00035
           Y           -0.01296   0.99991   0.00468
           Z            0.00041  -0.00467   0.99999
 This molecule is an asymmetric top.
 Rotational symmetry number  1.
 Warning -- assumption of classical behavior for rotation
           may cause significant error
 Rotational temperatures (Kelvin)      0.04290     0.02368     0.01801
 Rotational constants (GHZ):           0.89387     0.49333     0.37516
 Zero-point vibrational energy     716559.9 (Joules/Mol)
                                  171.26193 (Kcal/Mol)
 Warning -- explicit consideration of  21 degrees of freedom as
           vibrations may cause significant error
 Vibrational temperatures:     32.56    55.93    72.54    98.91   126.06
          (Kelvin)            179.73   215.72   231.18   289.94   307.96
                              373.64   395.45   427.73   460.76   496.49
                              506.74   583.66   640.66   715.35   774.22
                              830.22   918.53   938.87   991.84  1039.62
                             1100.28  1156.69  1178.80  1249.80  1275.01
                             1304.44  1365.88  1412.99  1423.98  1509.23
                             1522.53  1530.55  1566.52  1594.26  1612.01
                             1624.25  1689.31  1706.56  1745.27  1813.80
                             1832.72  1870.62  1909.43  1918.34  1940.74
                             1964.25  1982.74  2009.93  2029.04  2059.88
                             2065.86  2076.31  2167.11  2174.64  2180.32
                             2187.89  2193.45  2203.72  2204.97  2213.24
                             2230.82  2247.14  2323.15  2432.92  4293.47
                             4363.68  4376.10  4377.58  4377.75  4389.08
                             4391.94  4406.72  4415.30  4430.98  4455.32
                             4467.93  4485.89  4487.63  4506.74  4515.97
                             4993.47  5123.51

 Zero-point correction=                           0.272923 (Hartree/Particle)
 Thermal correction to Energy=                    0.288017
 Thermal correction to Enthalpy=                  0.288961
 Thermal correction to Gibbs Free Energy=         0.229096
 Sum of electronic and zero-point Energies=           -899.386035
 Sum of electronic and thermal Energies=              -899.370941
 Sum of electronic and thermal Enthalpies=            -899.369997
 Sum of electronic and thermal Free Energies=         -899.429862

                     E (Thermal)             CV                S
                      KCal/Mol        Cal/Mol-Kelvin    Cal/Mol-Kelvin
 Total                  180.733             54.773            125.996
 Electronic               0.000              0.000              0.000
 Translational            0.889              2.981             41.756
 Rotational               0.889              2.981             31.941
 Vibrational            178.956             48.811             52.299
 Vibration     1          0.593              1.985              6.389
 Vibration     2          0.594              1.981              5.316
 Vibration     3          0.595              1.977              4.801
 Vibration     4          0.598              1.969              4.189
 Vibration     5          0.601              1.958              3.713
 Vibration     6          0.610              1.928              3.023
 Vibration     7          0.618              1.903              2.673
 Vibration     8          0.622              1.891              2.542
 Vibration     9          0.638              1.838              2.119
 Vibration    10          0.644              1.820              2.009
 Vibration    11          0.668              1.746              1.664
 Vibration    12          0.677              1.720              1.565
 Vibration    13          0.691              1.679              1.432
 Vibration    14          0.706              1.635              1.309
 Vibration    15          0.723              1.585              1.189
 Vibration    16          0.729              1.571              1.156
 Vibration    17          0.771              1.458              0.942
 Vibration    18          0.805              1.371              0.810
 Vibration    19          0.853              1.256              0.665
 Vibration    20          0.893              1.166              0.569
 Vibration    21          0.933              1.081              0.491

 Optimization completed.
    -- Stationary point found.
 Normal termination of Gaussian 16 at Sun Dec 13 20:15:11 2020.

 ----------------------------------------------------------------------
 # B3LYP/6-311++G(d,p) empiricaldispersion=gd3bj scf=xqc pop=npa geom=c
 heck
 ----------------------------------------------------------------------

 ---------------------------------------
 CID_104841011_JID_3614_Energie_neutraal
 ---------------------------------------
 Structure from the checkpoint file:  "JID_3614.chk"
 Charge =  0 Multiplicity = 1

 SCF Done:  E(RB3LYP) =  -899.828631017     A.U. after   15 cycles
 Normal termination of Gaussian 16 at Sun Dec 13 20:19:19 2020.

 ----------------------------------------------------------------------
 # B3LYP/6-311++G(d,p) empiricaldispersion=gd3bj scf=xqc pop=npa geom=c
 heck
 ----------------------------------------------------------------------

 -------------------------------------
 CID_104841011_JID_3614_Energie_kation
 -------------------------------------
 Structure from the checkpoint file:  "JID_3614.chk"
 Charge =  1 Multiplicity = 2

 SCF Done:  E(UB3LYP) =  -899.533450100     A.U. after   23 cycles
 Normal termination of Gaussian 16 at Sun Dec 13 20:28:26 2020.
 Gaussian 16:  ES64L-G16RevA.03 25-Dec-2016

 ----------------------------------------------------------------------
 # B3LYP/6-311++G(d,p) empiricaldispersion=gd3bj scf=xqc pop=npa geom=c
 heck
 ----------------------------------------------------------------------

 ------------------------------------
 CID_104841011_JID_3614_Energie_anion
 ------------------------------------
 Structure from the checkpoint file:  "JID_3614.chk"
 Charge = -1 Multiplicity = 2

                         Standard orientation:
 ---------------------------------------------------------------------
 Center     Atomic      Atomic             Coordinates (Angstroms)
 Number     Number       Type             X           Y           Z
 ---------------------------------------------------------------------
      1          6           0       -3.445352    1.203400    0.631561
      2          6           0       -2.861831   -0.082423    1.224129
      3          6           0       -2.864680   -1.274021    0.256967
      4          6           0       -2.100605   -1.026633   -1.062952
      5          6           0       -0.693422   -0.561916   -0.839369
      6          7           0       -0.318775    0.683050   -0.921879
      7          6           0        1.012570    0.848312   -0.574490
      8          6           0        1.668794   -0.299585   -0.213880
      9         16           0        0.570513   -1.661054   -0.307131
     10          6           0        3.098129   -0.515009    0.182192
     11          7           0        3.189277   -1.510713    1.256311
     12          6           0        1.567653    2.246053   -0.599342
     13          6           0        0.878966    3.155066    0.430176
     14          1           0       -2.811416    1.585654   -0.174364
     15          1           0       -3.520267    1.985845    1.395154
     16          1           0       -4.452178    1.034425    0.228296
     17          1           0       -1.833719    0.109942    1.556323
     18          1           0       -3.427761   -0.367803    2.120562
     19          1           0       -2.429097   -2.146955    0.760055
     20          1           0       -3.899385   -1.541691    0.003253
     21          1           0       -2.106952   -1.946806   -1.659167
     22          1           0       -2.601171   -0.252777   -1.652146
     23          1           0        3.667765   -0.910031   -0.670196
     24          1           0        3.542091    0.463845    0.428058
     25          1           0        4.165694   -1.686906    1.485240
     26          1           0        2.746829   -1.146417    2.098590
     27          1           0        2.648050    2.227308   -0.423052
     28          1           0        1.420226    2.661916   -1.604251
     29          1           0        1.054044    2.791358    1.449092
     30          1           0        1.255677    4.181681    0.362698
     31          1           0       -0.201491    3.168456    0.258971
 ---------------------------------------------------------------------

 SCF Done:  E(UB3LYP) =  -899.817452215     A.U. after   29 cycles

 The electronic state is 2-A.
 Alpha  occ. eigenvalues --  -88.75833 -14.19356 -14.18620 -10.11624 -10.09679
 Alpha  occ. eigenvalues --  -10.09059 -10.08750 -10.07557 -10.07469 -10.06971
 Alpha  occ. eigenvalues --  -10.06547 -10.06418 -10.05801  -7.84477  -5.80744
 Alpha  occ. eigenvalues --   -5.80393  -5.80091  -0.84847  -0.77967  -0.71118
 Alpha  occ. eigenvalues --   -0.68475  -0.68080  -0.64347  -0.60654  -0.56836
 Alpha  occ. eigenvalues --   -0.54963  -0.51178  -0.47829  -0.44647  -0.42489
 Alpha  occ. eigenvalues --   -0.39083  -0.37124  -0.36148  -0.35431  -0.34635
 Alpha  occ. eigenvalues --   -0.33826  -0.31999  -0.30990  -0.30378  -0.29558
 Alpha  occ. eigenvalues --   -0.28924  -0.28115  -0.27272  -0.26232  -0.25780
 Alpha  occ. eigenvalues --   -0.24947  -0.23345  -0.22947  -0.22903  -0.22894
 Alpha  occ. eigenvalues --   -0.16628  -0.16217  -0.13794  -0.12071   0.04394
 Alpha virt. eigenvalues --    0.06222   0.06995   0.07856   0.08548   0.08734
 Alpha virt. eigenvalues --    0.09038   0.09612   0.10131   0.10226   0.11031
 Alpha virt. eigenvalues --    0.11488   0.11997   0.12225   0.13309   0.13475

  Beta  occ. eigenvalues --  -88.75817 -14.19346 -14.18557 -10.11507 -10.09650
  Beta  occ. eigenvalues --  -10.09040 -10.08719 -10.07556 -10.07463 -10.06943
  Beta  occ. eigenvalues --  -10.06537 -10.06410 -10.05790  -7.84461  -5.80735
  Beta  occ. eigenvalues --   -5.80384  -5.80050  -0.84756  -0.77850  -0.71052
  Beta  occ. eigenvalues --   -0.68441  -0.67999  -0.64290  -0.60580  -0.56735
  Beta  occ. eigenvalues --   -0.54918  -0.51121  -0.47754  -0.44570  -0.42402
  Beta  occ. eigenvalues --   -0.39000  -0.37054  -0.36113  -0.35375  -0.34599
  Beta  occ. eigenvalues --   -0.33720  -0.31954  -0.30884  -0.30314  -0.29503
  Beta  occ. eigenvalues --   -0.28864  -0.28074  -0.27198  -0.26149  -0.25709
  Beta  occ. eigenvalues --   -0.24914  -0.23304  -0.22898  -0.22875  -0.22855
  Beta  occ. eigenvalues --   -0.16460  -0.16171  -0.13702  -0.11760
  Beta virt. eigenvalues --    0.06543   0.07159   0.07558   0.08204   0.08801
  Beta virt. eigenvalues --    0.09170   0.09460   0.09880   0.10362   0.10710
  Beta virt. eigenvalues --    0.11325   0.11790   0.12110   0.12361   0.13417

 Mulliken charges and spin densities:
               1          2
     1  C   -0.111694  -0.575396
     2  C   -0.228441   0.162505
     3  C    0.212986  -0.413055
     4  C    0.067930  -0.070872
     5  C   -0.362703   0.357459
     6  N    0.231283   0.020874
     7  C   -1.281510  -0.085916
     8  C    0.002381   1.693171
     9  S    0.307750  -0.814392
    10  C    1.982072  -2.325852
    11  N   -0.532862   0.183553
    12  C   -0.059622  -0.635358
    13  C   -0.246208  -0.333329
    14  H    0.114792   0.064531
    15  H    0.068776   0.045901
    16  H   -0.040166   0.163168
    17  H    0.097025   0.052703
    18  H   -0.115694   0.278505
    19  H    0.064527   0.062775
    20  H   -0.362070   0.522011
    21  H   -0.207160   0.399614
    22  H    0.091628   0.064353
    23  H   -0.329080   0.505693
    24  H   -0.482159   0.648931
    25  H   -0.290073   0.538650
    26  H   -0.054112   0.268380
    27  H    0.125853   0.001473
    28  H    0.099720   0.047268
    29  H   -0.014551   0.142933
    30  H    0.097039   0.026125
    31  H    0.154342   0.003595
 Sum of Mulliken charges =  -1.00000   1.00000

 Dipole moment (field-independent basis, Debye):
    X=             -3.6119    Y=              3.6242    Z=             -1.7869  Tot=              5.4197
 Quadrupole moment (field-independent basis, Debye-Ang):
   XX=           -172.5992   YY=           -124.5239   ZZ=           -117.9797
   XY=              5.9243   XZ=            -10.5119   YZ=              0.5848

 Summary of Natural Population Analysis:

                                       Natural Population
                Natural  -----------------------------------------------
    Atom  No    Charge         Core      Valence    Rydberg      Total
 -----------------------------------------------------------------------
      C    1   -0.29026      0.99966     2.28610    0.00450     3.29026
      C    2   -0.19434      0.99964     2.18626    0.00844     3.19434
      C    3   -0.18200      0.99962     2.17345    0.00892     3.18200
      C    4   -0.21724      0.99957     2.20689    0.01078     3.21724
      C    5    0.06054      0.99960     1.92203    0.01782     2.93946
      N    6   -0.25966      0.99963     2.74922    0.01081     3.75966
      C    7    0.06057      0.99941     1.92502    0.01499     2.93943
      C    8   -0.10532      0.99942     2.09305    0.01285     3.10532
      S    9    0.19839      4.99939     2.78453    0.01770     7.80161
      C   10   -0.10104      0.99957     2.08823    0.01324     3.10104
      N   11   -0.41962      0.99978     2.90879    0.01105     3.91962
      C   12   -0.19860      0.99960     2.19001    0.00899     3.19860
      C   13   -0.28098      0.99966     2.27726    0.00406     3.28098
      H   14    0.10618      0.00000     0.39245    0.00137     0.39382
      H   15    0.09546      0.00000     0.40371    0.00083     0.40454
      H   16    0.09182      0.00000     0.40707    0.00111     0.40818
      H   17    0.09937      0.00000     0.39926    0.00137     0.40063
      H   18    0.09350      0.00000     0.40554    0.00097     0.40650
      H   19    0.09761      0.00000     0.40127    0.00112     0.40239
      H   20    0.09548      0.00000     0.40282    0.00170     0.40452
      H   21    0.10707      0.00000     0.39169    0.00124     0.39293
      H   22    0.10901      0.00000     0.38952    0.00147     0.39099
      H   23    0.09783      0.00000     0.40027    0.00190     0.40217
      H   24    0.08937      0.00000     0.40788    0.00276     0.41063
      H   25    0.18005      0.00000     0.31334    0.00661     0.31995
      H   26    0.17475      0.00000     0.32263    0.00262     0.32525
      H   27    0.09968      0.00000     0.39875    0.00156     0.40032
      H   28    0.09992      0.00000     0.39891    0.00117     0.40008
      H   29    0.09760      0.00000     0.40109    0.00131     0.40240
      H   30    0.09194      0.00000     0.40726    0.00080     0.40806
      H   31    0.10293      0.00000     0.39575    0.00132     0.39707
 =======================================================================
   * Total *    0.00000     16.99456    36.83006    0.17538    54.00000

 Normal termination of Gaussian 16 at Sun Dec 13 20:39:48 2020.
