 Gaussian 16, Revision A.03,

 -----------------------------------------------------------
 # opt freq B3LYP/6-31G(d) empiricaldispersion=gd3bj scf=xqc
 -----------------------------------------------------------

 ------------------------------
 CID_21337399_JID_1732_neutraal
 ------------------------------
 Symbolic Z-matrix:
 Charge =  0 Multiplicity = 1

 SCF Done:  E(RB3LYP) =  -533.907458502     A.U. after   15 cycles
 SCF Done:  E(RB3LYP) =  -533.911804277     A.U. after   12 cycles
 SCF Done:  E(RB3LYP) =  -533.912577168     A.U. after   13 cycles
 SCF Done:  E(RB3LYP) =  -533.911775745     A.U. after   12 cycles
 SCF Done:  E(RB3LYP) =  -533.912809145     A.U. after   11 cycles
 SCF Done:  E(RB3LYP) =  -533.912848563     A.U. after   11 cycles
 SCF Done:  E(RB3LYP) =  -533.912847014     A.U. after   11 cycles
 SCF Done:  E(RB3LYP) =  -533.912849605     A.U. after    9 cycles
 SCF Done:  E(RB3LYP) =  -533.912850193     A.U. after    8 cycles
 Optimization completed.
    -- Stationary point found.
 Normal termination of Gaussian 16 at Tue Dec  8 20:55:43 2020.

 --------------------------------------------------------------------
 #N Geom=AllCheck Guess=TCheck SCRF=Check GenChk RB3LYP/6-31G(d) Freq
 --------------------------------------------------------------------

 Structure from the checkpoint file:  "JID_1732.chk"
 ------------------------------
 CID_21337399_JID_1732_neutraal
 ------------------------------
 Charge =  0 Multiplicity = 1

 SCF Done:  E(RB3LYP) =  -533.912850193     A.U. after    1 cycles

  Exact polarizability:  93.011  -1.202  82.768  -1.188  -5.875  87.207
 Approx polarizability: 114.830  -4.246 120.304   1.709 -20.302 140.269

                      1                      2                      3
                      A                      A                      A
 Frequencies --     47.5928                71.8587               111.0547
 Red. masses --      5.0476                 2.5973                 2.2888
 Frc consts  --      0.0067                 0.0079                 0.0166
 IR Inten    --      2.9836                 0.1450                 0.3883

                      4                      5                      6
                      A                      A                      A
 Frequencies --    124.9038               136.2207               139.0573
 Red. masses --      3.6912                 1.5771                 5.9124
 Frc consts  --      0.0339                 0.0172                 0.0674
 IR Inten    --      3.2185                 0.4409                 1.8639

                      7                      8                      9
                      A                      A                      A
 Frequencies --    215.9358               221.4870               232.2938
 Red. masses --      1.5314                 2.2503                 2.2143
 Frc consts  --      0.0421                 0.0650                 0.0704
 IR Inten    --      1.5137                 1.4799                 0.5959

                     10                     11                     12
                      A                      A                      A
 Frequencies --    247.9469               268.4626               309.2315
 Red. masses --      1.2959                 1.1477                 3.0701
 Frc consts  --      0.0469                 0.0487                 0.1730
 IR Inten    --      2.7264                40.3885                15.2526

                     13                     14                     15
                      A                      A                      A
 Frequencies --    330.9110               343.1109               362.0275
 Red. masses --      3.1505                 3.9408                 4.0776
 Frc consts  --      0.2033                 0.2733                 0.3149
 IR Inten    --      6.7812                22.7710                 5.2252

                     16                     17                     18
                      A                      A                      A
 Frequencies --    394.7157               458.3147               495.6873
 Red. masses --      3.0892                 3.5726                 8.7076
 Frc consts  --      0.2836                 0.4421                 1.2606
 IR Inten    --      1.6556                 4.7442                 2.6416

                     19                     20                     21
                      A                      A                      A
 Frequencies --    577.6362               645.0998               743.2866
 Red. masses --      4.5198                 3.7026                 7.2581
 Frc consts  --      0.8886                 0.9079                 2.3626
 IR Inten    --      3.1553                 0.9574                12.2628

                     22                     23                     24
                      A                      A                      A
 Frequencies --    809.6190               885.9659               925.9972
 Red. masses --      4.8284                 2.8052                 1.8133
 Frc consts  --      1.8647                 1.2973                 0.9161
 IR Inten    --     12.6775                26.7242                83.5685

                     25                     26                     27
                      A                      A                      A
 Frequencies --    954.1158               974.5176               978.6824
 Red. masses --      1.1780                 2.1089                 1.6759
 Frc consts  --      0.6318                 1.1800                 0.9458
 IR Inten    --      1.5948                30.1787                11.3901

                     28                     29                     30
                      A                      A                      A
 Frequencies --    994.8668              1062.4195              1109.4026
 Red. masses --      3.5111                 5.1927                 1.6214
 Frc consts  --      2.0475                 3.4533                 1.1758
 IR Inten    --     20.9797               158.8243                 2.4402

                     31                     32                     33
                      A                      A                      A
 Frequencies --   1165.0449              1183.9333              1188.8073
 Red. masses --      2.1764                 1.4704                 2.1755
 Frc consts  --      1.7405                 1.2144                 1.8115
 IR Inten    --     50.6068                 2.2344                16.0128

                     34                     35                     36
                      A                      A                      A
 Frequencies --   1218.8817              1221.9313              1298.7818
 Red. masses --      1.6548                 1.7577                 4.4725
 Frc consts  --      1.4485                 1.5462                 4.4450
 IR Inten    --      3.0112                 0.9487               249.0850

                     37                     38                     39
                      A                      A                      A
 Frequencies --   1336.4805              1365.6629              1391.2051
 Red. masses --      1.8668                 1.4195                 1.4768
 Frc consts  --      1.9646                 1.5598                 1.6840
 IR Inten    --     24.4158                 1.8738                15.0065

                     40                     41                     42
                      A                      A                      A
 Frequencies --   1429.5648              1453.7119              1491.2021
 Red. masses --      1.2484                 1.2341                 1.2145
 Frc consts  --      1.5031                 1.5366                 1.5912
 IR Inten    --      6.0756                 7.6682                 7.8327

                     43                     44                     45
                      A                      A                      A
 Frequencies --   1513.1565              1518.6186              1520.4866
 Red. masses --      1.0476                 1.0445                 1.0484
 Frc consts  --      1.4133                 1.4192                 1.4281
 IR Inten    --      8.0441                 2.7578                 5.1471

                     46                     47                     48
                      A                      A                      A
 Frequencies --   1520.8635              1536.9595              1544.9931
 Red. masses --      1.0481                 1.0437                 1.0516
 Frc consts  --      1.4283                 1.4525                 1.4789
 IR Inten    --      3.5353                 5.5463                10.0140

                     49                     50                     51
                      A                      A                      A
 Frequencies --   1691.4867              1813.8602              2231.0672
 Red. masses --      1.0894                11.6065                12.9848
 Frc consts  --      1.8365                22.4989                38.0812
 IR Inten    --     36.3458               178.1838               152.6309

                     52                     53                     54
                      A                      A                      A
 Frequencies --   3053.3820              3058.1039              3063.8187
 Red. masses --      1.0839                 1.0354                 1.0372
 Frc consts  --      5.9537                 5.7049                 5.7363
 IR Inten    --     10.1692                19.7474                19.5275

                     55                     56                     57
                      A                      A                      A
 Frequencies --   3082.2166              3124.5220              3126.6228
 Red. masses --      1.0296                 1.1026                 1.1021
 Frc consts  --      5.7629                 6.3422                 6.3480
 IR Inten    --     25.0013                 8.3601                33.7255

                     58                     59                     60
                      A                      A                      A
 Frequencies --   3133.1137              3159.6871              3160.1715
 Red. masses --      1.1023                 1.1077                 1.1009
 Frc consts  --      6.3753                 6.5159                 6.4774
 IR Inten    --     33.5059                14.6470                12.0242

                     61                     62                     63
                      A                      A                      A
 Frequencies --   3196.5194              3466.2664              3554.9698
 Red. masses --      1.1075                 1.0497                 1.0923
 Frc consts  --      6.6670                 7.4306                 8.1335
 IR Inten    --     11.0546                 2.8533                 4.8529

 - Thermochemistry -
 -------------------
 Temperature   298.150 Kelvin.  Pressure   1.00000 Atm.
 Atom     1 has atomic number  6 and mass  12.00000

 Molecular mass:   156.08988 amu.
 Principal axes and moments of inertia in atomic units:
                           1         2         3
     Eigenvalues --  1158.175222089.554052169.05289
           X            0.99945   0.03321  -0.00188
           Y           -0.02622   0.82137   0.56979
           Z            0.02047  -0.56943   0.82179
 This molecule is an asymmetric top.
 Rotational symmetry number  1.
 Warning -- assumption of classical behavior for rotation
           may cause significant error
 Rotational temperatures (Kelvin)      0.07478     0.04145     0.03993
 Rotational constants (GHZ):           1.55826     0.86370     0.83204
 Zero-point vibrational energy     502362.9 (Joules/Mol)
                                  120.06761 (Kcal/Mol)
 Warning -- explicit consideration of  19 degrees of freedom as
           vibrations may cause significant error
 Vibrational temperatures:     68.48   103.39   159.78   179.71   195.99
          (Kelvin)            200.07   310.68   318.67   334.22   356.74
                              386.26   444.92   476.11   493.66   520.88
                              567.91   659.41   713.18   831.09   928.15
                             1069.42  1164.86  1274.71  1332.30  1372.76
                             1402.11  1408.11  1431.39  1528.58  1596.18
                             1676.24  1703.42  1710.43  1753.70  1758.09
                             1868.66  1922.90  1964.88  2001.63  2056.82
                             2091.57  2145.51  2177.09  2184.95  2187.64
                             2188.18  2211.34  2222.90  2433.67  2609.74
                             3210.01  4393.14  4399.93  4408.15  4434.62
                             4495.49  4498.51  4507.85  4546.08  4546.78
                             4599.08  4987.18  5114.81

 Zero-point correction=                           0.191340 (Hartree/Particle)
 Thermal correction to Energy=                    0.204341
 Thermal correction to Enthalpy=                  0.205285
 Thermal correction to Gibbs Free Energy=         0.152489
 Sum of electronic and zero-point Energies=           -533.721510
 Sum of electronic and thermal Energies=              -533.708509
 Sum of electronic and thermal Enthalpies=            -533.707565
 Sum of electronic and thermal Free Energies=         -533.760361

                     E (Thermal)             CV                S
                      KCal/Mol        Cal/Mol-Kelvin    Cal/Mol-Kelvin
 Total                  128.226             45.895            111.119
 Electronic               0.000              0.000              0.000
 Translational            0.889              2.981             41.045
 Rotational               0.889              2.981             30.041
 Vibrational            126.449             39.933             40.033
 Vibration     1          0.595              1.978              4.915
 Vibration     2          0.598              1.967              4.102
 Vibration     3          0.607              1.940              3.250
 Vibration     4          0.610              1.928              3.023
 Vibration     5          0.614              1.917              2.856
 Vibration     6          0.615              1.914              2.817
 Vibration     7          0.645              1.817              1.993
 Vibration     8          0.648              1.808              1.947
 Vibration     9          0.653              1.792              1.861
 Vibration    10          0.662              1.766              1.745
 Vibration    11          0.673              1.731              1.606
 Vibration    12          0.699              1.656              1.366
 Vibration    13          0.713              1.614              1.256
 Vibration    14          0.722              1.589              1.198
 Vibration    15          0.736              1.550              1.113
 Vibration    16          0.762              1.481              0.982
 Vibration    17          0.816              1.343              0.771
 Vibration    18          0.851              1.260              0.669
 Vibration    19          0.934              1.080              0.490

                           ! Non-Optimized Parameters !
 Normal termination of Gaussian 16 at Tue Dec  8 21:01:22 2020.

 ----------------------------------------------------------------------
 # B3LYP/6-311++G(d,p) empiricaldispersion=gd3bj scf=xqc pop=npa geom=c
 heck
 ----------------------------------------------------------------------

 --------------------------------------
 CID_21337399_JID_1732_Energie_neutraal
 --------------------------------------
 Structure from the checkpoint file:  "JID_1732.chk"
 Charge =  0 Multiplicity = 1

 SCF Done:  E(RB3LYP) =  -534.075876993     A.U. after   15 cycles
 Normal termination of Gaussian 16 at Tue Dec  8 21:04:02 2020.

 ----------------------------------------------------------------------
 # B3LYP/6-311++G(d,p) empiricaldispersion=gd3bj scf=xqc pop=npa geom=c
 heck
 ----------------------------------------------------------------------

 ------------------------------------
 CID_21337399_JID_1732_Energie_kation
 ------------------------------------
 Structure from the checkpoint file:  "JID_1732.chk"
 Charge =  1 Multiplicity = 2

 SCF Done:  E(UB3LYP) =  -533.719997085     A.U. after   25 cycles
 Normal termination of Gaussian 16 at Tue Dec  8 21:09:41 2020.
 Gaussian 16:  ES64L-G16RevA.03 25-Dec-2016

 ----------------------------------------------------------------------
 # B3LYP/6-311++G(d,p) empiricaldispersion=gd3bj scf=xqc pop=npa geom=c
 heck
 ----------------------------------------------------------------------

 -----------------------------------
 CID_21337399_JID_1732_Energie_anion
 -----------------------------------
 Structure from the checkpoint file:  "JID_1732.chk"
 Charge = -1 Multiplicity = 2

                         Standard orientation:
 ---------------------------------------------------------------------
 Center     Atomic      Atomic             Coordinates (Angstroms)
 Number     Number       Type             X           Y           Z
 ---------------------------------------------------------------------
      1          6           0        0.812131    1.691820    1.077041
      2          6           0        1.302649    0.899600   -0.139552
      3          6           0        2.788863    0.553585   -0.021105
      4          6           0        0.448266   -0.385640   -0.383185
      5          6           0       -1.034894    0.046008   -0.495233
      6          8           0       -1.450006    0.594288   -1.494885
      7          8           0       -1.764241   -0.210625    0.592684
      8          6           0       -3.136222    0.225889    0.533585
      9          7           0        0.885374   -1.031476   -1.620882
     10          7           0        0.625510   -1.302239    0.691344
     11          6           0        0.795757   -2.023542    1.606344
     12          1           0        0.852049    1.077669    1.982979
     13          1           0       -0.214358    2.052652    0.954696
     14          1           0        1.453282    2.565186    1.232278
     15          1           0        1.143599    1.503783   -1.042181
     16          1           0        2.982374   -0.013380    0.895757
     17          1           0        3.120733   -0.044922   -0.871799
     18          1           0        3.380117    1.474543    0.019327
     19          1           0       -3.181222    1.309848    0.402976
     20          1           0       -3.651262   -0.258092   -0.299364
     21          1           0       -3.573977   -0.069410    1.486226
     22          1           0        0.410186   -1.928819   -1.713006
     23          1           0        0.556966   -0.448672   -2.390880
 ---------------------------------------------------------------------

 SCF Done:  E(UB3LYP) =  -534.063525071     A.U. after   31 cycles

 The electronic state is 2-A.
 Alpha  occ. eigenvalues --  -19.07731 -19.01903 -14.25083 -14.21208 -10.20685
 Alpha  occ. eigenvalues --  -10.18534 -10.12134 -10.11377 -10.09432 -10.06451
 Alpha  occ. eigenvalues --  -10.06084  -1.01943  -0.93068  -0.87886  -0.79934
 Alpha  occ. eigenvalues --   -0.71061  -0.65588  -0.61279  -0.59195  -0.52497
 Alpha  occ. eigenvalues --   -0.49276  -0.44897  -0.41297  -0.40455  -0.38731
 Alpha  occ. eigenvalues --   -0.37869  -0.36400  -0.34374  -0.33614  -0.30682
 Alpha  occ. eigenvalues --   -0.29588  -0.29051  -0.27853  -0.26866  -0.26270
 Alpha  occ. eigenvalues --   -0.24981  -0.24945  -0.23636  -0.21780  -0.21536
 Alpha  occ. eigenvalues --   -0.19217  -0.16655   0.04527
 Alpha virt. eigenvalues --    0.06837   0.07296   0.08776   0.09146   0.09339
 Alpha virt. eigenvalues --    0.09934   0.10040   0.10350   0.11186   0.11996
 Alpha virt. eigenvalues --    0.12355   0.13163   0.13403   0.14124   0.15469

  Beta  occ. eigenvalues --  -19.07712 -19.01852 -14.25082 -14.21160 -10.20640
  Beta  occ. eigenvalues --  -10.18534 -10.12068 -10.11357 -10.09417 -10.06428
  Beta  occ. eigenvalues --  -10.06063  -1.01880  -0.92993  -0.87858  -0.79870
  Beta  occ. eigenvalues --   -0.71007  -0.65507  -0.61204  -0.59147  -0.52455
  Beta  occ. eigenvalues --   -0.49160  -0.44844  -0.41236  -0.40367  -0.38632
  Beta  occ. eigenvalues --   -0.37797  -0.36337  -0.34330  -0.33554  -0.30616
  Beta  occ. eigenvalues --   -0.29488  -0.29010  -0.27805  -0.26811  -0.26234
  Beta  occ. eigenvalues --   -0.24944  -0.24901  -0.23597  -0.21716  -0.21410
  Beta  occ. eigenvalues --   -0.19164  -0.16600
  Beta virt. eigenvalues --    0.06978   0.07901   0.08220   0.09133   0.09546
  Beta virt. eigenvalues --    0.09724   0.10254   0.10572   0.11063   0.11804
  Beta virt. eigenvalues --    0.12391   0.12777   0.13439   0.13737   0.14260

 Mulliken charges and spin densities:
               1          2
     1  C    0.383976  -1.095347
     2  C   -0.865034   1.278178
     3  C    0.398155  -0.888687
     4  C    2.185728  -2.822680
     5  C   -1.750911   1.427491
     6  O   -0.267872   0.062074
     7  O   -0.093025   0.076020
     8  C    1.484648  -1.706471
     9  N   -0.400776   0.173640
    10  N    0.365239   0.047718
    11  C   -0.009557  -0.166194
    12  H   -0.009817   0.171138
    13  H   -0.066331   0.227191
    14  H   -0.187066   0.346841
    15  H   -0.290667   0.490053
    16  H    0.107619   0.035731
    17  H    0.068489   0.104235
    18  H   -0.230445   0.371525
    19  H   -0.470994   0.649008
    20  H   -0.577163   0.763063
    21  H   -0.562498   0.717975
    22  H   -0.160652   0.425093
    23  H   -0.051046   0.312404
 Sum of Mulliken charges =  -1.00000   1.00000

 Dipole moment (field-independent basis, Debye):
    X=              3.5257    Y=             -0.3455    Z=             -0.0151  Tot=              3.5426
 Quadrupole moment (field-independent basis, Debye-Ang):
   XX=           -125.3023   YY=           -106.5727   ZZ=           -104.0183
   XY=              0.4060   XZ=              2.0427   YZ=              1.8145

 Summary of Natural Population Analysis:

                                       Natural Population
                Natural  -----------------------------------------------
    Atom  No    Charge         Core      Valence    Rydberg      Total
 -----------------------------------------------------------------------
      C    1   -0.28989      0.99964     2.28296    0.00729     3.28989
      C    2   -0.10686      0.99958     2.09576    0.01152     3.10686
      C    3   -0.28987      0.99964     2.28310    0.00713     3.28987
      C    4    0.10255      0.99948     1.87842    0.01955     2.89745
      C    5    0.41361      0.99962     1.55899    0.02777     2.58639
      O    6   -0.30331      0.99987     3.29728    0.00615     4.30331
      O    7   -0.26884      0.99985     3.25890    0.01008     4.26884
      C    8   -0.10283      0.99959     2.09421    0.00903     3.10283
      N    9   -0.41072      0.99976     2.90013    0.01084     3.91072
      N   10   -0.26457      0.99958     2.74995    0.01504     3.76457
      C   11    0.13878      0.99977     1.85053    0.01092     2.86122
      H   12    0.10262      0.00000     0.39633    0.00105     0.39738
      H   13    0.10438      0.00000     0.39429    0.00133     0.39562
      H   14    0.10280      0.00000     0.39628    0.00092     0.39720
      H   15    0.10592      0.00000     0.39217    0.00190     0.39408
      H   16    0.09976      0.00000     0.39943    0.00081     0.40024
      H   17    0.11115      0.00000     0.38755    0.00130     0.38885
      H   18    0.10092      0.00000     0.39814    0.00093     0.39908
      H   19    0.09347      0.00000     0.40455    0.00198     0.40653
      H   20    0.09627      0.00000     0.40027    0.00346     0.40373
      H   21    0.09488      0.00000     0.40306    0.00206     0.40512
      H   22    0.18171      0.00000     0.31617    0.00212     0.31829
      H   23    0.18805      0.00000     0.30951    0.00244     0.31195
 =======================================================================
   * Total *    0.00000     10.99639    30.84801    0.15561    42.00000

 Normal termination of Gaussian 16 at Tue Dec  8 21:16:45 2020.
