 Gaussian 16, Revision A.03,

 -----------------------------------------------------------
 # opt freq B3LYP/6-31G(d) empiricaldispersion=gd3bj scf=xqc
 -----------------------------------------------------------

 -----------------------------
 CID_65278140_JID_128_neutraal
 -----------------------------
 Symbolic Z-matrix:
 Charge =  0 Multiplicity = 1

 SCF Done:  E(RB3LYP) =  -474.725714575     A.U. after   14 cycles
 SCF Done:  E(RB3LYP) =  -474.730839865     A.U. after   12 cycles
 SCF Done:  E(RB3LYP) =  -474.732534095     A.U. after   11 cycles
 SCF Done:  E(RB3LYP) =  -474.734130335     A.U. after   12 cycles
 SCF Done:  E(RB3LYP) =  -474.734645629     A.U. after   11 cycles
 SCF Done:  E(RB3LYP) =  -474.734808989     A.U. after   11 cycles
 SCF Done:  E(RB3LYP) =  -474.734875840     A.U. after   10 cycles
 SCF Done:  E(RB3LYP) =  -474.734890598     A.U. after    9 cycles
 SCF Done:  E(RB3LYP) =  -474.734892839     A.U. after    8 cycles
 SCF Done:  E(RB3LYP) =  -474.734893313     A.U. after    7 cycles
 SCF Done:  E(RB3LYP) =  -474.734893551     A.U. after    7 cycles
 Optimization completed.
    -- Stationary point found.
 Normal termination of Gaussian 16 at Tue Dec  8 10:17:38 2020.

 --------------------------------------------------------------------
 #N Geom=AllCheck Guess=TCheck SCRF=Check GenChk RB3LYP/6-31G(d) Freq
 --------------------------------------------------------------------

 Structure from the checkpoint file:  "JID_128.chk"
 -----------------------------
 CID_65278140_JID_128_neutraal
 -----------------------------
 Charge =  0 Multiplicity = 1

 SCF Done:  E(RB3LYP) =  -474.734893551     A.U. after    1 cycles

  Exact polarizability: 106.913   2.646  80.723  12.572  -5.381  60.783
 Approx polarizability: 144.993   2.817 134.941  26.610  -9.678  90.742

                      1                      2                      3
                      A                      A                      A
 Frequencies --     53.7287                82.6620               106.8935
 Red. masses --      3.7548                 4.8811                 3.0927
 Frc consts  --      0.0064                 0.0197                 0.0208
 IR Inten    --      4.0130                 0.5233                 4.8276

                      4                      5                      6
                      A                      A                      A
 Frequencies --    160.9189               238.9524               243.7799
 Red. masses --      1.0684                 1.7490                 2.1931
 Frc consts  --      0.0163                 0.0588                 0.0768
 IR Inten    --     30.5614                 2.2582                 3.7091

                      7                      8                      9
                      A                      A                      A
 Frequencies --    268.7062               342.9927               371.0702
 Red. masses --      2.6847                 4.6266                 2.5663
 Frc consts  --      0.1142                 0.3207                 0.2082
 IR Inten    --      2.1775                 2.1662                 1.5757

                     10                     11                     12
                      A                      A                      A
 Frequencies --    388.9210               432.5128               451.6677
 Red. masses --      1.1584                 2.3963                 2.2198
 Frc consts  --      0.1032                 0.2641                 0.2668
 IR Inten    --    125.6973                53.9826                20.5876

                     13                     14                     15
                      A                      A                      A
 Frequencies --    552.1984               630.8321               659.1162
 Red. masses --      3.7595                 4.3384                 3.2367
 Frc consts  --      0.6754                 1.0172                 0.8285
 IR Inten    --     18.3457                 8.0420                46.3229

                     16                     17                     18
                      A                      A                      A
 Frequencies --    690.6550               725.1266               768.9405
 Red. masses --      3.8503                 1.2839                 3.0002
 Frc consts  --      1.0821                 0.3977                 1.0452
 IR Inten    --     34.1937                15.0002                33.5216

                     19                     20                     21
                      A                      A                      A
 Frequencies --    777.7141               826.7047               834.3334
 Red. masses --      1.6237                 1.4404                 2.6630
 Frc consts  --      0.5786                 0.5800                 1.0922
 IR Inten    --    162.3930                57.0034                 6.0694

                     22                     23                     24
                      A                      A                      A
 Frequencies --    925.5350               965.3200              1011.5109
 Red. masses --      1.8447                 2.0810                 3.5732
 Frc consts  --      0.9310                 1.1425                 2.1540
 IR Inten    --      1.9188                16.9009                12.2925

                     25                     26                     27
                      A                      A                      A
 Frequencies --   1044.6692              1060.1991              1105.6897
 Red. masses --      2.6851                 1.9894                 1.6846
 Frc consts  --      1.7265                 1.3175                 1.2134
 IR Inten    --     25.8551                24.2440                 6.1374

                     28                     29                     30
                      A                      A                      A
 Frequencies --   1118.7678              1132.6257              1206.8975
 Red. masses --      1.4431                 1.7349                 2.0712
 Frc consts  --      1.0642                 1.3113                 1.7775
 IR Inten    --      1.8075                51.2569                 7.9850

                     31                     32                     33
                      A                      A                      A
 Frequencies --   1226.6528              1267.7647              1318.4793
 Red. masses --      1.5934                 1.4777                 1.5747
 Frc consts  --      1.4126                 1.3993                 1.6128
 IR Inten    --     17.4028                12.7500                 1.9951

                     34                     35                     36
                      A                      A                      A
 Frequencies --   1364.2632              1400.8518              1403.1089
 Red. masses --      1.5396                 1.8729                 1.7382
 Frc consts  --      1.6883                 2.1654                 2.0162
 IR Inten    --      7.7760                 9.9372                17.3265

                     37                     38                     39
                      A                      A                      A
 Frequencies --   1417.0248              1437.6566              1446.2004
 Red. masses --      3.4693                 1.2258                 2.1825
 Frc consts  --      4.1044                 1.4927                 2.6895
 IR Inten    --     44.0563                14.5430                93.7557

                     40                     41                     42
                      A                      A                      A
 Frequencies --   1452.4030              1494.2300              1499.0528
 Red. masses --      1.7884                 1.4339                 2.1237
 Frc consts  --      2.2228                 1.8863                 2.8118
 IR Inten    --     50.5641                 4.7373                 1.6056

                     43                     44                     45
                      A                      A                      A
 Frequencies --   1520.8946              1524.8795              1644.0063
 Red. masses --      1.0585                 1.0513                 4.2512
 Frc consts  --      1.4426                 1.4402                 6.7698
 IR Inten    --      4.9513                 5.2067                36.8560

                     46                     47                     48
                      A                      A                      A
 Frequencies --   1696.3381              3057.8984              3065.9927
 Red. masses --      1.1915                 1.0353                 1.0836
 Frc consts  --      2.0201                 5.7037                 6.0016
 IR Inten    --     56.7271                12.7851                21.1758

                     49                     50                     51
                      A                      A                      A
 Frequencies --   3086.6603              3126.7188              3139.0583
 Red. masses --      1.0635                 1.1015                 1.1038
 Frc consts  --      5.9700                 6.3448                 6.4082
 IR Inten    --     47.9296                26.3125                25.4953

                     52                     53                     54
                      A                      A                      A
 Frequencies --   3146.5943              3250.6997              3279.5614
 Red. masses --      1.1051                 1.0957                 1.0970
 Frc consts  --      6.4465                 6.8215                 6.9517
 IR Inten    --     11.2063                 8.3355                 0.7617

                     55                     56                     57
                      A                      A                      A
 Frequencies --   3522.7998              3614.9494              3705.0513
 Red. masses --      1.0488                 1.0958                 1.0656
 Frc consts  --      7.6688                 8.4371                 8.6183
 IR Inten    --      3.7717                 5.5704                17.4010

 - Thermochemistry -
 -------------------
 Temperature   298.150 Kelvin.  Pressure   1.00000 Atm.
 Atom     1 has atomic number  6 and mass  12.00000

 Molecular mass:   141.09021 amu.
 Principal axes and moments of inertia in atomic units:
                           1         2         3
     Eigenvalues --   699.059042090.357322325.71942
           X            0.99977   0.02117  -0.00327
           Y           -0.02134   0.99784  -0.06208
           Z            0.00194   0.06214   0.99807
 This molecule is an asymmetric top.
 Rotational symmetry number  1.
 Warning -- assumption of classical behavior for rotation
           may cause significant error
 Rotational temperatures (Kelvin)      0.12390     0.04143     0.03724
 Rotational constants (GHZ):           2.58167     0.86336     0.77599
 Zero-point vibrational energy     468274.8 (Joules/Mol)
                                  111.92036 (Kcal/Mol)
 Warning -- explicit consideration of  13 degrees of freedom as
           vibrations may cause significant error
 Vibrational temperatures:     77.30   118.93   153.80   231.53   343.80
          (Kelvin)            350.74   386.61   493.49   533.89   559.57
                              622.29   649.85   794.49   907.63   948.32
                              993.70  1043.30  1106.33  1118.96  1189.44
                             1200.42  1331.64  1388.88  1455.34  1503.05
                             1525.39  1590.84  1609.66  1629.60  1736.46
                             1764.88  1824.03  1897.00  1962.87  2015.51
                             2018.76  2038.78  2068.47  2080.76  2089.68
                             2149.86  2156.80  2188.23  2193.96  2365.36
                             2440.65  4399.63  4411.28  4441.02  4498.65
                             4516.40  4527.25  4677.03  4718.56  5068.52
                             5201.11  5330.74

 Zero-point correction=                           0.178356 (Hartree/Particle)
 Thermal correction to Energy=                    0.188536
 Thermal correction to Enthalpy=                  0.189480
 Thermal correction to Gibbs Free Energy=         0.142677
 Sum of electronic and zero-point Energies=           -474.556537
 Sum of electronic and thermal Energies=              -474.546358
 Sum of electronic and thermal Enthalpies=            -474.545414
 Sum of electronic and thermal Free Energies=         -474.592216

                     E (Thermal)             CV                S
                      KCal/Mol        Cal/Mol-Kelvin    Cal/Mol-Kelvin
 Total                  118.308             38.078             98.504
 Electronic               0.000              0.000              0.000
 Translational            0.889              2.981             40.744
 Rotational               0.889              2.981             29.609
 Vibrational            116.531             32.116             28.151
 Vibration     1          0.596              1.976              4.675
 Vibration     2          0.600              1.961              3.827
 Vibration     3          0.606              1.944              3.325
 Vibration     4          0.622              1.890              2.539
 Vibration     5          0.657              1.781              1.811
 Vibration     6          0.659              1.773              1.775
 Vibration     7          0.673              1.731              1.605
 Vibration     8          0.722              1.590              1.198
 Vibration     9          0.743              1.532              1.075
 Vibration    10          0.757              1.494              1.004
 Vibration    11          0.793              1.399              0.850
 Vibration    12          0.810              1.357              0.791
 Vibration    13          0.908              1.135              0.540

                           ! Non-Optimized Parameters !
 Normal termination of Gaussian 16 at Tue Dec  8 10:21:04 2020.

 ----------------------------------------------------------------------
 # B3LYP/6-311++G(d,p) empiricaldispersion=gd3bj scf=xqc pop=npa geom=c
 heck
 ----------------------------------------------------------------------

 -------------------------------------
 CID_65278140_JID_128_Energie_neutraal
 -------------------------------------
 Structure from the checkpoint file:  "JID_128.chk"
 Charge =  0 Multiplicity = 1

 SCF Done:  E(RB3LYP) =  -474.884350572     A.U. after   14 cycles
 Normal termination of Gaussian 16 at Tue Dec  8 10:22:14 2020.

 ----------------------------------------------------------------------
 # B3LYP/6-311++G(d,p) empiricaldispersion=gd3bj scf=xqc pop=npa geom=c
 heck
 ----------------------------------------------------------------------

 -----------------------------------
 CID_65278140_JID_128_Energie_kation
 -----------------------------------
 Structure from the checkpoint file:  "JID_128.chk"
 Charge =  1 Multiplicity = 2

 SCF Done:  E(UB3LYP) =  -474.596686546     A.U. after   22 cycles
 Normal termination of Gaussian 16 at Tue Dec  8 10:24:41 2020.
 Gaussian 16:  ES64L-G16RevA.03 25-Dec-2016

 ----------------------------------------------------------------------
 # B3LYP/6-311++G(d,p) empiricaldispersion=gd3bj scf=xqc pop=npa geom=c
 heck
 ----------------------------------------------------------------------

 ----------------------------------
 CID_65278140_JID_128_Energie_anion
 ----------------------------------
 Structure from the checkpoint file:  "JID_128.chk"
 Charge = -1 Multiplicity = 2

                         Standard orientation:
 ---------------------------------------------------------------------
 Center     Atomic      Atomic             Coordinates (Angstroms)
 Number     Number       Type             X           Y           Z
 ---------------------------------------------------------------------
      1          6           0        2.364357    0.687969   -1.124552
      2          6           0        2.267180   -0.266251    0.062772
      3          6           0        1.318569    0.243131    1.165644
      4          7           0       -0.054385    0.335869    0.706745
      5          6           0       -0.931625   -0.705541    0.534871
      6          6           0       -2.048636   -0.180610   -0.098710
      7          6           0       -1.734828    1.188385   -0.281587
      8          7           0       -0.525233    1.489726    0.200775
      9          7           0       -3.202442   -0.857641   -0.530385
     10          8           0        1.890713   -1.579155   -0.345632
     11          1           0        1.379464    0.845084   -1.577938
     12          1           0        3.040247    0.272900   -1.878059
     13          1           0        2.739789    1.669090   -0.814119
     14          1           0        3.256232   -0.386948    0.520587
     15          1           0        1.350187   -0.448404    2.013084
     16          1           0        1.609785    1.239567    1.506057
     17          1           0       -0.706400   -1.698316    0.895265
     18          1           0       -2.345112    1.959793   -0.733443
     19          1           0       -4.011178   -0.246886   -0.574188
     20          1           0       -3.427472   -1.659478    0.048861
     21          1           0        1.053073   -1.491342   -0.831620
 ---------------------------------------------------------------------

 SCF Done:  E(UB3LYP) =  -474.870284515     A.U. after   29 cycles

 The electronic state is 2-A.
 Alpha  occ. eigenvalues --  -19.02655 -14.28079 -14.22253 -14.20177 -10.12966
 Alpha  occ. eigenvalues --  -10.11059 -10.09595 -10.08797 -10.07741 -10.06463
 Alpha  occ. eigenvalues --   -0.94749  -0.92811  -0.79648  -0.73805  -0.67510
 Alpha  occ. eigenvalues --   -0.64814  -0.59158  -0.52059  -0.49053  -0.47025
 Alpha  occ. eigenvalues --   -0.42284  -0.40892  -0.38423  -0.37215  -0.36156
 Alpha  occ. eigenvalues --   -0.34338  -0.32461  -0.31546  -0.31471  -0.28552
 Alpha  occ. eigenvalues --   -0.27613  -0.26985  -0.23825  -0.22099  -0.19124
 Alpha  occ. eigenvalues --   -0.18487  -0.14761  -0.09733   0.04618
 Alpha virt. eigenvalues --    0.06263   0.07973   0.08632   0.09408   0.09787
 Alpha virt. eigenvalues --    0.10604   0.10991   0.11580   0.12331   0.12854
 Alpha virt. eigenvalues --    0.14675   0.14744   0.15801   0.16725   0.17250

  Beta  occ. eigenvalues --  -19.02650 -14.28078 -14.22242 -14.20097 -10.12951
  Beta  occ. eigenvalues --  -10.11038 -10.09589 -10.08768 -10.07729 -10.06446
  Beta  occ. eigenvalues --   -0.94735  -0.92796  -0.79544  -0.73776  -0.67470
  Beta  occ. eigenvalues --   -0.64765  -0.59112  -0.52018  -0.48995  -0.46974
  Beta  occ. eigenvalues --   -0.42220  -0.40847  -0.38350  -0.37155  -0.36082
  Beta  occ. eigenvalues --   -0.34305  -0.32431  -0.31515  -0.31438  -0.28512
  Beta  occ. eigenvalues --   -0.27586  -0.26954  -0.23796  -0.22042  -0.19099
  Beta  occ. eigenvalues --   -0.18469  -0.14724  -0.09667
  Beta virt. eigenvalues --    0.07019   0.08003   0.08567   0.09283   0.10122
  Beta virt. eigenvalues --    0.10430   0.10762   0.11582   0.11805   0.12759
  Beta virt. eigenvalues --    0.13426   0.14878   0.15171   0.15975   0.16652

 Mulliken charges and spin densities:
               1          2
     1  C    0.641699  -1.236163
     2  C   -0.692204   0.739531
     3  C    0.802682  -1.200892
     4  N    0.220558   0.021288
     5  C    0.206102  -0.644282
     6  C    0.447430  -0.380364
     7  C    0.646970  -0.926494
     8  N   -0.361209   0.204714
     9  N   -0.396421   0.043953
    10  O   -0.241652  -0.013611
    11  H    0.062990   0.115347
    12  H   -0.068054   0.224830
    13  H    0.001616   0.130362
    14  H   -0.516830   0.713390
    15  H   -0.257208   0.449693
    16  H   -0.219661   0.402258
    17  H   -0.413103   0.596918
    18  H   -0.210179   0.354125
    19  H   -0.444502   0.695870
    20  H   -0.451133   0.700483
    21  H    0.242109   0.009044
 Sum of Mulliken charges =  -1.00000   1.00000

 Dipole moment (field-independent basis, Debye):
    X=              4.0322    Y=              2.1687    Z=             -1.4209  Tot=              4.7938
 Quadrupole moment (field-independent basis, Debye-Ang):
   XX=           -136.9202   YY=            -96.2703   ZZ=            -88.3535
   XY=             -7.6519   XZ=             -5.0452   YZ=              1.2932

 Summary of Natural Population Analysis:

                                       Natural Population
                Natural  -----------------------------------------------
    Atom  No    Charge         Core      Valence    Rydberg      Total
 -----------------------------------------------------------------------
      C    1   -0.30274      0.99964     2.29623    0.00687     3.30274
      C    2    0.05785      0.99959     1.92830    0.01427     2.94215
      C    3   -0.09229      0.99958     2.08012    0.01259     3.09229
      N    4   -0.11134      0.99967     2.59709    0.01458     3.61134
      C    5   -0.05045      0.99950     2.03771    0.01324     3.05045
      C    6    0.03475      0.99948     1.95341    0.01236     2.96525
      C    7   -0.03564      0.99958     2.02112    0.01494     3.03564
      N    8   -0.15127      0.99973     2.64015    0.01139     3.65127
      N    9   -0.40205      0.99973     2.89092    0.01141     3.90205
      O   10   -0.37152      0.99990     3.36478    0.00684     4.37152
      H   11    0.10473      0.00000     0.39406    0.00121     0.39527
      H   12    0.10100      0.00000     0.39811    0.00089     0.39900
      H   13    0.10357      0.00000     0.39549    0.00094     0.39643
      H   14    0.08952      0.00000     0.40828    0.00220     0.41048
      H   15    0.10427      0.00000     0.39406    0.00167     0.39573
      H   16    0.10938      0.00000     0.38888    0.00174     0.39062
      H   17    0.11025      0.00000     0.38843    0.00132     0.38975
      H   18    0.09696      0.00000     0.40208    0.00097     0.40304
      H   19    0.18678      0.00000     0.30578    0.00744     0.31322
      H   20    0.18855      0.00000     0.30147    0.00998     0.31145
      H   21    0.22970      0.00000     0.26709    0.00321     0.27030
 =======================================================================
   * Total *    0.00000      9.99639    27.85355    0.15005    38.00000

 Normal termination of Gaussian 16 at Tue Dec  8 10:27:55 2020.
