 Gaussian 16, Revision A.03,

 -----------------------------------------------------------
 # opt freq B3LYP/6-31G(d) empiricaldispersion=gd3bj scf=xqc
 -----------------------------------------------------------

 -------------------------------
 CID_151735820_JID_3522_neutraal
 -------------------------------
 Symbolic Z-matrix:
 Charge =  0 Multiplicity = 1

 SCF Done:  E(RB3LYP) =  -653.151881519     A.U. after   18 cycles
 SCF Done:  E(RB3LYP) =  -653.159469938     A.U. after   15 cycles
 SCF Done:  E(RB3LYP) =  -653.156353023     A.U. after   16 cycles
 SCF Done:  E(RB3LYP) =  -653.158805186     A.U. after   15 cycles
 SCF Done:  E(RB3LYP) =  -653.160821868     A.U. after   12 cycles
 SCF Done:  E(RB3LYP) =  -653.161659160     A.U. after   14 cycles
 SCF Done:  E(RB3LYP) =  -653.162113018     A.U. after   14 cycles
 SCF Done:  E(RB3LYP) =  -653.162609521     A.U. after   16 cycles
 SCF Done:  E(RB3LYP) =  -653.163171467     A.U. after   14 cycles
 SCF Done:  E(RB3LYP) =  -653.163894406     A.U. after   14 cycles
 SCF Done:  E(RB3LYP) =  -653.164316725     A.U. after   12 cycles
 SCF Done:  E(RB3LYP) =  -653.164327232     A.U. after   11 cycles
 SCF Done:  E(RB3LYP) =  -653.164330867     A.U. after    9 cycles
 SCF Done:  E(RB3LYP) =  -653.164332104     A.U. after    9 cycles
 SCF Done:  E(RB3LYP) =  -653.164332337     A.U. after    8 cycles
 SCF Done:  E(RB3LYP) =  -653.164332439     A.U. after    8 cycles
 Optimization completed.
    -- Stationary point found.
 Normal termination of Gaussian 16 at Wed Dec  9 23:35:40 2020.

 --------------------------------------------------------------------
 #N Geom=AllCheck Guess=TCheck SCRF=Check GenChk RB3LYP/6-31G(d) Freq
 --------------------------------------------------------------------

 Structure from the checkpoint file:  "JID_3522.chk"
 -------------------------------
 CID_151735820_JID_3522_neutraal
 -------------------------------
 Charge =  0 Multiplicity = 1

 SCF Done:  E(RB3LYP) =  -653.164332439     A.U. after    1 cycles

  Exact polarizability: 133.098  17.554  89.733  10.381   1.276  68.132
 Approx polarizability: 202.641  38.905 153.187  32.093   8.757 129.401

                      1                      2                      3
                      A                      A                      A
 Frequencies --     44.0901                69.6159                76.7423
 Red. masses --      6.5106                 5.1227                 6.0527
 Frc consts  --      0.0075                 0.0146                 0.0210
 IR Inten    --      3.2092                 1.5102                 0.1901

                      4                      5                      6
                      A                      A                      A
 Frequencies --     91.1732               122.5010               168.9637
 Red. masses --      7.6714                 9.5082                 4.9518
 Frc consts  --      0.0376                 0.0841                 0.0833
 IR Inten    --      0.3501                 2.2188                10.4583

                      7                      8                      9
                      A                      A                      A
 Frequencies --    219.8456               251.8519               294.1766
 Red. masses --      5.9324                 4.7114                 3.7935
 Frc consts  --      0.1689                 0.1761                 0.1934
 IR Inten    --      8.4358                 3.9139                 3.1561

                     10                     11                     12
                      A                      A                      A
 Frequencies --    321.0379               424.6750               433.5105
 Red. masses --      8.5865                 3.8765                 1.1495
 Frc consts  --      0.5214                 0.4119                 0.1273
 IR Inten    --      3.6369                 7.1894                30.9716

                     13                     14                     15
                      A                      A                      A
 Frequencies --    503.2573               507.4198               538.1836
 Red. masses --     13.2203                 2.7538                 7.3493
 Frc consts  --      1.9728                 0.4177                 1.2542
 IR Inten    --      6.2729                16.3348                 5.9172

                     16                     17                     18
                      A                      A                      A
 Frequencies --    572.7482               626.0243               632.1905
 Red. masses --      4.5524                 4.1285                 1.3624
 Frc consts  --      0.8799                 0.9533                 0.3208
 IR Inten    --     10.0320                 9.5041               228.6084

                     19                     20                     21
                      A                      A                      A
 Frequencies --    675.7075               728.4665               738.9798
 Red. masses --      3.9004                 1.2747                 1.9405
 Frc consts  --      1.0493                 0.3985                 0.6243
 IR Inten    --      6.1690                45.2397                11.1483

                     22                     23                     24
                      A                      A                      A
 Frequencies --    771.1387               788.1714               806.2750
 Red. masses --      2.6296                 9.6024                 5.1011
 Frc consts  --      0.9213                 3.5146                 1.9538
 IR Inten    --     27.6157                15.6540               127.9785

                     25                     26                     27
                      A                      A                      A
 Frequencies --    850.0203               923.1306               926.6580
 Red. masses --      1.3006                 4.2864                 3.9846
 Frc consts  --      0.5537                 2.1521                 2.0159
 IR Inten    --      4.9171                 3.8364                16.7803

                     28                     29                     30
                      A                      A                      A
 Frequencies --   1003.1795              1080.9132              1132.9100
 Red. masses --      2.0253                 1.7049                 3.3654
 Frc consts  --      1.2008                 1.1736                 2.5450
 IR Inten    --      6.7933                11.5804                22.8880

                     31                     32                     33
                      A                      A                      A
 Frequencies --   1143.6093              1158.3529              1185.8591
 Red. masses --      1.5938                 2.5404                 2.3787
 Frc consts  --      1.2282                 2.0083                 1.9708
 IR Inten    --     35.0287                 9.6264                 2.3642

                     34                     35                     36
                      A                      A                      A
 Frequencies --   1225.6701              1264.3664              1319.6929
 Red. masses --      5.6967                 1.3711                 3.5036
 Frc consts  --      5.0422                 1.2914                 3.5951
 IR Inten    --     56.1671                18.6132                 2.3004

                     37                     38                     39
                      A                      A                      A
 Frequencies --   1366.3259              1375.2873              1429.3560
 Red. masses --      2.2186                 2.3671                 3.8048
 Frc consts  --      2.4403                 2.6379                 4.5800
 IR Inten    --     55.5902                15.1818               196.8556

                     40                     41                     42
                      A                      A                      A
 Frequencies --   1444.5374              1484.6010              1524.8944
 Red. masses --      3.4872                 1.4184                 4.5106
 Frc consts  --      4.2873                 1.8420                 6.1797
 IR Inten    --     50.4011                26.5001                 6.4734

                     43                     44                     45
                      A                      A                      A
 Frequencies --   1530.0796              1588.0009              1665.7679
 Red. masses --      1.0813                 7.0499                 1.1877
 Frc consts  --      1.4915                10.4746                 1.9418
 IR Inten    --      6.0879                 4.2402               141.3788

                     46                     47                     48
                      A                      A                      A
 Frequencies --   1829.6685              2238.1393              3057.4285
 Red. masses --      6.5344                13.9519                 1.0628
 Frc consts  --     12.8885                41.1773                 5.8537
 IR Inten    --    430.9589               375.6100                18.6048

                     49                     50                     51
                      A                      A                      A
 Frequencies --   3101.0197              3272.5459              3310.1273
 Red. masses --      1.1004                 1.0937                 1.1032
 Frc consts  --      6.2349                 6.9014                 7.1220
 IR Inten    --     13.7059                 6.3496                 1.1410

                     52                     53                     54
                      A                      A                      A
 Frequencies --   3554.5694              3578.1344              3662.5318
 Red. masses --      1.0481                 1.0755                 1.0986
 Frc consts  --      7.8024                 8.1128                 8.6827
 IR Inten    --     14.1187                22.2460                40.8327

 - Thermochemistry -
 -------------------
 Temperature   298.150 Kelvin.  Pressure   1.00000 Atm.
 Atom     1 has atomic number  6 and mass  12.00000

 Molecular mass:   181.07121 amu.
 Principal axes and moments of inertia in atomic units:
                           1         2         3
     Eigenvalues --  1250.121333219.317153945.25052
           X            0.99990   0.00636   0.01249
           Y           -0.00630   0.99997  -0.00499
           Z           -0.01252   0.00491   0.99991
 This molecule is an asymmetric top.
 Rotational symmetry number  1.
 Warning -- assumption of classical behavior for rotation
           may cause significant error
 Rotational temperatures (Kelvin)      0.06928     0.02690     0.02195
 Rotational constants (GHZ):           1.44365     0.56060     0.45745
 Zero-point vibrational energy     386597.9 (Joules/Mol)
                                   92.39912 (Kcal/Mol)
 Warning -- explicit consideration of  16 degrees of freedom as
           vibrations may cause significant error
 Vibrational temperatures:     63.44   100.16   110.42   131.18   176.25
          (Kelvin)            243.10   316.31   362.36   423.25   461.90
                              611.01   623.72   724.07   730.06   774.33
                              824.06   900.71   909.58   972.19  1048.10
                             1063.23  1109.50  1134.00  1160.05  1222.99
                             1328.18  1333.25  1443.35  1555.19  1630.00
                             1645.40  1666.61  1706.19  1763.47  1819.14
                             1898.74  1965.84  1978.73  2056.52  2078.37
                             2136.01  2193.98  2201.44  2284.78  2396.67
                             2632.48  3220.18  4398.96  4461.68  4708.46
                             4762.53  5114.23  5148.14  5269.57

 Zero-point correction=                           0.147247 (Hartree/Particle)
 Thermal correction to Energy=                    0.159024
 Thermal correction to Enthalpy=                  0.159969
 Thermal correction to Gibbs Free Energy=         0.108267
 Sum of electronic and zero-point Energies=           -653.017085
 Sum of electronic and thermal Energies=              -653.005308
 Sum of electronic and thermal Enthalpies=            -653.004364
 Sum of electronic and thermal Free Energies=         -653.056066

                     E (Thermal)             CV                S
                      KCal/Mol        Cal/Mol-Kelvin    Cal/Mol-Kelvin
 Total                   99.789             42.811            108.816
 Electronic               0.000              0.000              0.000
 Translational            0.889              2.981             41.488
 Rotational               0.889              2.981             31.141
 Vibrational             98.012             36.849             36.187
 Vibration     1          0.595              1.980              5.066
 Vibration     2          0.598              1.969              4.164
 Vibration     3          0.599              1.965              3.973
 Vibration     4          0.602              1.955              3.635
 Vibration     5          0.610              1.930              3.061
 Vibration     6          0.625              1.881              2.447
 Vibration     7          0.647              1.811              1.960
 Vibration     8          0.664              1.760              1.718
 Vibration     9          0.689              1.685              1.450
 Vibration    10          0.707              1.633              1.305
 Vibration    11          0.787              1.417              0.876
 Vibration    12          0.794              1.397              0.847
 Vibration    13          0.859              1.243              0.650
 Vibration    14          0.863              1.234              0.640
 Vibration    15          0.893              1.166              0.569
 Vibration    16          0.929              1.090              0.499

                           ! Non-Optimized Parameters !
 Normal termination of Gaussian 16 at Wed Dec  9 23:40:08 2020.

 ----------------------------------------------------------------------
 # B3LYP/6-311++G(d,p) empiricaldispersion=gd3bj scf=xqc pop=npa geom=c
 heck
 ----------------------------------------------------------------------

 ---------------------------------------
 CID_151735820_JID_3522_Energie_neutraal
 ---------------------------------------
 Structure from the checkpoint file:  "JID_3522.chk"
 Charge =  0 Multiplicity = 1

 SCF Done:  E(RB3LYP) =  -653.358666526     A.U. after   17 cycles
 Normal termination of Gaussian 16 at Wed Dec  9 23:42:07 2020.

 ----------------------------------------------------------------------
 # B3LYP/6-311++G(d,p) empiricaldispersion=gd3bj scf=xqc pop=npa geom=c
 heck
 ----------------------------------------------------------------------

 -------------------------------------
 CID_151735820_JID_3522_Energie_kation
 -------------------------------------
 Structure from the checkpoint file:  "JID_3522.chk"
 Charge =  1 Multiplicity = 2

 SCF Done:  E(UB3LYP) =  -653.035443622     A.U. after   29 cycles
 Normal termination of Gaussian 16 at Wed Dec  9 23:46:48 2020.
 Gaussian 16:  ES64L-G16RevA.03 25-Dec-2016

 ----------------------------------------------------------------------
 # B3LYP/6-311++G(d,p) empiricaldispersion=gd3bj scf=xqc pop=npa geom=c
 heck
 ----------------------------------------------------------------------

 ------------------------------------
 CID_151735820_JID_3522_Energie_anion
 ------------------------------------
 Structure from the checkpoint file:  "JID_3522.chk"
 Charge = -1 Multiplicity = 2

                         Standard orientation:
 ---------------------------------------------------------------------
 Center     Atomic      Atomic             Coordinates (Angstroms)
 Number     Number       Type             X           Y           Z
 ---------------------------------------------------------------------
      1          6           0       -3.276520   -0.980108    0.048395
      2          6           0       -2.991798    0.250350   -0.483205
      3          7           0       -1.636516    0.416374   -0.272397
      4          6           0       -1.151486   -0.719151    0.352244
      5          7           0       -2.138026   -1.565973    0.558963
      6          6           0        0.277306   -0.936054    0.739995
      7          7           0        1.171248   -0.714778   -0.398766
      8          6           0        2.556383   -0.597609   -0.276855
      9          8           0        3.312883   -1.017391   -1.138201
     10          7           0        2.999536    0.022976    0.883675
     11          7           0       -0.939848    1.519328   -0.795715
     12          7           0       -0.105806    1.980233    0.010266
     13          7           0        0.725460    2.481150    0.608240
     14          1           0       -4.232868   -1.481525    0.091969
     15          1           0       -3.574482    1.011517   -0.977074
     16          1           0        0.569108   -0.261949    1.551465
     17          1           0        0.337851   -1.955507    1.141024
     18          1           0        0.952223   -1.287687   -1.206519
     19          1           0        2.442731    0.793722    1.233833
     20          1           0        3.986734    0.240818    0.827606
 ---------------------------------------------------------------------

 SCF Done:  E(UB3LYP) =  -653.383522748     A.U. after   28 cycles

 The electronic state is 2-A.
 Alpha  occ. eigenvalues --  -18.97641 -14.25737 -14.24399 -14.21704 -14.21362
 Alpha  occ. eigenvalues --  -14.21105 -14.17209 -14.16871 -10.18589 -10.10477
 Alpha  occ. eigenvalues --  -10.10278 -10.07307 -10.06296  -0.95864  -0.94038
 Alpha  occ. eigenvalues --   -0.89579  -0.81763  -0.81061  -0.77868  -0.71504
 Alpha  occ. eigenvalues --   -0.64865  -0.57743  -0.51075  -0.49452  -0.47951
 Alpha  occ. eigenvalues --   -0.43273  -0.42524  -0.38524  -0.36053  -0.34821
 Alpha  occ. eigenvalues --   -0.33942  -0.33168  -0.32158  -0.31068  -0.30543
 Alpha  occ. eigenvalues --   -0.29266  -0.28885  -0.27737  -0.26633  -0.19523
 Alpha  occ. eigenvalues --   -0.17868  -0.16989  -0.16008  -0.14664  -0.14164
 Alpha  occ. eigenvalues --   -0.11157  -0.07678   0.04954
 Alpha virt. eigenvalues --    0.08597   0.09103   0.10554   0.11048   0.11771
 Alpha virt. eigenvalues --    0.12661   0.13465   0.14343   0.15357   0.15608
 Alpha virt. eigenvalues --    0.15907   0.16766   0.17168   0.17675   0.18090

  Beta  occ. eigenvalues --  -18.97639 -14.25433 -14.23599 -14.21702 -14.21342
  Beta  occ. eigenvalues --  -14.21138 -14.17200 -14.15892 -10.18588 -10.10475
  Beta  occ. eigenvalues --  -10.10280 -10.07303 -10.06294  -0.94718  -0.94017
  Beta  occ. eigenvalues --   -0.88983  -0.81692  -0.80597  -0.77842  -0.71006
  Beta  occ. eigenvalues --   -0.64812  -0.57653  -0.50316  -0.49434  -0.47837
  Beta  occ. eigenvalues --   -0.43216  -0.42425  -0.38491  -0.35818  -0.34405
  Beta  occ. eigenvalues --   -0.33418  -0.32605  -0.31868  -0.30945  -0.29285
  Beta  occ. eigenvalues --   -0.28983  -0.28233  -0.27272  -0.24515  -0.17884
  Beta  occ. eigenvalues --   -0.17802  -0.16776  -0.15967  -0.14595  -0.13247
  Beta  occ. eigenvalues --   -0.11136  -0.07387
  Beta virt. eigenvalues --    0.08512   0.09005   0.10586   0.10963   0.11695
  Beta virt. eigenvalues --    0.12604   0.13547   0.14338   0.14711   0.15354
  Beta virt. eigenvalues --    0.15687   0.16240   0.16960   0.17363   0.17910

 Mulliken charges and spin densities:
               1          2
     1  C   -0.048208  -0.072930
     2  C    0.071220   0.044666
     3  N    0.104688   0.055152
     4  C   -0.001486  -0.137161
     5  N   -0.100606   0.015436
     6  C   -0.700406  -0.084301
     7  N   -0.169628  -0.010912
     8  C    0.143635  -0.012476
     9  O   -0.396882   0.000603
    10  N   -0.407202  -0.010285
    11  N   -0.693532  -0.008975
    12  N    0.290253   0.158283
    13  N   -0.188068   0.696703
    14  H    0.079409   0.059191
    15  H   -0.030101   0.189564
    16  H    0.112431   0.050700
    17  H    0.163942   0.006940
    18  H    0.275672   0.009172
    19  H    0.235385   0.038142
    20  H    0.259484   0.012489
 Sum of Mulliken charges =  -1.00000   1.00000

 Dipole moment (field-independent basis, Debye):
    X=             -0.5846    Y=             -2.4270    Z=              1.1246  Tot=              2.7380
 Quadrupole moment (field-independent basis, Debye-Ang):
   XX=           -103.8382   YY=           -104.3775   ZZ=            -89.0659
   XY=             -0.9536   XZ=              7.7335   YZ=              0.0189

 Summary of Natural Population Analysis:

                                       Natural Population
                Natural  -----------------------------------------------
    Atom  No    Charge         Core      Valence    Rydberg      Total
 -----------------------------------------------------------------------
      C    1   -0.05008      0.99959     2.03550    0.01499     3.05008
      C    2   -0.03683      0.99955     2.02617    0.01111     3.03683
      N    3   -0.08483      0.99957     2.57371    0.01155     3.58483
      C    4    0.16366      0.99958     1.81714    0.01962     2.83634
      N    5   -0.26691      0.99969     2.75633    0.01088     3.76691
      C    6   -0.10837      0.99958     2.09828    0.01051     3.10837
      N    7   -0.32668      0.99968     2.81744    0.00957     3.82668
      C    8    0.40623      0.99976     1.57238    0.02164     2.59377
      O    9   -0.34157      0.99987     3.33589    0.00580     4.34157
      N   10   -0.42672      0.99971     2.91803    0.00898     3.92672
      N   11   -0.15419      0.99970     2.63735    0.01714     3.65419
      N   12    0.17219      0.99970     2.31286    0.01525     3.32781
      N   13    0.06688      0.99980     2.41933    0.01398     3.43312
      H   14    0.09045      0.00000     0.40853    0.00102     0.40955
      H   15    0.10422      0.00000     0.39441    0.00136     0.39578
      H   16    0.10971      0.00000     0.38908    0.00121     0.39029
      H   17    0.09881      0.00000     0.40019    0.00100     0.40119
      H   18    0.19033      0.00000     0.30747    0.00220     0.30967
      H   19    0.20518      0.00000     0.29278    0.00204     0.29482
      H   20    0.18850      0.00000     0.31026    0.00123     0.31150
 =======================================================================
   * Total *   -0.00000     12.99579    33.82313    0.18108    47.00000

 Normal termination of Gaussian 16 at Wed Dec  9 23:51:22 2020.
