 Gaussian 16, Revision A.03,

 -----------------------------------------------------------
 # opt freq B3LYP/6-31G(d) empiricaldispersion=gd3bj scf=xqc
 -----------------------------------------------------------

 -------------------------------
 CID_100912161_JID_3071_neutraal
 -------------------------------
 Symbolic Z-matrix:
 Charge =  0 Multiplicity = 1

 SCF Done:  E(RB3LYP) =  -631.242091882     A.U. after   15 cycles
 SCF Done:  E(RB3LYP) =  -631.247827156     A.U. after   12 cycles
 SCF Done:  E(RB3LYP) =  -631.248654771     A.U. after   12 cycles
 SCF Done:  E(RB3LYP) =  -631.248950965     A.U. after   13 cycles
 SCF Done:  E(RB3LYP) =  -631.249882446     A.U. after   11 cycles
 SCF Done:  E(RB3LYP) =  -631.250252109     A.U. after   12 cycles
 SCF Done:  E(RB3LYP) =  -631.250344681     A.U. after   12 cycles
 SCF Done:  E(RB3LYP) =  -631.250387400     A.U. after   11 cycles
 SCF Done:  E(RB3LYP) =  -631.250411016     A.U. after   11 cycles
 SCF Done:  E(RB3LYP) =  -631.250414526     A.U. after    9 cycles
 SCF Done:  E(RB3LYP) =  -631.250416093     A.U. after    9 cycles
 SCF Done:  E(RB3LYP) =  -631.250417459     A.U. after    9 cycles
 SCF Done:  E(RB3LYP) =  -631.250419262     A.U. after    9 cycles
 SCF Done:  E(RB3LYP) =  -631.250419984     A.U. after    9 cycles
 SCF Done:  E(RB3LYP) =  -631.250420160     A.U. after    7 cycles
 Optimization completed.
    -- Stationary point found.
 Normal termination of Gaussian 16 at Wed Dec  9 22:25:06 2020.

 --------------------------------------------------------------------
 #N Geom=AllCheck Guess=TCheck SCRF=Check GenChk RB3LYP/6-31G(d) Freq
 --------------------------------------------------------------------

 Structure from the checkpoint file:  "JID_3071.chk"
 -------------------------------
 CID_100912161_JID_3071_neutraal
 -------------------------------
 Charge =  0 Multiplicity = 1

 SCF Done:  E(RB3LYP) =  -631.250420160     A.U. after    1 cycles

  Exact polarizability: 139.528   3.446  89.638   0.177  -4.964  86.550
 Approx polarizability: 166.164   4.016 137.516   6.817 -11.471 140.693

                      1                      2                      3
                      A                      A                      A
 Frequencies --     22.4581                24.3542                39.8975
 Red. masses --      3.0823                 3.1825                 5.7574
 Frc consts  --      0.0009                 0.0011                 0.0054
 IR Inten    --      0.1865                 0.3766                 0.1916

                      4                      5                      6
                      A                      A                      A
 Frequencies --     61.9287                89.5210               135.0893
 Red. masses --      3.3169                 4.7159                 3.7491
 Frc consts  --      0.0075                 0.0223                 0.0403
 IR Inten    --      1.5531                 4.0756                 0.4259

                      7                      8                      9
                      A                      A                      A
 Frequencies --    182.3744               199.5750               228.3548
 Red. masses --      3.0572                 2.6685                 1.1194
 Frc consts  --      0.0599                 0.0626                 0.0344
 IR Inten    --      0.5551                 0.3978                 0.2585

                     10                     11                     12
                      A                      A                      A
 Frequencies --    229.3066               265.2411               303.8943
 Red. masses --      1.1034                 1.1682                 3.5683
 Frc consts  --      0.0342                 0.0484                 0.1942
 IR Inten    --      0.2666                 0.4173                 1.8571

                     13                     14                     15
                      A                      A                      A
 Frequencies --    326.4873               388.4336               424.9452
 Red. masses --      4.7699                 2.7771                 5.3470
 Frc consts  --      0.2996                 0.2469                 0.5689
 IR Inten    --      1.0005                 2.1992                 4.5264

                     16                     17                     18
                      A                      A                      A
 Frequencies --    427.7874               529.9487               575.7904
 Red. masses --      3.5019                 4.6365                 4.7044
 Frc consts  --      0.3776                 0.7672                 0.9189
 IR Inten    --      1.1066                 1.0551                22.5232

                     19                     20                     21
                      A                      A                      A
 Frequencies --    639.7356               668.7508               687.5785
 Red. masses --      3.3830                 2.8249                 3.0683
 Frc consts  --      0.8157                 0.7444                 0.8547
 IR Inten    --      2.7411                 7.4531                 3.4087

                     22                     23                     24
                      A                      A                      A
 Frequencies --    724.6683               766.2818               803.6863
 Red. masses --      1.7035                 7.5539                 3.1625
 Frc consts  --      0.5271                 2.6134                 1.2035
 IR Inten    --     15.5346                 0.2992                 5.1296

                     25                     26                     27
                      A                      A                      A
 Frequencies --    819.9148               886.7310               892.2811
 Red. masses --      1.5669                 6.8445                 2.7635
 Frc consts  --      0.6206                 3.1709                 1.2963
 IR Inten    --      1.7684                23.3135                 0.4122

                     28                     29                     30
                      A                      A                      A
 Frequencies --    949.6707               961.5360               978.0170
 Red. masses --      1.1679                 4.3289                 1.5419
 Frc consts  --      0.6206                 2.3581                 0.8690
 IR Inten    --      1.6076                18.4170                 0.0370

                     31                     32                     33
                      A                      A                      A
 Frequencies --    986.7740              1039.7015              1076.5496
 Red. masses --      2.2436                 4.7400                 1.6413
 Frc consts  --      1.2872                 3.0189                 1.1207
 IR Inten    --     48.0600                22.5965                24.3110

                     34                     35                     36
                      A                      A                      A
 Frequencies --   1087.7767              1111.0288              1131.7117
 Red. masses --      2.3282                 1.6871                 2.2948
 Frc consts  --      1.6231                 1.2270                 1.7316
 IR Inten    --    129.4915                13.3860                 1.0160

                     37                     38                     39
                      A                      A                      A
 Frequencies --   1140.3028              1200.3881              1224.2577
 Red. masses --      4.2421                 1.8459                 2.8456
 Frc consts  --      3.2499                 1.5671                 2.5128
 IR Inten    --     36.8840                 2.3245               351.8212

                     40                     41                     42
                      A                      A                      A
 Frequencies --   1241.5159              1305.9963              1320.0736
 Red. masses --      1.9680                 1.8124                 2.6404
 Frc consts  --      1.7872                 1.8213                 2.7109
 IR Inten    --     18.6441               219.8742                19.3751

                     43                     44                     45
                      A                      A                      A
 Frequencies --   1353.4131              1356.7374              1366.5620
 Red. masses --      2.2378                 1.3264                 1.9157
 Frc consts  --      2.4150                 1.4386                 2.1079
 IR Inten    --      6.8159                 1.1705                36.4493

                     46                     47                     48
                      A                      A                      A
 Frequencies --   1367.8969              1425.5458              1439.3765
 Red. masses --      1.7840                 1.2206                 1.2187
 Frc consts  --      1.9667                 1.4614                 1.4876
 IR Inten    --     11.6673                 2.9880                 3.5719

                     49                     50                     51
                      A                      A                      A
 Frequencies --   1448.1958              1504.1051              1519.1139
 Red. masses --      1.2360                 1.0799                 1.0416
 Frc consts  --      1.5273                 1.4394                 1.4162
 IR Inten    --      1.1002                 4.1158                 1.5441

                     52                     53                     54
                      A                      A                      A
 Frequencies --   1521.4235              1529.5300              1532.4979
 Red. masses --      1.0488                 1.0396                 1.0442
 Frc consts  --      1.4304                 1.4330                 1.4449
 IR Inten    --      1.3857                 7.0791                 7.1460

                     55                     56                     57
                      A                      A                      A
 Frequencies --   1538.6185              1540.1673              1627.6338
 Red. masses --      1.0577                 1.0723                 7.6889
 Frc consts  --      1.4753                 1.4987                12.0012
 IR Inten    --     10.5978                 8.3483                15.0661

                     58                     59                     60
                      A                      A                      A
 Frequencies --   1654.9363              1867.9516              3054.3205
 Red. masses --      7.9106                12.1397                 1.0341
 Frc consts  --     12.7650                24.9567                 5.6838
 IR Inten    --    136.6176               201.1659                22.5392

                     61                     62                     63
                      A                      A                      A
 Frequencies --   3057.5773              3063.1861              3066.9402
 Red. masses --      1.0349                 1.0434                 1.0579
 Frc consts  --      5.7002                 5.7682                 5.8627
 IR Inten    --     23.0141                11.6891                19.1452

                     64                     65                     66
                      A                      A                      A
 Frequencies --   3083.3697              3124.8165              3127.2855
 Red. masses --      1.0855                 1.1034                 1.0991
 Frc consts  --      6.0806                 6.3479                 6.3333
 IR Inten    --      2.7957                 1.3878                15.0748

                     67                     68                     69
                      A                      A                      A
 Frequencies --   3128.7485              3131.0957              3133.9280
 Red. masses --      1.1032                 1.1032                 1.1029
 Frc consts  --      6.3629                 6.3723                 6.3819
 IR Inten    --     36.8687                30.2290                13.0206

                     70                     71                     72
                      A                      A                      A
 Frequencies --   3134.7591              3153.4414              3328.9786
 Red. masses --      1.1021                 1.1020                 1.1009
 Frc consts  --      6.3808                 6.4564                 7.1880
 IR Inten    --     34.4200                29.5570                 1.6673

 - Thermochemistry -
 -------------------
 Temperature   298.150 Kelvin.  Pressure   1.00000 Atm.
 Atom     1 has atomic number  6 and mass  12.00000

 Molecular mass:   183.08954 amu.
 Principal axes and moments of inertia in atomic units:
                           1         2         3
     Eigenvalues --   782.158105164.384585378.80201
           X            0.99994   0.01084  -0.00022
           Y           -0.01084   0.99994   0.00345
           Z            0.00026  -0.00345   0.99999
 This molecule is an asymmetric top.
 Rotational symmetry number  1.
 Warning -- assumption of classical behavior for rotation
           may cause significant error
 Rotational temperatures (Kelvin)      0.11074     0.01677     0.01610
 Rotational constants (GHZ):           2.30739     0.34946     0.33553
 Zero-point vibrational energy     563934.4 (Joules/Mol)
                                  134.78356 (Kcal/Mol)
 Warning -- explicit consideration of  18 degrees of freedom as
           vibrations may cause significant error
 Vibrational temperatures:     32.31    35.04    57.40    89.10   128.80
          (Kelvin)            194.36   262.40   287.14   328.55   329.92
                              381.62   437.24   469.74   558.87   611.40
                              615.49   762.48   828.43   920.44   962.18
                              989.27  1042.64  1102.51  1156.33  1179.67
                             1275.81  1283.79  1366.36  1383.44  1407.15
                             1419.75  1495.90  1548.91  1565.07  1598.52
                             1628.28  1640.64  1727.09  1761.43  1786.26
                             1879.04  1899.29  1947.26  1952.04  1966.18
                             1968.10  2051.04  2070.94  2083.63  2164.07
                             2185.67  2188.99  2200.65  2204.92  2213.73
                             2215.96  2341.80  2381.08  2687.57  4394.49
                             4399.17  4407.24  4412.64  4436.28  4495.91
                             4499.47  4501.57  4504.95  4509.02  4510.22
                             4537.10  4789.66

 Zero-point correction=                           0.214791 (Hartree/Particle)
 Thermal correction to Energy=                    0.228533
 Thermal correction to Enthalpy=                  0.229477
 Thermal correction to Gibbs Free Energy=         0.171695
 Sum of electronic and zero-point Energies=           -631.035629
 Sum of electronic and thermal Energies=              -631.021888
 Sum of electronic and thermal Enthalpies=            -631.020943
 Sum of electronic and thermal Free Energies=         -631.078725

                     E (Thermal)             CV                S
                      KCal/Mol        Cal/Mol-Kelvin    Cal/Mol-Kelvin
 Total                  143.406             48.706            121.612
 Electronic               0.000              0.000              0.000
 Translational            0.889              2.981             41.521
 Rotational               0.889              2.981             31.452
 Vibrational            141.629             42.745             48.639
 Vibration     1          0.593              1.985              6.404
 Vibration     2          0.593              1.985              6.243
 Vibration     3          0.594              1.981              5.264
 Vibration     4          0.597              1.972              4.395
 Vibration     5          0.602              1.957              3.671
 Vibration     6          0.613              1.918              2.872
 Vibration     7          0.630              1.864              2.304
 Vibration     8          0.638              1.840              2.137
 Vibration     9          0.651              1.798              1.892
 Vibration    10          0.652              1.796              1.884
 Vibration    11          0.671              1.737              1.627
 Vibration    12          0.695              1.666              1.395
 Vibration    13          0.710              1.623              1.277
 Vibration    14          0.757              1.495              1.006
 Vibration    15          0.787              1.416              0.875
 Vibration    16          0.789              1.410              0.866
 Vibration    17          0.885              1.184              0.587
 Vibration    18          0.932              1.084              0.493

 Optimization completed.
    -- Stationary point found.
 Normal termination of Gaussian 16 at Wed Dec  9 22:30:31 2020.

 ----------------------------------------------------------------------
 # B3LYP/6-311++G(d,p) empiricaldispersion=gd3bj scf=xqc pop=npa geom=c
 heck
 ----------------------------------------------------------------------

 ---------------------------------------
 CID_100912161_JID_3071_Energie_neutraal
 ---------------------------------------
 Structure from the checkpoint file:  "JID_3071.chk"
 Charge =  0 Multiplicity = 1

 SCF Done:  E(RB3LYP) =  -631.430584114     A.U. after   14 cycles
 Normal termination of Gaussian 16 at Wed Dec  9 22:32:34 2020.

 ----------------------------------------------------------------------
 # B3LYP/6-311++G(d,p) empiricaldispersion=gd3bj scf=xqc pop=npa geom=c
 heck
 ----------------------------------------------------------------------

 -------------------------------------
 CID_100912161_JID_3071_Energie_kation
 -------------------------------------
 Structure from the checkpoint file:  "JID_3071.chk"
 Charge =  1 Multiplicity = 2

 SCF Done:  E(UB3LYP) =  -631.107359604     A.U. after   23 cycles
 Normal termination of Gaussian 16 at Wed Dec  9 22:36:42 2020.
 Gaussian 16:  ES64L-G16RevA.03 25-Dec-2016

 ----------------------------------------------------------------------
 # B3LYP/6-311++G(d,p) empiricaldispersion=gd3bj scf=xqc pop=npa geom=c
 heck
 ----------------------------------------------------------------------

 ------------------------------------
 CID_100912161_JID_3071_Energie_anion
 ------------------------------------
 Structure from the checkpoint file:  "JID_3071.chk"
 Charge = -1 Multiplicity = 2

                         Standard orientation:
 ---------------------------------------------------------------------
 Center     Atomic      Atomic             Coordinates (Angstroms)
 Number     Number       Type             X           Y           Z
 ---------------------------------------------------------------------
      1          6           0        4.570602    0.739633    0.024834
      2          6           0        3.839701   -0.498209    0.566793
      3          6           0        2.438247   -0.638064    0.022844
      4          8           0        1.992450   -1.565550   -0.598824
      5          8           0        1.699432    0.491980    0.330497
      6          6           0        0.373364    0.475731   -0.014783
      7          6           0       -0.220863    1.112930   -1.051318
      8          8           0       -1.567281    0.858935   -0.947328
      9          6           0       -1.697223    0.068919    0.160747
     10          7           0       -0.566133   -0.182744    0.751518
     11          6           0       -3.069629   -0.391596    0.532170
     12          6           0       -3.993964    0.802188    0.830028
     13          6           0       -3.658467   -1.299436   -0.562887
     14          1           0        4.646092    0.704256   -1.067223
     15          1           0        5.585392    0.786123    0.431875
     16          1           0        4.044150    1.656321    0.302930
     17          1           0        4.372737   -1.417228    0.312030
     18          1           0        3.770091   -0.436660    1.659820
     19          1           0        0.112784    1.725610   -1.871325
     20          1           0       -2.935922   -0.978301    1.447100
     21          1           0       -4.119694    1.426151   -0.061119
     22          1           0       -4.982256    0.445840    1.139411
     23          1           0       -3.587777    1.428040    1.631303
     24          1           0       -3.010984   -2.161643   -0.751267
     25          1           0       -4.643947   -1.667481   -0.257990
     26          1           0       -3.775149   -0.747327   -1.501497
 ---------------------------------------------------------------------

 SCF Done:  E(UB3LYP) =  -631.416639043     A.U. after   33 cycles
 SCF Done:  E(UB3LYP) =  -631.416639043     a.u. after    1 cycles

 The electronic state is 2-A.
 Alpha  occ. eigenvalues --  -19.11254 -19.08664 -19.02364 -14.22482 -10.21106
 Alpha  occ. eigenvalues --  -10.17551 -10.16877 -10.13987 -10.10521 -10.09228
 Alpha  occ. eigenvalues --  -10.07583 -10.07490 -10.07260  -1.04946  -1.02480
 Alpha  occ. eigenvalues --   -0.94275  -0.83802  -0.73595  -0.70050  -0.66145
 Alpha  occ. eigenvalues --   -0.60219  -0.58824  -0.54919  -0.54304  -0.50647
 Alpha  occ. eigenvalues --   -0.46693  -0.42821  -0.40808  -0.40064  -0.38431
 Alpha  occ. eigenvalues --   -0.37054  -0.36790  -0.35922  -0.35041  -0.32429
 Alpha  occ. eigenvalues --   -0.32331  -0.31839  -0.29985  -0.28882  -0.28151
 Alpha  occ. eigenvalues --   -0.27233  -0.26426  -0.26409  -0.25794  -0.23911
 Alpha  occ. eigenvalues --   -0.22782  -0.21203  -0.19116  -0.15318   0.04221
 Alpha virt. eigenvalues --    0.05323   0.07020   0.07278   0.08289   0.08710
 Alpha virt. eigenvalues --    0.08882   0.08942   0.09514   0.09762   0.10453
 Alpha virt. eigenvalues --    0.11353   0.11635   0.12158   0.12277   0.13518

  Beta  occ. eigenvalues --  -19.11247 -19.08647 -19.02304 -14.22475 -10.21052
  Beta  occ. eigenvalues --  -10.17552 -10.16878 -10.13978 -10.10514 -10.09216
  Beta  occ. eigenvalues --  -10.07554 -10.07453 -10.07200  -1.04935  -1.02426
  Beta  occ. eigenvalues --   -0.94190  -0.83789  -0.73572  -0.69981  -0.66118
  Beta  occ. eigenvalues --   -0.60156  -0.58744  -0.54871  -0.54233  -0.50620
  Beta  occ. eigenvalues --   -0.46649  -0.42786  -0.40754  -0.39985  -0.38386
  Beta  occ. eigenvalues --   -0.36985  -0.36698  -0.35881  -0.35003  -0.32352
  Beta  occ. eigenvalues --   -0.32276  -0.31789  -0.29947  -0.28811  -0.28082
  Beta  occ. eigenvalues --   -0.27175  -0.26395  -0.26335  -0.25750  -0.23796
  Beta  occ. eigenvalues --   -0.22734  -0.21177  -0.19061  -0.15305
  Beta virt. eigenvalues --    0.06387   0.06709   0.07358   0.07745   0.08853
  Beta virt. eigenvalues --    0.09074   0.09169   0.09320   0.10032   0.10341
  Beta virt. eigenvalues --    0.10939   0.11713   0.11966   0.12241   0.12622

 Mulliken charges and spin densities:
               1          2
     1  C    1.110403  -1.518462
     2  C   -1.009974   0.614171
     3  C    0.516110  -0.369046
     4  O   -0.239943   0.023922
     5  O   -0.064991   0.028792
     6  C    0.917112  -1.140343
     7  C    0.074984   0.149017
     8  O   -0.030927   0.027578
     9  C    1.531833  -2.288425
    10  N   -0.096560   0.040218
    11  C   -3.067269   3.783796
    12  C    1.015327  -1.589556
    13  C    0.788684  -1.342121
    14  H   -0.223798   0.362272
    15  H   -0.710372   0.869931
    16  H   -0.000328   0.161676
    17  H    0.040991   0.120707
    18  H   -0.105264   0.287194
    19  H   -0.268259   0.456524
    20  H   -0.003589   0.190530
    21  H   -0.071525   0.230851
    22  H   -0.648353   0.826873
    23  H   -0.051496   0.193474
    24  H    0.111307   0.032871
    25  H   -0.498688   0.676398
    26  H   -0.015417   0.171156
 Sum of Mulliken charges =  -1.00000   1.00000

 Dipole moment (field-independent basis, Debye):
    X=             -0.6978    Y=              0.3168    Z=             -1.3313  Tot=              1.5361
 Quadrupole moment (field-independent basis, Debye-Ang):
   XX=           -204.7995   YY=           -108.1527   ZZ=           -106.0955
   XY=             -8.0923   XZ=              2.3265   YZ=             -2.4291

 Summary of Natural Population Analysis:

                                       Natural Population
                Natural  -----------------------------------------------
    Atom  No    Charge         Core      Valence    Rydberg      Total
 -----------------------------------------------------------------------
      C    1   -0.28255      0.99966     2.27793    0.00496     3.28255
      C    2   -0.23799      0.99959     2.22908    0.00932     3.23799
      C    3    0.42063      0.99967     1.55528    0.02442     2.57937
      O    4   -0.28392      0.99986     3.27836    0.00570     4.28392
      O    5   -0.28038      0.99984     3.27119    0.00935     4.28038
      C    6    0.19833      0.99937     1.78453    0.01777     2.80167
      C    7    0.02345      0.99942     1.96475    0.01238     2.97655
      O    8   -0.23709      0.99986     3.22997    0.00726     4.23709
      C    9    0.28435      0.99958     1.69552    0.02055     2.71565
      N   10   -0.25380      0.99965     2.74588    0.00827     3.75380
      C   11   -0.14188      0.99957     2.13211    0.01021     3.14188
      C   12   -0.28047      0.99965     2.27524    0.00558     3.28047
      C   13   -0.28047      0.99965     2.27525    0.00557     3.28047
      H   14    0.09849      0.00000     0.40007    0.00145     0.40151
      H   15    0.10464      0.00000     0.39201    0.00334     0.39536
      H   16    0.10351      0.00000     0.39502    0.00146     0.39649
      H   17    0.10785      0.00000     0.39114    0.00101     0.39215
      H   18    0.11233      0.00000     0.38612    0.00154     0.38767
      H   19    0.10211      0.00000     0.39671    0.00118     0.39789
      H   20    0.11011      0.00000     0.38794    0.00195     0.38989
      H   21    0.10091      0.00000     0.39773    0.00136     0.39909
      H   22    0.10384      0.00000     0.39434    0.00182     0.39616
      H   23    0.10164      0.00000     0.39734    0.00101     0.39836
      H   24    0.10256      0.00000     0.39658    0.00087     0.39744
      H   25    0.10312      0.00000     0.39554    0.00134     0.39688
      H   26    0.10067      0.00000     0.39816    0.00117     0.39933
 =======================================================================
   * Total *    0.00000     12.99537    35.84380    0.16083    49.00000

 Normal termination of Gaussian 16 at Wed Dec  9 22:42:43 2020.
