 Gaussian 16, Revision A.03,

 -----------------------------------------------------------
 # opt freq B3LYP/6-31G(d) empiricaldispersion=gd3bj scf=xqc
 -----------------------------------------------------------

 -------------------------------
 CID_116308526_JID_7797_neutraal
 -------------------------------
 Symbolic Z-matrix:
 Charge =  0 Multiplicity = 1

 SCF Done:  E(RB3LYP) =  -1053.29249749     A.U. after   13 cycles
 SCF Done:  E(RB3LYP) =  -1053.29823828     A.U. after   12 cycles
 SCF Done:  E(RB3LYP) =  -1053.29870598     A.U. after   12 cycles
 SCF Done:  E(RB3LYP) =  -1053.29929669     A.U. after   12 cycles
 SCF Done:  E(RB3LYP) =  -1053.29946623     A.U. after   10 cycles
 SCF Done:  E(RB3LYP) =  -1053.29951262     A.U. after   10 cycles
 SCF Done:  E(RB3LYP) =  -1053.29952434     A.U. after   10 cycles
 SCF Done:  E(RB3LYP) =  -1053.29955845     A.U. after   11 cycles
 SCF Done:  E(RB3LYP) =  -1053.29965995     A.U. after   11 cycles
 SCF Done:  E(RB3LYP) =  -1053.29386910     A.U. after   12 cycles
 SCF Done:  E(RB3LYP) =  -1053.30381057     A.U. after   10 cycles
 SCF Done:  E(RB3LYP) =  -1053.30381519     A.U. after    8 cycles
 SCF Done:  E(RB3LYP) =  -1053.30381620     A.U. after    9 cycles
 SCF Done:  E(RB3LYP) =  -1053.30381657     A.U. after    7 cycles
 SCF Done:  E(RB3LYP) =  -1053.30381660     A.U. after    7 cycles
 Optimization completed.
    -- Stationary point found.
 Normal termination of Gaussian 16 at Fri Dec 11 13:28:53 2020.

 --------------------------------------------------------------------
 #N Geom=AllCheck Guess=TCheck SCRF=Check GenChk RB3LYP/6-31G(d) Freq
 --------------------------------------------------------------------

 Structure from the checkpoint file:  "JID_7797.chk"
 -------------------------------
 CID_116308526_JID_7797_neutraal
 -------------------------------
 Charge =  0 Multiplicity = 1

 SCF Done:  E(RB3LYP) =  -1053.30381660     A.U. after    1 cycles

  Exact polarizability: 191.421  -2.312 181.309 -23.071  -9.770 134.626
 Approx polarizability: 255.781  -7.606 288.606 -45.869 -23.269 228.924

                      1                      2                      3
                      A                      A                      A
 Frequencies --     24.6446                47.0385                56.0069
 Red. masses --      5.1826                 4.4642                 4.4503
 Frc consts  --      0.0019                 0.0058                 0.0082
 IR Inten    --      0.3748                 0.6397                 0.4974

                      4                      5                      6
                      A                      A                      A
 Frequencies --     95.8189               116.5277               155.9233
 Red. masses --      4.3993                 3.4611                 2.3543
 Frc consts  --      0.0238                 0.0277                 0.0337
 IR Inten    --      0.6142                 0.5524                 0.7525

                      7                      8                      9
                      A                      A                      A
 Frequencies --    188.6897               197.3063               227.1052
 Red. masses --      2.7172                 3.4228                 2.6148
 Frc consts  --      0.0570                 0.0785                 0.0795
 IR Inten    --      1.8260                 1.6817                 1.7773

                     10                     11                     12
                      A                      A                      A
 Frequencies --    247.6144               292.7920               302.0431
 Red. masses --      3.0752                 2.0165                 3.1063
 Frc consts  --      0.1111                 0.1019                 0.1670
 IR Inten    --      1.2235                 0.6947                 6.6026

                     13                     14                     15
                      A                      A                      A
 Frequencies --    326.3152               354.3745               371.9756
 Red. masses --      2.7404                 4.2249                 3.7395
 Frc consts  --      0.1719                 0.3126                 0.3049
 IR Inten    --      3.7118                 1.8878                 2.8280

                     16                     17                     18
                      A                      A                      A
 Frequencies --    424.3555               449.3415               473.2668
 Red. masses --      2.2645                 3.2928                 3.1633
 Frc consts  --      0.2403                 0.3917                 0.4174
 IR Inten    --      1.3036                 2.6109                 6.2842

                     19                     20                     21
                      A                      A                      A
 Frequencies --    496.6675               514.3045               536.5032
 Red. masses --      3.0044                 2.4941                 2.3992
 Frc consts  --      0.4367                 0.3887                 0.4069
 IR Inten    --      4.7151                 4.9079                41.5628

                     22                     23                     24
                      A                      A                      A
 Frequencies --    563.0811               597.5978               609.0257
 Red. masses --      3.1845                 3.7795                 2.7080
 Frc consts  --      0.5949                 0.7953                 0.5918
 IR Inten    --      7.3519                25.0552                45.1451

                     25                     26                     27
                      A                      A                      A
 Frequencies --    664.8386               670.9190               726.6711
 Red. masses --      3.1004                 3.2282                 2.3648
 Frc consts  --      0.8074                 0.8561                 0.7357
 IR Inten    --      3.7671                20.9225                65.1496

                     28                     29                     30
                      A                      A                      A
 Frequencies --    738.0507               757.7676               768.6099
 Red. masses --      2.4132                 4.7022                 1.4043
 Frc consts  --      0.7745                 1.5908                 0.4888
 IR Inten    --     24.2131                28.0530                58.2780

                     31                     32                     33
                      A                      A                      A
 Frequencies --    809.2400               813.6799               852.2582
 Red. masses --      2.3634                 2.1940                 1.4182
 Frc consts  --      0.9119                 0.8558                 0.6069
 IR Inten    --      8.0064                17.6337                 3.4824

                     34                     35                     36
                      A                      A                      A
 Frequencies --    868.4895               877.7218               897.5105
 Red. masses --      2.3044                 2.2107                 2.4221
 Frc consts  --      1.0241                 1.0034                 1.1495
 IR Inten    --      4.3711                 1.7135                 8.5521

                     37                     38                     39
                      A                      A                      A
 Frequencies --    909.9460               920.1986               942.8580
 Red. masses --      1.4054                 1.9896                 2.0618
 Frc consts  --      0.6856                 0.9926                 1.0799
 IR Inten    --      0.0209                 3.2033                 8.0495

                     40                     41                     42
                      A                      A                      A
 Frequencies --    944.7800               959.2838               965.2096
 Red. masses --      1.3626                 2.2067                 2.0141
 Frc consts  --      0.7166                 1.1964                 1.1055
 IR Inten    --      1.2294                 3.6416                 6.3136

                     43                     44                     45
                      A                      A                      A
 Frequencies --    994.2183              1058.8236              1062.9843
 Red. masses --      3.1920                 2.2280                 2.3736
 Frc consts  --      1.8590                 1.4716                 1.5802
 IR Inten    --     15.8914                 1.3940                 4.5132

                     46                     47                     48
                      A                      A                      A
 Frequencies --   1071.4357              1086.7844              1092.8649
 Red. masses --      2.2889                 1.9493                 1.7935
 Frc consts  --      1.5482                 1.3565                 1.2620
 IR Inten    --      3.2346                 6.4852                14.5307

                     49                     50                     51
                      A                      A                      A
 Frequencies --   1105.4597              1116.1065              1123.5167
 Red. masses --      1.4494                 1.5458                 1.9091
 Frc consts  --      1.0436                 1.1345                 1.4198
 IR Inten    --     12.2094                 7.2994                 4.6187

                     52                     53                     54
                      A                      A                      A
 Frequencies --   1142.6146              1191.6133              1201.7477
 Red. masses --      2.8837                 1.2679                 1.2460
 Frc consts  --      2.2182                 1.0608                 1.0602
 IR Inten    --     63.1579                 1.4567                 7.6835

                     55                     56                     57
                      A                      A                      A
 Frequencies --   1212.6980              1223.2422              1231.6915
 Red. masses --      1.4733                 1.3452                 1.3631
 Frc consts  --      1.2765                 1.1859                 1.2184
 IR Inten    --      0.4060                 0.2171                 1.7154

                     58                     59                     60
                      A                      A                      A
 Frequencies --   1239.9545              1268.4916              1285.3715
 Red. masses --      1.9315                 1.5086                 1.6308
 Frc consts  --      1.7497                 1.4303                 1.5875
 IR Inten    --     17.1135                12.4433                26.2367

                     61                     62                     63
                      A                      A                      A
 Frequencies --   1294.1918              1296.0560              1319.6475
 Red. masses --      1.3213                 1.4780                 1.4730
 Frc consts  --      1.3039                 1.4628                 1.5114
 IR Inten    --      4.3525                29.0465                 2.0664

                     64                     65                     66
                      A                      A                      A
 Frequencies --   1328.9207              1339.7841              1351.2111
 Red. masses --      1.6199                 1.3107                 1.3988
 Frc consts  --      1.6855                 1.3862                 1.5047
 IR Inten    --      3.3340                16.6808                21.2999

                     67                     68                     69
                      A                      A                      A
 Frequencies --   1362.3427              1371.3016              1384.7218
 Red. masses --      1.2753                 1.3860                 1.8050
 Frc consts  --      1.3945                 1.5356                 2.0392
 IR Inten    --      5.2484                 2.8018                18.9749

                     70                     71                     72
                      A                      A                      A
 Frequencies --   1392.4626              1399.4258              1413.7885
 Red. masses --      1.4620                 1.4251                 1.4503
 Frc consts  --      1.6701                 1.6444                 1.7079
 IR Inten    --      5.6536                 1.2465                 2.1976

                     73                     74                     75
                      A                      A                      A
 Frequencies --   1459.3421              1495.6507              1497.4832
 Red. masses --      1.6700                 1.2758                 1.2929
 Frc consts  --      2.0955                 1.6815                 1.7081
 IR Inten    --      1.6079                26.7104                22.7962

                     76                     77                     78
                      A                      A                      A
 Frequencies --   1501.5123              1504.6999              1511.0470
 Red. masses --      1.3027                 1.1762                 1.0879
 Frc consts  --      1.7304                 1.5690                 1.4635
 IR Inten    --     17.4668                 3.9957                 7.4332

                     79                     80                     81
                      A                      A                      A
 Frequencies --   1515.9801              1520.2382              1525.6522
 Red. masses --      1.2614                 1.2235                 1.0998
 Frc consts  --      1.7081                 1.6660                 1.5082
 IR Inten    --      9.3726                23.7820                 6.8576

                     82                     83                     84
                      A                      A                      A
 Frequencies --   1529.0457              1553.5959              1658.5450
 Red. masses --      2.4864                 1.1317                 6.4688
 Frc consts  --      3.4250                 1.6093                10.4840
 IR Inten    --     12.7001                 1.1400                10.2903

                     85                     86                     87
                      A                      A                      A
 Frequencies --   1664.8482              3010.6804              3019.4009
 Red. masses --      6.3635                 1.0729                 1.0708
 Frc consts  --     10.3920                 5.7296                 5.7518
 IR Inten    --     16.8432                48.1107                11.2949

                     88                     89                     90
                      A                      A                      A
 Frequencies --   3034.4146              3036.3219              3036.4761
 Red. masses --      1.0674                 1.0719                 1.0687
 Frc consts  --      5.7905                 5.8221                 5.8056
 IR Inten    --     40.2243                12.4895                37.0714

                     91                     92                     93
                      A                      A                      A
 Frequencies --   3047.8677              3049.9656              3052.4684
 Red. masses --      1.0649                 1.0694                 1.0680
 Frc consts  --      5.8282                 5.8614                 5.8633
 IR Inten    --     31.9588                69.0885                 7.8212

                     94                     95                     96
                      A                      A                      A
 Frequencies --   3078.9309              3089.8130              3101.8317
 Red. masses --      1.0976                 1.1050                 1.0945
 Frc consts  --      6.1304                 6.2157                 6.2047
 IR Inten    --     51.4285                20.3108                30.6921

                     97                     98                     99
                      A                      A                      A
 Frequencies --   3104.5327              3111.7908              3117.6830
 Red. masses --      1.0918                 1.0971                 1.1018
 Frc consts  --      6.2000                 6.2594                 6.3100
 IR Inten    --     31.4881                43.6222                18.9516

                    100                    101                    102
                      A                      A                      A
 Frequencies --   3163.3945              3169.7413              3183.7793
 Red. masses --      1.0877                 1.0919                 1.0888
 Frc consts  --      6.4133                 6.4639                 6.5027
 IR Inten    --     13.7385                 0.8543                14.6214

                    103                    104                    105
                      A                      A                      A
 Frequencies --   3205.7678              3485.5585              3586.5936
 Red. masses --      1.0953                 1.0735                 1.0754
 Frc consts  --      6.6322                 7.6840                 8.1503
 IR Inten    --     31.6419                 0.2153                13.9790

 - Thermochemistry -
 -------------------
 Temperature   298.150 Kelvin.  Pressure   1.00000 Atm.
 Atom     1 has atomic number  6 and mass  12.00000

 Molecular mass:   248.13472 amu.
 Principal axes and moments of inertia in atomic units:
                           1         2         3
     Eigenvalues --  2587.100146061.871637307.77325
           X            0.99985  -0.01637  -0.00519
           Y            0.01628   0.99972  -0.01699
           Z            0.00547   0.01690   0.99984
 This molecule is an asymmetric top.
 Rotational symmetry number  1.
 Warning -- assumption of classical behavior for rotation
           may cause significant error
 Rotational temperatures (Kelvin)      0.03348     0.01429     0.01185
 Rotational constants (GHZ):           0.69759     0.29772     0.24696
 Zero-point vibrational energy     851409.1 (Joules/Mol)
                                  203.49165 (Kcal/Mol)
 Warning -- explicit consideration of  24 degrees of freedom as
           vibrations may cause significant error
 Vibrational temperatures:     35.46    67.68    80.58   137.86   167.66
          (Kelvin)            224.34   271.48   283.88   326.75   356.26
                              421.26   434.57   469.49   509.87   535.19
                              610.55   646.50   680.93   714.59   739.97
                              771.91   810.15   859.81   876.25   956.55
                              965.30  1045.52  1061.89  1090.26  1105.86
                             1164.32  1170.70  1226.21  1249.56  1262.85
                             1291.32  1309.21  1323.96  1356.56  1359.33
                             1380.20  1388.72  1430.46  1523.41  1529.40
                             1541.56  1563.64  1572.39  1590.51  1605.83
                             1616.49  1643.97  1714.47  1729.05  1744.80
                             1759.97  1772.13  1784.02  1825.08  1849.36
                             1862.05  1864.74  1898.68  1912.02  1927.65
                             1944.09  1960.11  1973.00  1992.31  2003.44
                             2013.46  2034.13  2099.67  2151.91  2154.54
                             2160.34  2164.93  2174.06  2181.16  2187.28
                             2195.07  2199.96  2235.28  2386.28  2395.35
                             4331.70  4344.24  4365.85  4368.59  4368.81
                             4385.20  4388.22  4391.82  4429.89  4445.55
                             4462.84  4466.73  4477.17  4485.65  4551.42
                             4560.55  4580.75  4612.38  5014.94  5160.31

 Zero-point correction=                           0.324285 (Hartree/Particle)
 Thermal correction to Energy=                    0.339615
 Thermal correction to Enthalpy=                  0.340559
 Thermal correction to Gibbs Free Energy=         0.280948
 Sum of electronic and zero-point Energies=          -1052.979532
 Sum of electronic and thermal Energies=             -1052.964201
 Sum of electronic and thermal Enthalpies=           -1052.963257
 Sum of electronic and thermal Free Energies=        -1053.022869

                     E (Thermal)             CV                S
                      KCal/Mol        Cal/Mol-Kelvin    Cal/Mol-Kelvin
 Total                  213.112             61.573            125.464
 Electronic               0.000              0.000              0.000
 Translational            0.889              2.981             42.427
 Rotational               0.889              2.981             33.105
 Vibrational            211.334             55.611             49.932
 Vibration     1          0.593              1.985              6.220
 Vibration     2          0.595              1.979              4.938
 Vibration     3          0.596              1.975              4.593
 Vibration     4          0.603              1.952              3.538
 Vibration     5          0.608              1.936              3.157
 Vibration     6          0.620              1.896              2.599
 Vibration     7          0.633              1.855              2.241
 Vibration     8          0.637              1.844              2.158
 Vibration     9          0.651              1.800              1.902
 Vibration    10          0.661              1.767              1.748
 Vibration    11          0.688              1.687              1.458
 Vibration    12          0.694              1.670              1.406
 Vibration    13          0.710              1.623              1.278
 Vibration    14          0.730              1.566              1.147
 Vibration    15          0.744              1.530              1.072
 Vibration    16          0.786              1.417              0.877
 Vibration    17          0.808              1.362              0.798
 Vibration    18          0.830              1.309              0.728
 Vibration    19          0.852              1.257              0.667
 Vibration    20          0.869              1.218              0.623
 Vibration    21          0.892              1.169              0.573
 Vibration    22          0.919              1.111              0.518
 Vibration    23          0.956              1.037              0.454
 Vibration    24          0.968              1.013              0.434

                           ! Non-Optimized Parameters !
 Normal termination of Gaussian 16 at Fri Dec 11 13:45:49 2020.

 ----------------------------------------------------------------------
 # B3LYP/6-311++G(d,p) empiricaldispersion=gd3bj scf=xqc pop=npa geom=c
 heck
 ----------------------------------------------------------------------

 ---------------------------------------
 CID_116308526_JID_7797_Energie_neutraal
 ---------------------------------------
 Structure from the checkpoint file:  "JID_7797.chk"
 Charge =  0 Multiplicity = 1

 SCF Done:  E(RB3LYP) =  -1053.50714622     A.U. after   15 cycles
 Normal termination of Gaussian 16 at Fri Dec 11 13:54:36 2020.

 ----------------------------------------------------------------------
 # B3LYP/6-311++G(d,p) empiricaldispersion=gd3bj scf=xqc pop=npa geom=c
 heck
 ----------------------------------------------------------------------

 -------------------------------------
 CID_116308526_JID_7797_Energie_kation
 -------------------------------------
 Structure from the checkpoint file:  "JID_7797.chk"
 Charge =  1 Multiplicity = 2

 SCF Done:  E(UB3LYP) =  -1053.24564171     A.U. after   24 cycles
 Normal termination of Gaussian 16 at Fri Dec 11 14:14:30 2020.
 Gaussian 16:  ES64L-G16RevA.03 25-Dec-2016

 ----------------------------------------------------------------------
 # B3LYP/6-311++G(d,p) empiricaldispersion=gd3bj scf=xqc pop=npa geom=c
 heck
 ----------------------------------------------------------------------

 ------------------------------------
 CID_116308526_JID_7797_Energie_anion
 ------------------------------------
 Structure from the checkpoint file:  "JID_7797.chk"
 Charge = -1 Multiplicity = 2

                         Standard orientation:
 ---------------------------------------------------------------------
 Center     Atomic      Atomic             Coordinates (Angstroms)
 Number     Number       Type             X           Y           Z
 ---------------------------------------------------------------------
      1          6           0       -4.030029    0.053579    0.388854
      2          6           0       -3.115329    1.283836    0.303007
      3          6           0       -1.618749    0.938775    0.345971
      4          6           0       -1.239143    0.039061   -0.845588
      5         16           0       -2.086719   -1.584946   -0.798043
      6          6           0       -3.807137   -0.948914   -0.744916
      7          7           0       -0.833094    2.170211    0.444974
      8          6           0        0.489852    2.069335    1.081478
      9          6           0        1.571955    1.296556    0.349547
     10          6           0        2.352460    1.924275   -0.633624
     11          6           0        3.320766    1.238990   -1.365997
     12          6           0        3.542871   -0.123794   -1.123829
     13          6           0        2.786939   -0.767995   -0.157399
     14          6           0        1.814877   -0.064911    0.576112
     15          7           0        1.198941   -0.912302    1.511029
     16          6           0        1.477078   -2.304353    1.100190
     17          6           0        2.819338   -2.196643    0.340896
     18          1           0       -3.869758   -0.453310    1.348935
     19          1           0       -5.079406    0.378071    0.370308
     20          1           0       -3.322995    1.834502   -0.627122
     21          1           0       -3.329320    1.970937    1.127977
     22          1           0       -1.441336    0.378668    1.273876
     23          1           0       -1.491169    0.549563   -1.784657
     24          1           0       -0.171216   -0.175856   -0.867868
     25          1           0       -4.449951   -1.826596   -0.627980
     26          1           0       -4.040157   -0.492880   -1.714965
     27          1           0       -0.741576    2.600227   -0.474367
     28          1           0        0.839040    3.097154    1.235399
     29          1           0        0.334663    1.644026    2.080287
     30          1           0        2.187353    2.983207   -0.825104
     31          1           0        3.902244    1.760357   -2.120380
     32          1           0        4.292997   -0.669037   -1.691152
     33          1           0        0.224016   -0.724369    1.709606
     34          1           0        1.529148   -2.961951    1.972187
     35          1           0        0.688041   -2.679014    0.430362
     36          1           0        2.907619   -2.942218   -0.455010
     37          1           0        3.663850   -2.344489    1.028123
 ---------------------------------------------------------------------

 SCF Done:  E(UB3LYP) =  -1053.49142127     A.U. after   33 cycles
 SCF Done:  E(UB3LYP) =  -1053.49142127     a.u. after    1 cycles

 The electronic state is 2-A.
 Alpha  occ. eigenvalues --  -88.74562 -14.23498 -14.21200 -10.11871 -10.11693
 Alpha  occ. eigenvalues --  -10.11636 -10.11199 -10.10532 -10.10168 -10.09298
 Alpha  occ. eigenvalues --  -10.08576 -10.08559 -10.08369 -10.08184 -10.08105
 Alpha  occ. eigenvalues --  -10.07662 -10.07444  -7.83186  -5.79562  -5.79228
 Alpha  occ. eigenvalues --   -5.78560  -0.86256  -0.82447  -0.75518  -0.73805
 Alpha  occ. eigenvalues --   -0.69935  -0.66458  -0.66236  -0.64508  -0.63468
 Alpha  occ. eigenvalues --   -0.57954  -0.53267  -0.53220  -0.52399  -0.50483
 Alpha  occ. eigenvalues --   -0.49335  -0.47790  -0.43775  -0.40592  -0.39830
 Alpha  occ. eigenvalues --   -0.38567  -0.38040  -0.37303  -0.36927  -0.35040
 Alpha  occ. eigenvalues --   -0.34684  -0.33341  -0.33161  -0.31928  -0.31096
 Alpha  occ. eigenvalues --   -0.30464  -0.29680  -0.29580  -0.28512  -0.27581
 Alpha  occ. eigenvalues --   -0.26739  -0.26486  -0.26061  -0.25300  -0.24693
 Alpha  occ. eigenvalues --   -0.23229  -0.21817  -0.20946  -0.16223  -0.14674
 Alpha  occ. eigenvalues --   -0.12747  -0.11459   0.04198
 Alpha virt. eigenvalues --    0.05574   0.05982   0.06749   0.06988   0.07427
 Alpha virt. eigenvalues --    0.07831   0.08533   0.08787   0.08957   0.09080
 Alpha virt. eigenvalues --    0.10024   0.10226   0.10682   0.10806   0.11496

  Beta  occ. eigenvalues --  -88.74560 -14.23495 -14.21191 -10.11864 -10.11689
  Beta  occ. eigenvalues --  -10.11635 -10.11192 -10.10509 -10.10158 -10.09282
  Beta  occ. eigenvalues --  -10.08574 -10.08560 -10.08357 -10.08169 -10.08081
  Beta  occ. eigenvalues --  -10.07651 -10.07428  -7.83183  -5.79561  -5.79224
  Beta  occ. eigenvalues --   -5.78557  -0.86249  -0.82431  -0.75501  -0.73779
  Beta  occ. eigenvalues --   -0.69919  -0.66431  -0.66209  -0.64485  -0.63444
  Beta  occ. eigenvalues --   -0.57928  -0.53232  -0.53188  -0.52360  -0.50461
  Beta  occ. eigenvalues --   -0.49305  -0.47737  -0.43748  -0.40561  -0.39804
  Beta  occ. eigenvalues --   -0.38543  -0.38015  -0.37275  -0.36901  -0.35009
  Beta  occ. eigenvalues --   -0.34658  -0.33314  -0.33137  -0.31889  -0.31069
  Beta  occ. eigenvalues --   -0.30440  -0.29662  -0.29556  -0.28495  -0.27558
  Beta  occ. eigenvalues --   -0.26709  -0.26451  -0.26039  -0.25277  -0.24653
  Beta  occ. eigenvalues --   -0.23204  -0.21791  -0.20929  -0.16210  -0.14658
  Beta  occ. eigenvalues --   -0.12733  -0.11447
  Beta virt. eigenvalues --    0.06077   0.06476   0.06682   0.06964   0.07478
  Beta virt. eigenvalues --    0.07893   0.08327   0.08671   0.08988   0.09321
  Beta virt. eigenvalues --    0.09400   0.10277   0.10458   0.11071   0.11128

 Mulliken charges and spin densities:
               1          2
     1  C    0.698632  -0.899871
     2  C   -0.293997   0.078588
     3  C   -1.279024   0.370710
     4  C    0.451271  -0.520051
     5  S    0.091651  -0.140602
     6  C   -0.003794  -0.583883
     7  N    0.258474  -0.073863
     8  C    0.079666  -0.823596
     9  C   -0.425290   0.984837
    10  C    0.411266  -0.861033
    11  C    0.317572  -0.653112
    12  C    0.266519  -0.838080
    13  C   -0.531203   0.816927
    14  C   -0.707646   0.854629
    15  N   -0.006087   0.046466
    16  C   -0.453154   0.145508
    17  C    1.574203  -1.895072
    18  H    0.090986   0.008254
    19  H   -0.726802   0.926550
    20  H   -0.178979   0.309604
    21  H   -0.047281   0.235263
    22  H    0.102222  -0.008259
    23  H   -0.186452   0.452110
    24  H    0.807380  -0.597768
    25  H   -0.296458   0.509826
    26  H    0.106274   0.068501
    27  H    0.119137   0.107379
    28  H   -0.192938   0.400081
    29  H    0.122443   0.023702
    30  H   -0.314353   0.476537
    31  H   -0.533077   0.703639
    32  H   -0.427139   0.597122
    33  H    0.128377   0.121120
    34  H   -0.130390   0.310157
    35  H    0.222178  -0.105099
    36  H   -0.244046   0.424583
    37  H    0.129861   0.028195
 Sum of Mulliken charges =  -1.00000   1.00000

 Dipole moment (field-independent basis, Debye):
    X=              1.7371    Y=             -1.8939    Z=              2.7291  Tot=              3.7487
 Quadrupole moment (field-independent basis, Debye-Ang):
   XX=           -215.9250   YY=           -163.8245   ZZ=           -148.3929
   XY=             -1.0267   XZ=              6.8697   YZ=              0.5262

 Summary of Natural Population Analysis:

                                       Natural Population
                Natural  -----------------------------------------------
    Atom  No    Charge         Core      Valence    Rydberg      Total
 -----------------------------------------------------------------------
      C    1   -0.19622      0.99961     2.18644    0.01016     3.19622
      C    2   -0.19065      0.99960     2.17976    0.01130     3.19065
      C    3   -0.01606      0.99956     2.00375    0.01275     3.01606
      C    4   -0.26094      0.99955     2.25066    0.01073     3.26094
      S    5    0.08059      4.99963     2.90288    0.01690     7.91941
      C    6   -0.24769      0.99959     2.23690    0.01119     3.24769
      N    7   -0.33506      0.99974     2.82358    0.01174     3.83506
      C    8   -0.09335      0.99958     2.08134    0.01243     3.09335
      C    9   -0.05345      0.99945     2.04369    0.01031     3.05345
      C   10   -0.09127      0.99952     2.08147    0.01028     3.09127
      C   11   -0.11302      0.99957     2.10308    0.01037     3.11302
      C   12   -0.09468      0.99951     2.08534    0.00984     3.09468
      C   13   -0.03299      0.99947     2.02359    0.00993     3.03299
      C   14    0.08659      0.99940     1.90224    0.01177     2.91341
      N   15   -0.32154      0.99969     2.81263    0.00923     3.82154
      C   16   -0.08236      0.99964     2.07277    0.00994     3.08236
      C   17   -0.19932      0.99961     2.19163    0.00808     3.19932
      H   18    0.09584      0.00000     0.40265    0.00151     0.40416
      H   19    0.10458      0.00000     0.39298    0.00244     0.39542
      H   20    0.09566      0.00000     0.40278    0.00155     0.40434
      H   21    0.10586      0.00000     0.39272    0.00142     0.39414
      H   22    0.08515      0.00000     0.41246    0.00239     0.41485
      H   23    0.09953      0.00000     0.39892    0.00155     0.40047
      H   24    0.11528      0.00000     0.38295    0.00177     0.38472
      H   25    0.10813      0.00000     0.39059    0.00127     0.39187
      H   26    0.09939      0.00000     0.39909    0.00151     0.40061
      H   27    0.17376      0.00000     0.32354    0.00270     0.32624
      H   28    0.10060      0.00000     0.39835    0.00105     0.39940
      H   29    0.09455      0.00000     0.40409    0.00136     0.40545
      H   30    0.10010      0.00000     0.39835    0.00156     0.39990
      H   31    0.10183      0.00000     0.39690    0.00127     0.39817
      H   32    0.10200      0.00000     0.39684    0.00116     0.39800
      H   33    0.18684      0.00000     0.31002    0.00314     0.31316
      H   34    0.09371      0.00000     0.40511    0.00118     0.40629
      H   35    0.08980      0.00000     0.40881    0.00139     0.41020
      H   36    0.10717      0.00000     0.39170    0.00113     0.39283
      H   37    0.10164      0.00000     0.39722    0.00115     0.39836
 =======================================================================
   * Total *    0.00000     20.99273    45.78781    0.21945    67.00000

 Normal termination of Gaussian 16 at Fri Dec 11 14:41:28 2020.
