 Gaussian 16, Revision A.03,

 -----------------------------------------------------------
 # opt freq B3LYP/6-31G(d) empiricaldispersion=gd3bj scf=xqc
 -----------------------------------------------------------

 ------------------------------
 CID_81801591_JID_4570_neutraal
 ------------------------------
 Symbolic Z-matrix:
 Charge =  0 Multiplicity = 1

 SCF Done:  E(RB3LYP) =  -686.527973356     A.U. after   15 cycles
 SCF Done:  E(RB3LYP) =  -686.549019812     A.U. after   13 cycles
 SCF Done:  E(RB3LYP) =  -686.546765439     A.U. after   13 cycles
 SCF Done:  E(RB3LYP) =  -686.549735018     A.U. after   13 cycles
 SCF Done:  E(RB3LYP) =  -686.551576879     A.U. after   13 cycles
 SCF Done:  E(RB3LYP) =  -686.552274599     A.U. after   13 cycles
 SCF Done:  E(RB3LYP) =  -686.551611622     A.U. after   13 cycles
 SCF Done:  E(RB3LYP) =  -686.553883593     A.U. after   12 cycles
 SCF Done:  E(RB3LYP) =  -686.552948057     A.U. after   15 cycles
 SCF Done:  E(RB3LYP) =  -686.555412368     A.U. after   13 cycles
 SCF Done:  E(RB3LYP) =  -686.556725086     A.U. after    9 cycles
 SCF Done:  E(RB3LYP) =  -686.556725291     A.U. after    8 cycles
 SCF Done:  E(RB3LYP) =  -686.556725386     A.U. after    8 cycles
 SCF Done:  E(RB3LYP) =  -686.556725458     A.U. after    8 cycles
 SCF Done:  E(RB3LYP) =  -686.556725466     A.U. after    6 cycles
 Optimization completed.
    -- Stationary point found.
 Normal termination of Gaussian 16 at Thu Dec 10 10:18:05 2020.

 --------------------------------------------------------------------
 #N Geom=AllCheck Guess=TCheck SCRF=Check GenChk RB3LYP/6-31G(d) Freq
 --------------------------------------------------------------------

 Structure from the checkpoint file:  "JID_4570.chk"
 ------------------------------
 CID_81801591_JID_4570_neutraal
 ------------------------------
 Charge =  0 Multiplicity = 1

 SCF Done:  E(RB3LYP) =  -686.556725466     A.U. after    1 cycles

  Exact polarizability: 109.397 -13.237 117.744   0.789  -0.646  99.418
 Approx polarizability: 141.035 -23.273 173.945  -4.838   4.077 161.132

                      1                      2                      3
                      A                      A                      A
 Frequencies --     27.2553                41.5314                55.9005
 Red. masses --      6.0112                 3.9359                 6.7867
 Frc consts  --      0.0026                 0.0040                 0.0125
 IR Inten    --      0.4373                 0.3776                 2.5840

                      4                      5                      6
                      A                      A                      A
 Frequencies --     60.2636                70.0992                94.2279
 Red. masses --      3.0948                 3.5445                 6.2918
 Frc consts  --      0.0066                 0.0103                 0.0329
 IR Inten    --      0.5185                 0.3423                 0.8036

                      7                      8                      9
                      A                      A                      A
 Frequencies --    126.2925               159.3084               202.7317
 Red. masses --      6.8303                 3.3705                 4.0913
 Frc consts  --      0.0642                 0.0504                 0.0991
 IR Inten    --      0.5353                 0.8489                 2.0593

                     10                     11                     12
                      A                      A                      A
 Frequencies --    238.4224               244.9873               252.9739
 Red. masses --      1.3088                 2.4715                 1.3422
 Frc consts  --      0.0438                 0.0874                 0.0506
 IR Inten    --      0.9368                 0.4227                 0.3634

                     13                     14                     15
                      A                      A                      A
 Frequencies --    270.1498               298.5843               338.1940
 Red. masses --      2.7867                 3.2095                 3.9326
 Frc consts  --      0.1198                 0.1686                 0.2650
 IR Inten    --      0.5690                 4.0680                 3.1192

                     16                     17                     18
                      A                      A                      A
 Frequencies --    338.9183               384.7029               416.0601
 Red. masses --      2.6711                 3.2355                 2.7119
 Frc consts  --      0.1808                 0.2821                 0.2766
 IR Inten    --      2.6702                 3.3460                 5.1517

                     19                     20                     21
                      A                      A                      A
 Frequencies --    455.9328               501.4746               557.0745
 Red. masses --      5.1572                 3.1527                 3.3500
 Frc consts  --      0.6316                 0.4671                 0.6125
 IR Inten    --     15.7069                22.5354                22.0394

                     22                     23                     24
                      A                      A                      A
 Frequencies --    602.5605               620.8968               629.9781
 Red. masses --      1.1976                 2.7787                 1.3060
 Frc consts  --      0.2562                 0.6312                 0.3054
 IR Inten    --     42.8321                53.4806               107.1182

                     25                     26                     27
                      A                      A                      A
 Frequencies --    638.0089               659.5603               717.3741
 Red. masses --      1.3344                 3.5903                 2.2698
 Frc consts  --      0.3200                 0.9202                 0.6882
 IR Inten    --     28.7649                15.0991                19.2102

                     28                     29                     30
                      A                      A                      A
 Frequencies --    754.7713               771.2942               787.5732
 Red. masses --      3.6785                 3.9193                 6.0886
 Frc consts  --      1.2347                 1.3737                 2.2251
 IR Inten    --     13.9710                31.1978                45.3369

                     31                     32                     33
                      A                      A                      A
 Frequencies --    811.8180               816.9297               941.6268
 Red. masses --      1.1915                 2.7528                 2.4216
 Frc consts  --      0.4627                 1.0824                 1.2650
 IR Inten    --      8.7772                 1.4684                 1.3161

                     34                     35                     36
                      A                      A                      A
 Frequencies --    967.1555               991.8479              1005.2043
 Red. masses --      2.8663                 1.7187                 2.0042
 Frc consts  --      1.5797                 0.9962                 1.1931
 IR Inten    --      9.0855                 3.2630                12.5976

                     37                     38                     39
                      A                      A                      A
 Frequencies --   1064.1208              1100.7406              1108.2776
 Red. masses --      2.3076                 1.8639                 2.1611
 Frc consts  --      1.5395                 1.3306                 1.5639
 IR Inten    --      2.4116                25.1308                16.5736

                     40                     41                     42
                      A                      A                      A
 Frequencies --   1120.9676              1152.8289              1195.5335
 Red. masses --      2.0497                 3.2938                 2.3784
 Frc consts  --      1.5175                 2.5791                 2.0029
 IR Inten    --      6.7447               285.6857                20.5409

                     43                     44                     45
                      A                      A                      A
 Frequencies --   1233.6379              1260.1926              1313.5796
 Red. masses --      2.5678                 2.6784                 1.5053
 Frc consts  --      2.3024                 2.5061                 1.5304
 IR Inten    --      7.2971                37.7627                75.0944

                     46                     47                     48
                      A                      A                      A
 Frequencies --   1319.0202              1339.7145              1368.9790
 Red. masses --      1.3456                 1.5113                 1.2219
 Frc consts  --      1.3793                 1.5982                 1.3493
 IR Inten    --      2.9467               124.8270                 3.5999

                     49                     50                     51
                      A                      A                      A
 Frequencies --   1377.9907              1402.2725              1409.5920
 Red. masses --      1.4611                 1.3438                 1.6138
 Frc consts  --      1.6347                 1.5569                 1.8892
 IR Inten    --     90.2646                20.3245                 9.1438

                     52                     53                     54
                      A                      A                      A
 Frequencies --   1434.1949              1440.2963              1468.8400
 Red. masses --      1.3548                 1.2631                 1.7772
 Frc consts  --      1.6419                 1.5439                 2.2591
 IR Inten    --     14.0139                13.9027               155.9560

                     55                     56                     57
                      A                      A                      A
 Frequencies --   1494.1416              1519.9559              1523.9432
 Red. masses --      1.5143                 1.0572                 1.0440
 Frc consts  --      1.9918                 1.4390                 1.4286
 IR Inten    --     35.0043                10.5979                12.3514

                     58                     59                     60
                      A                      A                      A
 Frequencies --   1524.9745              1532.8639              1534.7748
 Red. masses --      1.0505                 1.0658                 1.0666
 Frc consts  --      1.4393                 1.4754                 1.4802
 IR Inten    --      2.7147                 6.2242                 4.2442

                     61                     62                     63
                      A                      A                      A
 Frequencies --   1548.5397              1780.7215              1856.9718
 Red. masses --      1.1293                 7.1717                 9.7993
 Frc consts  --      1.5955                13.3987                19.9094
 IR Inten    --     57.9554               344.1040               232.6767

                     64                     65                     66
                      A                      A                      A
 Frequencies --   2248.0157              3038.4350              3042.0648
 Red. masses --      5.9311                 1.0683                 1.0622
 Frc consts  --     17.6598                 5.8107                 5.7913
 IR Inten    --      0.8164                32.1723                17.6379

                     67                     68                     69
                      A                      A                      A
 Frequencies --   3045.8239              3062.3366              3078.4209
 Red. masses --      1.0474                 1.0351                 1.0938
 Frc consts  --      5.7250                 5.7194                 6.1072
 IR Inten    --     35.4634                14.4668                11.7034

                     70                     71                     72
                      A                      A                      A
 Frequencies --   3105.7293              3106.6035              3133.4608
 Red. masses --      1.0989                 1.0854                 1.1023
 Frc consts  --      6.2451                 6.1717                 6.3769
 IR Inten    --     26.6362                14.0745                25.8150

                     73                     74                     75
                      A                      A                      A
 Frequencies --   3139.3362              3150.4909              3171.5561
 Red. masses --      1.1023                 1.1033                 1.0919
 Frc consts  --      6.4009                 6.4523                 6.4714
 IR Inten    --     17.9203                12.8398                 5.2950

                     76                     77                     78
                      A                      A                      A
 Frequencies --   3496.3532              3585.0194              3679.2756
 Red. masses --      1.1615                 1.0754                 1.0640
 Frc consts  --      8.3655                 8.1433                 8.4866
 IR Inten    --     55.1228                25.9533                50.7670

 - Thermochemistry -
 -------------------
 Temperature   298.150 Kelvin.  Pressure   1.00000 Atm.
 Atom     1 has atomic number  6 and mass  12.00000

 Molecular mass:   198.10044 amu.
 Principal axes and moments of inertia in atomic units:
                           1         2         3
     Eigenvalues --  2398.907972877.734043545.80875
           X            0.98866  -0.14461   0.04037
           Y            0.14586   0.98885  -0.02990
           Z           -0.03560   0.03545   0.99874
 This molecule is an asymmetric top.
 Rotational symmetry number  1.
 Warning -- assumption of classical behavior for rotation
           may cause significant error
 Rotational temperatures (Kelvin)      0.03611     0.03010     0.02443
 Rotational constants (GHZ):           0.75232     0.62714     0.50898
 Zero-point vibrational energy     606281.0 (Joules/Mol)
                                  144.90464 (Kcal/Mol)
 Warning -- explicit consideration of  22 degrees of freedom as
           vibrations may cause significant error
 Vibrational temperatures:     39.21    59.75    80.43    86.71   100.86
          (Kelvin)            135.57   181.71   229.21   291.69   343.04
                              352.48   363.97   388.69   429.60   486.59
                              487.63   553.50   598.62   655.99   721.51
                              801.51   866.95   893.33   906.40   917.95
                              948.96  1032.14  1085.95  1109.72  1133.14
                             1168.03  1175.38  1354.79  1391.52  1427.05
                             1446.26  1531.03  1583.72  1594.56  1612.82
                             1658.66  1720.11  1774.93  1813.14  1889.95
                             1897.78  1927.55  1969.66  1982.62  2017.56
                             2028.09  2063.49  2072.27  2113.33  2149.74
                             2186.88  2192.61  2194.10  2205.45  2208.20
                             2228.00  2562.06  2671.77  3234.39  4371.63
                             4376.85  4382.26  4406.02  4429.16  4468.45
                             4469.71  4508.35  4516.80  4532.85  4563.16
                             5030.47  5158.04  5293.66

 Zero-point correction=                           0.230920 (Hartree/Particle)
 Thermal correction to Energy=                    0.246607
 Thermal correction to Enthalpy=                  0.247551
 Thermal correction to Gibbs Free Energy=         0.186693
 Sum of electronic and zero-point Energies=           -686.325805
 Sum of electronic and thermal Energies=              -686.310119
 Sum of electronic and thermal Enthalpies=            -686.309175
 Sum of electronic and thermal Free Energies=         -686.370032

                     E (Thermal)             CV                S
                      KCal/Mol        Cal/Mol-Kelvin    Cal/Mol-Kelvin
 Total                  154.748             56.211            128.085
 Electronic               0.000              0.000              0.000
 Translational            0.889              2.981             41.756
 Rotational               0.889              2.981             31.571
 Vibrational            152.970             50.249             54.758
 Vibration     1          0.593              1.984              6.020
 Vibration     2          0.594              1.981              5.185
 Vibration     3          0.596              1.975              4.597
 Vibration     4          0.597              1.973              4.449
 Vibration     5          0.598              1.968              4.151
 Vibration     6          0.603              1.953              3.570
 Vibration     7          0.611              1.927              3.002
 Vibration     8          0.621              1.892              2.558
 Vibration     9          0.639              1.836              2.108
 Vibration    10          0.656              1.782              1.815
 Vibration    11          0.660              1.771              1.766
 Vibration    12          0.664              1.758              1.710
 Vibration    13          0.674              1.728              1.595
 Vibration    14          0.692              1.676              1.425
 Vibration    15          0.719              1.599              1.221
 Vibration    16          0.719              1.598              1.217
 Vibration    17          0.754              1.503              1.021
 Vibration    18          0.779              1.435              0.905
 Vibration    19          0.814              1.348              0.778
 Vibration    20          0.857              1.247              0.654
 Vibration    21          0.913              1.124              0.530
 Vibration    22          0.961              1.026              0.445

                           ! Non-Optimized Parameters !
 Normal termination of Gaussian 16 at Thu Dec 10 10:26:10 2020.

 ----------------------------------------------------------------------
 # B3LYP/6-311++G(d,p) empiricaldispersion=gd3bj scf=xqc pop=npa geom=c
 heck
 ----------------------------------------------------------------------

 --------------------------------------
 CID_81801591_JID_4570_Energie_neutraal
 --------------------------------------
 Structure from the checkpoint file:  "JID_4570.chk"
 Charge =  0 Multiplicity = 1

 SCF Done:  E(RB3LYP) =  -686.772455593     A.U. after   14 cycles
 Normal termination of Gaussian 16 at Thu Dec 10 10:29:25 2020.

 ----------------------------------------------------------------------
 # B3LYP/6-311++G(d,p) empiricaldispersion=gd3bj scf=xqc pop=npa geom=c
 heck
 ----------------------------------------------------------------------

 ------------------------------------
 CID_81801591_JID_4570_Energie_kation
 ------------------------------------
 Structure from the checkpoint file:  "JID_4570.chk"
 Charge =  1 Multiplicity = 2

 SCF Done:  E(UB3LYP) =  -686.455586284     A.U. after   31 cycles
 Normal termination of Gaussian 16 at Thu Dec 10 10:39:29 2020.
 Gaussian 16:  ES64L-G16RevA.03 25-Dec-2016

 ----------------------------------------------------------------------
 # B3LYP/6-311++G(d,p) empiricaldispersion=gd3bj scf=xqc pop=npa geom=c
 heck
 ----------------------------------------------------------------------

 -----------------------------------
 CID_81801591_JID_4570_Energie_anion
 -----------------------------------
 Structure from the checkpoint file:  "JID_4570.chk"
 Charge = -1 Multiplicity = 2

                         Standard orientation:
 ---------------------------------------------------------------------
 Center     Atomic      Atomic             Coordinates (Angstroms)
 Number     Number       Type             X           Y           Z
 ---------------------------------------------------------------------
      1          6           0        2.517616   -1.888349    0.677794
      2          6           0        2.579598   -0.605775   -0.152518
      3          7           0        1.317244    0.134506   -0.099536
      4          6           0        1.060503    0.899158    1.123955
      5          6           0        0.707506    2.303312    0.900997
      6          6           0        0.402475    3.460426    0.749885
      7          6           0        0.562296    0.188500   -1.260823
      8          8           0        1.017598   -0.112916   -2.358232
      9          7           0       -0.760662    0.617114   -1.151352
     10          6           0       -1.657569    0.278023   -0.059467
     11          6           0       -3.109443    0.445997   -0.528271
     12          6           0       -1.465431   -1.161016    0.422609
     13          8           0       -1.168123   -2.107105   -0.267243
     14          8           0       -1.710474   -1.263862    1.754754
     15          1           0        2.334359   -1.674976    1.738396
     16          1           0        3.462163   -2.439643    0.607147
     17          1           0        1.708349   -2.529569    0.314105
     18          1           0        3.391231    0.046922    0.195408
     19          1           0        2.764827   -0.831136   -1.202052
     20          1           0        0.302163    0.423992    1.759979
     21          1           0        1.988978    0.863312    1.704562
     22          1           0        0.145982    4.483594    0.594381
     23          1           0       -1.183192    0.532491   -2.068395
     24          1           0       -1.501303    0.951030    0.786756
     25          1           0       -3.330521   -0.249832   -1.344960
     26          1           0       -3.802428    0.250489    0.294411
     27          1           0       -3.262742    1.470471   -0.880184
     28          1           0       -1.611259   -2.209085    1.977472
 ---------------------------------------------------------------------

 SCF Done:  E(UB3LYP) =  -686.763329139     A.U. after   33 cycles
 SCF Done:  E(UB3LYP) =  -686.763329139     a.u. after    1 cycles

 The electronic state is 2-A.
 Alpha  occ. eigenvalues --  -19.07104 -19.01924 -18.98315 -14.24515 -14.23339
 Alpha  occ. eigenvalues --  -10.20706 -10.19770 -10.14306 -10.13315 -10.10636
 Alpha  occ. eigenvalues --  -10.08916 -10.08482 -10.07865 -10.06389  -1.01220
 Alpha  occ. eigenvalues --   -0.95247  -0.92502  -0.84808  -0.82530  -0.69531
 Alpha  occ. eigenvalues --   -0.68614  -0.65286  -0.61876  -0.58365  -0.54874
 Alpha  occ. eigenvalues --   -0.51101  -0.48209  -0.44926  -0.42929  -0.42339
 Alpha  occ. eigenvalues --   -0.40422  -0.39843  -0.38219  -0.37268  -0.36038
 Alpha  occ. eigenvalues --   -0.35198  -0.33450  -0.32787  -0.32066  -0.31478
 Alpha  occ. eigenvalues --   -0.30594  -0.29545  -0.28439  -0.28009  -0.27115
 Alpha  occ. eigenvalues --   -0.25592  -0.22986  -0.20214  -0.19373  -0.18747
 Alpha  occ. eigenvalues --   -0.17612  -0.15745  -0.14897   0.04181
 Alpha virt. eigenvalues --    0.06304   0.06700   0.07713   0.08555   0.08700
 Alpha virt. eigenvalues --    0.09775   0.09947   0.10157   0.10546   0.11331
 Alpha virt. eigenvalues --    0.11921   0.12683   0.12734   0.13025   0.13347

  Beta  occ. eigenvalues --  -19.07035 -19.01887 -18.98314 -14.24514 -14.23333
  Beta  occ. eigenvalues --  -10.20680 -10.19769 -10.14280 -10.13302 -10.10628
  Beta  occ. eigenvalues --  -10.08914 -10.08439 -10.07845 -10.06358  -1.01121
  Beta  occ. eigenvalues --   -0.95242  -0.92409  -0.84800  -0.82511  -0.69502
  Beta  occ. eigenvalues --   -0.68566  -0.65256  -0.61840  -0.58248  -0.54829
  Beta  occ. eigenvalues --   -0.50996  -0.48176  -0.44878  -0.42879  -0.42289
  Beta  occ. eigenvalues --   -0.40384  -0.39794  -0.38181  -0.37228  -0.35996
  Beta  occ. eigenvalues --   -0.35106  -0.33422  -0.32748  -0.32012  -0.31456
  Beta  occ. eigenvalues --   -0.30560  -0.29502  -0.28401  -0.27949  -0.27082
  Beta  occ. eigenvalues --   -0.25566  -0.22864  -0.20181  -0.19331  -0.18710
  Beta  occ. eigenvalues --   -0.17600  -0.15724  -0.14887
  Beta virt. eigenvalues --    0.06540   0.07170   0.07594   0.08552   0.08817
  Beta virt. eigenvalues --    0.09115   0.10061   0.10333   0.10410   0.10653
  Beta virt. eigenvalues --    0.11615   0.12087   0.12830   0.13184   0.13228

 Mulliken charges and spin densities:
               1          2
     1  C    0.216423  -0.584758
     2  C   -0.309363   0.135104
     3  N    0.121494   0.055711
     4  C   -1.449551   0.694451
     5  C    3.593974  -2.824806
     6  C   -1.704319   0.987016
     7  C   -0.016530  -0.060069
     8  O   -0.352441   0.005075
     9  N   -0.182534   0.114783
    10  C   -0.746973   0.584174
    11  C    1.268466  -2.000904
    12  C    0.347862  -0.430249
    13  O   -0.236873   0.059736
    14  O   -0.180808   0.120572
    15  H   -0.186381   0.330691
    16  H   -0.189769   0.328086
    17  H    0.106997   0.065624
    18  H    0.124652   0.018646
    19  H    0.176049   0.004014
    20  H   -0.010570   0.247360
    21  H   -0.425937   0.641279
    22  H   -0.683185   0.862778
    23  H    0.277297   0.020339
    24  H    0.406326  -0.164491
    25  H    0.095821   0.066229
    26  H   -0.368126   0.541192
    27  H   -0.191797   0.364597
    28  H   -0.500204   0.817820
 Sum of Mulliken charges =  -1.00000   1.00000

 Dipole moment (field-independent basis, Debye):
    X=              1.6313    Y=              1.2935    Z=             -3.1286  Tot=              3.7580
 Quadrupole moment (field-independent basis, Debye-Ang):
   XX=           -127.1043   YY=           -134.5336   ZZ=           -130.4712
   XY=             -0.6312   XZ=              5.7259   YZ=              4.5317

 Summary of Natural Population Analysis:

                                       Natural Population
                Natural  -----------------------------------------------
    Atom  No    Charge         Core      Valence    Rydberg      Total
 -----------------------------------------------------------------------
      C    1   -0.29290      0.99966     2.28820    0.00504     3.29290
      C    2   -0.08335      0.99962     2.07346    0.01027     3.08335
      N    3   -0.27077      0.99964     2.75907    0.01207     3.77077
      C    4   -0.13078      0.99953     2.11808    0.01317     3.13078
      C    5   -0.00592      0.99935     1.99910    0.00747     3.00592
      C    6   -0.10707      0.99924     2.10430    0.00353     3.10707
      C    7    0.42142      0.99966     1.55593    0.02299     2.57858
      O    8   -0.33710      0.99987     3.33267    0.00456     4.33710
      N    9   -0.32917      0.99967     2.81920    0.01030     3.82917
      C   10   -0.06044      0.99955     2.04679    0.01411     3.06044
      C   11   -0.28142      0.99964     2.27610    0.00568     3.28142
      C   12    0.40349      0.99969     1.56977    0.02706     2.59651
      O   13   -0.29982      0.99987     3.29358    0.00637     4.29982
      O   14   -0.34506      0.99988     3.33752    0.00766     4.34506
      H   15    0.09817      0.00000     0.39990    0.00193     0.40183
      H   16    0.09682      0.00000     0.40238    0.00080     0.40318
      H   17    0.10789      0.00000     0.39097    0.00114     0.39211
      H   18    0.08700      0.00000     0.41193    0.00106     0.41300
      H   19    0.11518      0.00000     0.38365    0.00117     0.38482
      H   20    0.11545      0.00000     0.38172    0.00283     0.38455
      H   21    0.11750      0.00000     0.38102    0.00148     0.38250
      H   22    0.11223      0.00000     0.38630    0.00147     0.38777
      H   23    0.19284      0.00000     0.30488    0.00228     0.30716
      H   24    0.11044      0.00000     0.38652    0.00304     0.38956
      H   25    0.10063      0.00000     0.39827    0.00111     0.39937
      H   26    0.11134      0.00000     0.38759    0.00108     0.38866
      H   27    0.10597      0.00000     0.39268    0.00135     0.39403
      H   28    0.24745      0.00000     0.23151    0.02104     0.25255
 =======================================================================
   * Total *   -0.00000     13.99487    38.81309    0.19203    53.00000

 Normal termination of Gaussian 16 at Thu Dec 10 10:50:05 2020.
