 Gaussian 16, Revision A.03,

 -----------------------------------------------------------
 # opt freq B3LYP/6-31G(d) empiricaldispersion=gd3bj scf=xqc
 -----------------------------------------------------------

 ------------------------------
 CID_11074143_JID_4498_neutraal
 ------------------------------
 Symbolic Z-matrix:
 Charge =  0 Multiplicity = 1

 SCF Done:  E(RB3LYP) =  -595.118853333     A.U. after   15 cycles
 SCF Done:  E(RB3LYP) =  -595.122139554     A.U. after   14 cycles
 SCF Done:  E(RB3LYP) =  -595.121151575     A.U. after   13 cycles
 SCF Done:  E(RB3LYP) =  -595.122834452     A.U. after   13 cycles
 SCF Done:  E(RB3LYP) =  -595.122897048     A.U. after   11 cycles
 SCF Done:  E(RB3LYP) =  -595.122915903     A.U. after   11 cycles
 SCF Done:  E(RB3LYP) =  -595.122925952     A.U. after   10 cycles
 SCF Done:  E(RB3LYP) =  -595.122931207     A.U. after   10 cycles
 SCF Done:  E(RB3LYP) =  -595.122946274     A.U. after   11 cycles
 SCF Done:  E(RB3LYP) =  -595.123129017     A.U. after   14 cycles
 SCF Done:  E(RB3LYP) =  -595.124365309     A.U. after   11 cycles
 SCF Done:  E(RB3LYP) =  -595.124371034     A.U. after   10 cycles
 SCF Done:  E(RB3LYP) =  -595.124371171     A.U. after    8 cycles
 SCF Done:  E(RB3LYP) =  -595.124371201     A.U. after    7 cycles
 SCF Done:  E(RB3LYP) =  -595.124371206     A.U. after    6 cycles
 Optimization completed.
    -- Stationary point found.
 Normal termination of Gaussian 16 at Thu Dec 10 10:12:29 2020.

 --------------------------------------------------------------------
 #N Geom=AllCheck Guess=TCheck SCRF=Check GenChk RB3LYP/6-31G(d) Freq
 --------------------------------------------------------------------

 Structure from the checkpoint file:  "JID_4498.chk"
 ------------------------------
 CID_11074143_JID_4498_neutraal
 ------------------------------
 Charge =  0 Multiplicity = 1

 SCF Done:  E(RB3LYP) =  -595.124371206     A.U. after    1 cycles

  Exact polarizability: 157.144  12.924 117.672   7.891 -20.507 101.639
 Approx polarizability: 211.379  24.877 193.660  18.314 -57.232 170.829

                      1                      2                      3
                      A                      A                      A
 Frequencies --     28.9399                38.6473                40.8388
 Red. masses --      1.0826                 3.5403                 3.3278
 Frc consts  --      0.0005                 0.0031                 0.0033
 IR Inten    --      0.2561                 1.0802                 0.1354

                      4                      5                      6
                      A                      A                      A
 Frequencies --     61.7455                85.1680               122.1213
 Red. masses --      2.3405                 3.7319                 6.6690
 Frc consts  --      0.0053                 0.0159                 0.0586
 IR Inten    --      4.8474                 0.1261                 3.2339

                      7                      8                      9
                      A                      A                      A
 Frequencies --    127.8931               160.7223               210.1035
 Red. masses --      7.1452                 3.3776                 1.1851
 Frc consts  --      0.0689                 0.0514                 0.0308
 IR Inten    --      6.2363                 2.9757                 0.3914

                     10                     11                     12
                      A                      A                      A
 Frequencies --    239.4772               281.4364               316.3306
 Red. masses --      3.8650                 4.3343                 3.9019
 Frc consts  --      0.1306                 0.2023                 0.2300
 IR Inten    --      2.7846                 5.8256                 1.5688

                     13                     14                     15
                      A                      A                      A
 Frequencies --    374.4188               382.7385               397.9774
 Red. masses --      4.1046                 4.3841                 5.8234
 Frc consts  --      0.3390                 0.3784                 0.5434
 IR Inten    --      2.1784                 1.1510                 1.0803

                     16                     17                     18
                      A                      A                      A
 Frequencies --    417.4418               485.1419               500.2030
 Red. masses --      3.0467                 7.2616                 2.8598
 Frc consts  --      0.3128                 1.0070                 0.4216
 IR Inten    --      0.0664                 5.0086                 4.3929

                     19                     20                     21
                      A                      A                      A
 Frequencies --    556.9246               598.3559               656.2252
 Red. masses --      3.0466                 4.0266                 6.5287
 Frc consts  --      0.5568                 0.8494                 1.6565
 IR Inten    --      7.8667                 0.2266                 2.5564

                     22                     23                     24
                      A                      A                      A
 Frequencies --    664.5301               726.0373               754.0614
 Red. masses --      4.4890                 3.6179                 2.7455
 Frc consts  --      1.1680                 1.1236                 0.9198
 IR Inten    --     17.7108                 3.8036                 4.8170

                     25                     26                     27
                      A                      A                      A
 Frequencies --    781.1777               817.0238               838.8706
 Red. masses --      2.9678                 1.6925                 1.7922
 Frc consts  --      1.0671                 0.6657                 0.7431
 IR Inten    --      3.0421                 7.6569                 8.8242

                     28                     29                     30
                      A                      A                      A
 Frequencies --    859.9095               868.0864               969.2471
 Red. masses --      1.2523                 3.1158                 1.3024
 Frc consts  --      0.5456                 1.3834                 0.7209
 IR Inten    --      0.1765                 3.0774                 0.0966

                     31                     32                     33
                      A                      A                      A
 Frequencies --    972.3359              1004.4333              1013.2898
 Red. masses --      1.3189                 2.3142                 2.1327
 Frc consts  --      0.7347                 1.3756                 1.2902
 IR Inten    --      0.2275                 3.2811                 5.1489

                     34                     35                     36
                      A                      A                      A
 Frequencies --   1027.8221              1046.1641              1076.6139
 Red. masses --      1.6868                 2.9686                 1.5397
 Frc consts  --      1.0499                 1.9143                 1.0515
 IR Inten    --      2.1121                 4.9174                 6.4338

                     37                     38                     39
                      A                      A                      A
 Frequencies --   1078.2660              1109.1641              1142.6871
 Red. masses --      2.6112                 1.7769                 2.6344
 Frc consts  --      1.7887                 1.2879                 2.0267
 IR Inten    --     52.3381                 0.8546                85.9847

                     40                     41                     42
                      A                      A                      A
 Frequencies --   1158.3813              1203.0582              1227.7697
 Red. masses --      1.3214                 2.5742                 1.1518
 Frc consts  --      1.0447                 2.1952                 1.0230
 IR Inten    --      4.6723                 0.7552                 4.7314

                     43                     44                     45
                      A                      A                      A
 Frequencies --   1243.8876              1247.3620              1298.2826
 Red. masses --      1.4295                 2.9435                 1.1855
 Frc consts  --      1.3032                 2.6984                 1.1774
 IR Inten    --      1.7693                 1.5425                 0.2781

                     46                     47                     48
                      A                      A                      A
 Frequencies --   1314.0995              1358.1382              1368.0661
 Red. masses --      1.6712                 2.0838                 1.9157
 Frc consts  --      1.7003                 2.2646                 2.1125
 IR Inten    --      1.3294                 0.1765                 0.8085

                     49                     50                     51
                      A                      A                      A
 Frequencies --   1399.7992              1443.6496              1444.1195
 Red. masses --      1.7181                 1.2451                 1.2389
 Frc consts  --      1.9835                 1.5289                 1.5222
 IR Inten    --     25.2695                 0.2993                 4.2730

                     52                     53                     54
                      A                      A                      A
 Frequencies --   1463.3545              1481.5734              1517.0721
 Red. masses --      2.4722                 1.0892                 1.0507
 Frc consts  --      3.1191                 1.4087                 1.4248
 IR Inten    --      5.0433                11.1956                 6.1573

                     55                     56                     57
                      A                      A                      A
 Frequencies --   1522.9704              1525.3889              1529.5690
 Red. masses --      1.1076                 1.0385                 1.0499
 Frc consts  --      1.5137                 1.4237                 1.4472
 IR Inten    --      9.9559                 6.7570                 8.0311

                     58                     59                     60
                      A                      A                      A
 Frequencies --   1564.2642              1636.0683              1675.1252
 Red. masses --      2.4041                 5.7759                 5.6933
 Frc consts  --      3.4660                 9.1090                 9.4126
 IR Inten    --     30.5932                 1.1560                 0.7557

                     61                     62                     63
                      A                      A                      A
 Frequencies --   1822.1363              2364.7205              3043.7442
 Red. masses --     11.1768                12.6657                 1.0617
 Frc consts  --     21.8639                41.7291                 5.7952
 IR Inten    --    157.7866                10.7693                10.8104

                     64                     65                     66
                      A                      A                      A
 Frequencies --   3045.4566              3069.3614              3073.2362
 Red. masses --      1.0396                 1.0369                 1.0970
 Frc consts  --      5.6812                 5.7553                 6.1046
 IR Inten    --     28.5524                23.0803                 5.2836

                     67                     68                     69
                      A                      A                      A
 Frequencies --   3084.4172              3102.1166              3129.9662
 Red. masses --      1.0834                 1.0972                 1.1024
 Frc consts  --      6.0726                 6.2207                 6.3630
 IR Inten    --      1.1310                18.3343                14.8935

                     70                     71                     72
                      A                      A                      A
 Frequencies --   3138.5784              3145.7035              3183.7702
 Red. masses --      1.1034                 1.1028                 1.0881
 Frc consts  --      6.4040                 6.4295                 6.4982
 IR Inten    --     20.9275                18.3093                12.7653

                     73                     74                     75
                      A                      A                      A
 Frequencies --   3186.1762              3204.6896              3207.6858
 Red. masses --      1.0883                 1.0935                 1.0936
 Frc consts  --      6.5097                 6.6169                 6.6299
 IR Inten    --     13.6921                 8.8696                 2.2249

 - Thermochemistry -
 -------------------
 Temperature   298.150 Kelvin.  Pressure   1.00000 Atm.
 Atom     1 has atomic number  6 and mass  12.00000

 Molecular mass:   187.09971 amu.
 Principal axes and moments of inertia in atomic units:
                           1         2         3
     Eigenvalues --  1693.690834197.943014849.17723
           X            0.99987  -0.01328  -0.00946
           Y            0.01350   0.99964   0.02332
           Z            0.00914  -0.02344   0.99968
 This molecule is an asymmetric top.
 Rotational symmetry number  1.
 Warning -- assumption of classical behavior for rotation
           may cause significant error
 Rotational temperatures (Kelvin)      0.05114     0.02063     0.01786
 Rotational constants (GHZ):           1.06557     0.42991     0.37217
 Zero-point vibrational energy     581722.0 (Joules/Mol)
                                  139.03490 (Kcal/Mol)
 Warning -- explicit consideration of  20 degrees of freedom as
           vibrations may cause significant error
 Vibrational temperatures:     41.64    55.60    58.76    88.84   122.54
          (Kelvin)            175.71   184.01   231.24   302.29   344.55
                              404.92   455.13   538.71   550.68   572.60
                              600.61   698.01   719.68   801.29   860.90
                              944.16   956.11  1044.61  1084.93  1123.94
                             1175.52  1206.95  1237.22  1248.98  1394.53
                             1398.97  1445.16  1457.90  1478.81  1505.20
                             1549.01  1551.38  1595.84  1644.07  1666.65
                             1730.93  1766.49  1789.68  1794.68  1867.94
                             1890.70  1954.06  1968.34  2014.00  2077.09
                             2077.77  2105.44  2131.65  2182.73  2191.21
                             2194.69  2200.71  2250.63  2353.94  2410.13
                             2621.65  3402.31  4379.27  4381.73  4416.13
                             4421.70  4437.79  4463.25  4503.32  4515.71
                             4525.97  4580.74  4584.20  4610.83  4615.14

 Zero-point correction=                           0.221566 (Hartree/Particle)
 Thermal correction to Energy=                    0.235826
 Thermal correction to Enthalpy=                  0.236770
 Thermal correction to Gibbs Free Energy=         0.178288
 Sum of electronic and zero-point Energies=           -594.902805
 Sum of electronic and thermal Energies=              -594.888545
 Sum of electronic and thermal Enthalpies=            -594.887601
 Sum of electronic and thermal Free Energies=         -594.946083

                     E (Thermal)             CV                S
                      KCal/Mol        Cal/Mol-Kelvin    Cal/Mol-Kelvin
 Total                  147.983             51.253            123.086
 Electronic               0.000              0.000              0.000
 Translational            0.889              2.981             41.585
 Rotational               0.889              2.981             31.911
 Vibrational            146.206             45.292             49.589
 Vibration     1          0.593              1.984              5.901
 Vibration     2          0.594              1.981              5.327
 Vibration     3          0.594              1.981              5.218
 Vibration     4          0.597              1.973              4.401
 Vibration     5          0.601              1.959              3.768
 Vibration     6          0.610              1.931              3.067
 Vibration     7          0.611              1.925              2.977
 Vibration     8          0.622              1.891              2.541
 Vibration     9          0.642              1.825              2.043
 Vibration    10          0.657              1.780              1.807
 Vibration    11          0.681              1.708              1.525
 Vibration    12          0.703              1.642              1.329
 Vibration    13          0.746              1.525              1.062
 Vibration    14          0.752              1.507              1.028
 Vibration    15          0.764              1.474              0.970
 Vibration    16          0.780              1.432              0.901
 Vibration    17          0.841              1.283              0.696
 Vibration    18          0.856              1.250              0.658
 Vibration    19          0.912              1.125              0.530
 Vibration    20          0.956              1.035              0.452

 Optimization completed.
    -- Stationary point found.
 Normal termination of Gaussian 16 at Thu Dec 10 10:19:18 2020.

 ----------------------------------------------------------------------
 # B3LYP/6-311++G(d,p) empiricaldispersion=gd3bj scf=xqc pop=npa geom=c
 heck
 ----------------------------------------------------------------------

 --------------------------------------
 CID_11074143_JID_4498_Energie_neutraal
 --------------------------------------
 Structure from the checkpoint file:  "JID_4498.chk"
 Charge =  0 Multiplicity = 1

 SCF Done:  E(RB3LYP) =  -595.285797146     A.U. after   16 cycles
 Normal termination of Gaussian 16 at Thu Dec 10 10:22:15 2020.

 ----------------------------------------------------------------------
 # B3LYP/6-311++G(d,p) empiricaldispersion=gd3bj scf=xqc pop=npa geom=c
 heck
 ----------------------------------------------------------------------

 ------------------------------------
 CID_11074143_JID_4498_Energie_kation
 ------------------------------------
 Structure from the checkpoint file:  "JID_4498.chk"
 Charge =  1 Multiplicity = 2

 SCF Done:  E(UB3LYP) =  -594.966628606     A.U. after   24 cycles
 Normal termination of Gaussian 16 at Thu Dec 10 10:27:49 2020.
 Gaussian 16:  ES64L-G16RevA.03 25-Dec-2016

 ----------------------------------------------------------------------
 # B3LYP/6-311++G(d,p) empiricaldispersion=gd3bj scf=xqc pop=npa geom=c
 heck
 ----------------------------------------------------------------------

 -----------------------------------
 CID_11074143_JID_4498_Energie_anion
 -----------------------------------
 Structure from the checkpoint file:  "JID_4498.chk"
 Charge = -1 Multiplicity = 2

                         Standard orientation:
 ---------------------------------------------------------------------
 Center     Atomic      Atomic             Coordinates (Angstroms)
 Number     Number       Type             X           Y           Z
 ---------------------------------------------------------------------
      1          6           0        2.968185   -1.928449   -1.403040
      2          6           0        2.387733   -0.574791   -1.005356
      3          6           0        1.963483   -0.516069    0.445079
      4          8           0        2.191043   -1.387769    1.255106
      5          6           0        1.112384    0.713975    0.886571
      6          6           0        1.625066    1.961722    0.323555
      7          7           0        2.050356    2.933712   -0.147527
      8          6           0       -0.341162    0.433054    0.501460
      9          6           0       -0.993711    1.125141   -0.519600
     10          6           0       -2.306027    0.796202   -0.860416
     11          6           0       -2.993647   -0.225707   -0.198812
     12          6           0       -2.323016   -0.919319    0.818298
     13          6           0       -1.014975   -0.598611    1.165799
     14          6           0       -4.422369   -0.560362   -0.549133
     15          1           0        3.833996   -2.178053   -0.783652
     16          1           0        3.280975   -1.917334   -2.451469
     17          1           0        2.228530   -2.723765   -1.270193
     18          1           0        3.112810    0.235126   -1.168210
     19          1           0        1.517687   -0.307522   -1.620298
     20          1           0        1.201118    0.761778    1.977006
     21          1           0       -0.484572    1.928614   -1.043391
     22          1           0       -2.802428    1.347237   -1.655069
     23          1           0       -2.832939   -1.722777    1.344044
     24          1           0       -0.504169   -1.157534    1.944716
     25          1           0       -5.120418   -0.112701    0.170093
     26          1           0       -4.688767   -0.185528   -1.542137
     27          1           0       -4.594323   -1.642082   -0.536017
 ---------------------------------------------------------------------

 SCF Done:  E(UB3LYP) =  -595.285286514     A.U. after   33 cycles
 SCF Done:  E(UB3LYP) =  -595.285286514     a.u. after    1 cycles

 The electronic state is 2-A.
 Alpha  occ. eigenvalues --  -18.95779 -14.19289 -10.09951 -10.09353 -10.09222
 Alpha  occ. eigenvalues --  -10.05956 -10.05770 -10.05300 -10.05297 -10.05204
 Alpha  occ. eigenvalues --  -10.05125 -10.05046 -10.04835 -10.04586  -0.90075
 Alpha  occ. eigenvalues --   -0.79288  -0.74189  -0.68843  -0.65615  -0.62970
 Alpha  occ. eigenvalues --   -0.62514  -0.56156  -0.53011  -0.49301  -0.46320
 Alpha  occ. eigenvalues --   -0.42008  -0.39711  -0.37856  -0.34820  -0.34170
 Alpha  occ. eigenvalues --   -0.33735  -0.33020  -0.31161  -0.30448  -0.30193
 Alpha  occ. eigenvalues --   -0.29545  -0.27544  -0.26263  -0.25516  -0.25310
 Alpha  occ. eigenvalues --   -0.24563  -0.23553  -0.23201  -0.22513  -0.22197
 Alpha  occ. eigenvalues --   -0.21621  -0.20766  -0.13667  -0.13294  -0.10684
 Alpha  occ. eigenvalues --    0.05035
 Alpha virt. eigenvalues --    0.07147   0.08239   0.09244   0.09641   0.09949
 Alpha virt. eigenvalues --    0.10233   0.10870   0.11106   0.11703   0.12222
 Alpha virt. eigenvalues --    0.12476   0.13128   0.14003   0.14354   0.14611

  Beta  occ. eigenvalues --  -18.95365 -14.19258 -10.09519 -10.09326 -10.09265
  Beta  occ. eigenvalues --  -10.05957 -10.05593 -10.05342 -10.05266 -10.05120
  Beta  occ. eigenvalues --  -10.05086 -10.05050 -10.04803 -10.04475  -0.89277
  Beta  occ. eigenvalues --   -0.79220  -0.73963  -0.68536  -0.65469  -0.62824
  Beta  occ. eigenvalues --   -0.62367  -0.55972  -0.52795  -0.49199  -0.46037
  Beta  occ. eigenvalues --   -0.41469  -0.39384  -0.37669  -0.34610  -0.33866
  Beta  occ. eigenvalues --   -0.33531  -0.32886  -0.30920  -0.30230  -0.30124
  Beta  occ. eigenvalues --   -0.29259  -0.27468  -0.25945  -0.25383  -0.24957
  Beta  occ. eigenvalues --   -0.24340  -0.23359  -0.22933  -0.22193  -0.21720
  Beta  occ. eigenvalues --   -0.21099  -0.19952  -0.13234  -0.12619  -0.10156
  Beta virt. eigenvalues --    0.07317   0.08217   0.09186   0.09452   0.09873
  Beta virt. eigenvalues --    0.10205   0.10737   0.11143   0.11682   0.11943
  Beta virt. eigenvalues --    0.12382   0.13024   0.13226   0.14034   0.14219

 Mulliken charges and spin densities:
               1          2
     1  C   -0.559125  -0.072390
     2  C   -0.296231   0.019318
     3  C   -0.115996   0.173805
     4  O   -0.345284   0.143454
     5  C    0.545980   0.186155
     6  C   -0.140360  -0.216172
     7  N   -0.322384   0.019651
     8  C    1.316065  -0.219746
     9  C   -0.691656   0.200418
    10  C   -0.612973  -0.033525
    11  C    0.154997   0.378693
    12  C   -0.867530   0.321741
    13  C   -0.437243   0.139510
    14  C    0.428337  -1.121517
    15  H    0.143706   0.012570
    16  H    0.079540   0.027437
    17  H    0.144282   0.003983
    18  H    0.055304   0.121342
    19  H    0.194217  -0.012905
    20  H    0.066812   0.202271
    21  H    0.092190   0.029483
    22  H    0.074775   0.061623
    23  H    0.006189   0.132723
    24  H    0.175281   0.001051
    25  H   -0.224887   0.388917
    26  H    0.023376   0.100339
    27  H    0.112617   0.011774
 Sum of Mulliken charges =  -1.00000   1.00000

 Dipole moment (field-independent basis, Debye):
    X=             -0.6140    Y=             -1.9156    Z=             -2.2132  Tot=              2.9908
 Quadrupole moment (field-independent basis, Debye-Ang):
   XX=           -139.6134   YY=           -114.2393   ZZ=            -99.0163
   XY=             -1.3417   XZ=              1.1115   YZ=              3.6535

 Summary of Natural Population Analysis:

                                       Natural Population
                Natural  -----------------------------------------------
    Atom  No    Charge         Core      Valence    Rydberg      Total
 -----------------------------------------------------------------------
      C    1   -0.28224      0.99967     2.27685    0.00572     3.28224
      C    2   -0.24340      0.99959     2.23689    0.00692     3.24340
      C    3    0.35267      0.99967     1.62300    0.02466     2.64733
      O    4   -0.25991      0.99987     3.25394    0.00610     4.25991
      C    5   -0.21062      0.99945     2.20062    0.01056     3.21062
      C    6    0.17504      0.99966     1.80542    0.01988     2.82496
      N    7   -0.19958      0.99978     2.68857    0.01122     3.69958
      C    8    0.00904      0.99948     1.98192    0.00956     2.99096
      C    9   -0.08448      0.99951     2.07629    0.00869     3.08448
      C   10   -0.11321      0.99953     2.10361    0.01007     3.11321
      C   11    0.00802      0.99952     1.98394    0.00853     2.99198
      C   12   -0.09869      0.99952     2.08975    0.00942     3.09869
      C   13   -0.09442      0.99951     2.08611    0.00881     3.09442
      C   14   -0.29274      0.99964     2.28774    0.00535     3.29274
      H   15    0.10023      0.00000     0.39850    0.00127     0.39977
      H   16    0.09013      0.00000     0.40871    0.00116     0.40987
      H   17    0.09971      0.00000     0.39940    0.00089     0.40029
      H   18    0.11062      0.00000     0.38779    0.00159     0.38938
      H   19    0.10855      0.00000     0.39041    0.00104     0.39145
      H   20    0.13050      0.00000     0.36747    0.00202     0.36950
      H   21    0.10152      0.00000     0.39685    0.00163     0.39848
      H   22    0.09342      0.00000     0.40572    0.00086     0.40658
      H   23    0.09381      0.00000     0.40535    0.00084     0.40619
      H   24    0.10517      0.00000     0.39351    0.00132     0.39483
      H   25    0.10540      0.00000     0.39231    0.00229     0.39460
      H   26    0.09734      0.00000     0.40193    0.00074     0.40266
      H   27    0.09813      0.00000     0.40111    0.00077     0.40187
 =======================================================================
   * Total *    0.00000     13.99440    35.84369    0.16191    50.00000

 Normal termination of Gaussian 16 at Thu Dec 10 10:35:55 2020.
