 Gaussian 16, Revision A.03,

 -----------------------------------------------------------
 # opt freq B3LYP/6-31G(d) empiricaldispersion=gd3bj scf=xqc
 -----------------------------------------------------------

 -------------------------
 CID_9092_JID_631_neutraal
 -------------------------
 Symbolic Z-matrix:
 Charge =  0 Multiplicity = 1

 SCF Done:  E(RB3LYP) =  -407.995368300     A.U. after   12 cycles
 SCF Done:  E(RB3LYP) =  -407.997781002     A.U. after   10 cycles
 SCF Done:  E(RB3LYP) =  -407.997983500     A.U. after    9 cycles
 SCF Done:  E(RB3LYP) =  -407.998025783     A.U. after    9 cycles
 SCF Done:  E(RB3LYP) =  -407.998048126     A.U. after    9 cycles
 SCF Done:  E(RB3LYP) =  -407.998072766     A.U. after    9 cycles
 SCF Done:  E(RB3LYP) =  -407.998097713     A.U. after   10 cycles
 SCF Done:  E(RB3LYP) =  -407.998120572     A.U. after    9 cycles
 SCF Done:  E(RB3LYP) =  -407.998142818     A.U. after   10 cycles
 SCF Done:  E(RB3LYP) =  -407.998149813     A.U. after    8 cycles
 SCF Done:  E(RB3LYP) =  -407.998150122     A.U. after    8 cycles
 SCF Done:  E(RB3LYP) =  -407.998150176     A.U. after    7 cycles
 SCF Done:  E(RB3LYP) =  -407.998150215     A.U. after    7 cycles
 Optimization completed.
    -- Stationary point found.

 1\1\GINC-NODE315\FOpt\RB3LYP\6-31G(d)\C9H17N1\VSC10255\08-Dec-2020\0\\
 # opt freq B3LYP/6-31G(d) empiricaldispersion=gd3bj scf=xqc\\CID_9092_
 JID_631_neutraal\\0,1\C,-2.7520993445,-0.0879585501,-0.0379846459\C,-1
 .9276988071,1.0056341498,0.6524408067\C,-0.6034057536,1.2407317375,-0.
 0859965147\C,0.2444123346,-0.0429287001,-0.2241620812\C,-0.6065960534,
 -1.1433973611,-0.8856284598\C,-1.9430076206,-1.3844763813,-0.170680737
 4\C,0.8302029752,-0.4894372242,1.1524403999\C,2.3539867279,-0.56992287
 79,0.9423164974\C,2.5861170748,0.4555650425,-0.1668700219\N,1.45453525

 Normal termination of Gaussian 16 at Tue Dec  8 12:24:43 2020.

 --------------------------------------------------------------------
 #N Geom=AllCheck Guess=TCheck SCRF=Check GenChk RB3LYP/6-31G(d) Freq
 --------------------------------------------------------------------

 Structure from the checkpoint file:  "JID_631.chk"
 -------------------------
 CID_9092_JID_631_neutraal
 -------------------------
 Charge =  0 Multiplicity = 1

 SCF Done:  E(RB3LYP) =  -407.998150215     A.U. after    1 cycles

  Exact polarizability: 110.594   0.996  89.489   0.534  -0.630  87.002
 Approx polarizability: 135.870   1.018 128.686   0.955  -0.962 133.262

                      1                      2                      3
                      A                      A                      A
 Frequencies --     43.5774               143.2673               192.5556
 Red. masses --      2.4046                 2.7447                 2.2215
 Frc consts  --      0.0027                 0.0332                 0.0485
 IR Inten    --      0.5573                 0.0325                 0.2941

                      4                      5                      6
                      A                      A                      A
 Frequencies --    238.9165               296.3076               335.2646
 Red. masses --      1.8699                 2.3763                 2.1166
 Frc consts  --      0.0629                 0.1229                 0.1402
 IR Inten    --      0.4377                 0.0930                 2.6992

                      7                      8                      9
                      A                      A                      A
 Frequencies --    364.4622               428.3247               436.7763
 Red. masses --      2.2811                 2.1714                 2.0491
 Frc consts  --      0.1785                 0.2347                 0.2303
 IR Inten    --      0.2033                 4.2700                 0.2772

                     10                     11                     12
                      A                      A                      A
 Frequencies --    459.3898               524.9838               574.6755
 Red. masses --      2.9788                 2.0097                 1.9115
 Frc consts  --      0.3704                 0.3263                 0.3719
 IR Inten    --      0.0986                 3.1077                21.9696

                     13                     14                     15
                      A                      A                      A
 Frequencies --    596.8480               705.5732               797.8979
 Red. masses --      2.3764                 2.2811                 1.4776
 Frc consts  --      0.4988                 0.6691                 0.5542
 IR Inten    --     13.0631                19.6180                 0.5920

                     16                     17                     18
                      A                      A                      A
 Frequencies --    836.4514               841.5710               865.6520
 Red. masses --      2.0576                 2.2536                 1.8766
 Frc consts  --      0.8482                 0.9404                 0.8285
 IR Inten    --      5.0481                30.7269                 2.7378

                     19                     20                     21
                      A                      A                      A
 Frequencies --    872.8308               904.6080               925.3184
 Red. masses --      1.5143                 1.9232                 1.9165
 Frc consts  --      0.6797                 0.9272                 0.9668
 IR Inten    --      4.5152                 5.3071                 6.3361

                     22                     23                     24
                      A                      A                      A
 Frequencies --    939.9708               962.0204               965.4456
 Red. masses --      2.5705                 1.3912                 2.5035
 Frc consts  --      1.3381                 0.7586                 1.3749
 IR Inten    --      0.5525                 0.4348                 0.5603

                     25                     26                     27
                      A                      A                      A
 Frequencies --    983.4387              1035.9427              1050.5589
 Red. masses --      1.8234                 1.7865                 1.7656
 Frc consts  --      1.0390                 1.1296                 1.1481
 IR Inten    --      3.3359                 0.4947                 4.0912

                     28                     29                     30
                      A                      A                      A
 Frequencies --   1058.7517              1080.8744              1096.2431
 Red. masses --      1.5976                 2.2476                 1.9587
 Frc consts  --      1.0552                 1.5471                 1.3869
 IR Inten    --      0.5558                 1.3700                 0.2876

                     31                     32                     33
                      A                      A                      A
 Frequencies --   1114.1702              1136.3653              1175.3837
 Red. masses --      1.2313                 2.4139                 1.5841
 Frc consts  --      0.9006                 1.8366                 1.2894
 IR Inten    --      0.1687                28.9093                 6.5979

                     34                     35                     36
                      A                      A                      A
 Frequencies --   1189.8717              1201.5544              1228.3754
 Red. masses --      1.2980                 2.0342                 1.5627
 Frc consts  --      1.0828                 1.7303                 1.3893
 IR Inten    --      2.4000                13.9085                 3.4846

                     37                     38                     39
                      A                      A                      A
 Frequencies --   1251.7918              1292.9405              1297.2192
 Red. masses --      1.4680                 1.3873                 1.3355
 Frc consts  --      1.3553                 1.3664                 1.3241
 IR Inten    --      5.0413                 4.3993                 5.1596

                     40                     41                     42
                      A                      A                      A
 Frequencies --   1307.9714              1323.3855              1342.4208
 Red. masses --      1.2941                 1.3542                 1.3342
 Frc consts  --      1.3044                 1.3973                 1.4166
 IR Inten    --      0.1854                 2.0047                 3.3691

                     43                     44                     45
                      A                      A                      A
 Frequencies --   1358.2967              1369.6155              1379.0026
 Red. masses --      1.3630                 1.5137                 1.4690
 Frc consts  --      1.4816                 1.6730                 1.6459
 IR Inten    --      0.1181                 8.2961                17.6765

                     46                     47                     48
                      A                      A                      A
 Frequencies --   1387.2571              1399.3151              1403.5078
 Red. masses --      1.4085                 1.4308                 1.4815
 Frc consts  --      1.5971                 1.6506                 1.7194
 IR Inten    --      1.6212                 0.0225                 1.6862

                     49                     50                     51
                      A                      A                      A
 Frequencies --   1408.2104              1465.4137              1508.0470
 Red. masses --      1.4954                 1.4157                 1.0846
 Frc consts  --      1.7472                 1.7912                 1.4533
 IR Inten    --      0.4720                13.8903                 0.7399

                     52                     53                     54
                      A                      A                      A
 Frequencies --   1512.4952              1516.2375              1519.1019
 Red. masses --      1.0911                 1.0924                 1.0961
 Frc consts  --      1.4706                 1.4796                 1.4903
 IR Inten    --      1.7876                 2.3121                 2.8179

                     55                     56                     57
                      A                      A                      A
 Frequencies --   1521.0556              1533.1212              1537.5245
 Red. masses --      1.0846                 1.0953                 1.0992
 Frc consts  --      1.4784                 1.5168                 1.5309
 IR Inten    --      9.7159                 3.4190                 0.4339

                     58                     59                     60
                      A                      A                      A
 Frequencies --   1554.0657              2940.2154              3008.1967
 Red. masses --      1.1003                 1.0740                 1.0654
 Frc consts  --      1.5657                 5.4702                 5.6805
 IR Inten    --      2.0321                84.4330                25.1516

                     61                     62                     63
                      A                      A                      A
 Frequencies --   3021.5886              3027.3581              3030.2506
 Red. masses --      1.0685                 1.0685                 1.0631
 Frc consts  --      5.7479                 5.7697                 5.7514
 IR Inten    --     17.7535                17.5307                 5.0629

                     64                     65                     66
                      A                      A                      A
 Frequencies --   3032.0133              3058.5933              3064.4192
 Red. masses --      1.0608                 1.0825                 1.0795
 Frc consts  --      5.7459                 5.9663                 5.9729
 IR Inten    --     49.5492                33.9482                43.8656

                     67                     68                     69
                      A                      A                      A
 Frequencies --   3066.8294              3071.4098              3072.3466
 Red. masses --      1.0675                 1.0976                 1.0942
 Frc consts  --      5.9154                 6.1005                 6.0855
 IR Inten    --     17.7237                64.2410                62.5114

                     70                     71                     72
                      A                      A                      A
 Frequencies --   3077.7165              3080.9630              3083.4211
 Red. masses --      1.1008                 1.0832                 1.1009
 Frc consts  --      6.1436                 6.0579                 6.1669
 IR Inten    --     49.7349                65.8536                65.5710

                     73                     74                     75
                      A                      A                      A
 Frequencies --   3107.2823              3121.5587              3509.8537
 Red. masses --      1.0981                 1.1063                 1.0747
 Frc consts  --      6.2465                 6.3513                 7.8002
 IR Inten    --     24.4536                49.2659                 1.0540

 - Thermochemistry -
 -------------------
 Temperature   298.150 Kelvin.  Pressure   1.00000 Atm.
 Atom     1 has atomic number  6 and mass  12.00000

 Molecular mass:   139.13610 amu.
 Principal axes and moments of inertia in atomic units:
                           1         2         3
     Eigenvalues --   688.897901921.086842023.77078
           X            0.99998   0.00326   0.00504
           Y           -0.00311   0.99959  -0.02841
           Z           -0.00513   0.02839   0.99958
 This molecule is an asymmetric top.
 Rotational symmetry number  1.
 Warning -- assumption of classical behavior for rotation
           may cause significant error
 Rotational temperatures (Kelvin)      0.12573     0.04509     0.04280
 Rotational constants (GHZ):           2.61975     0.93944     0.89177
 Zero-point vibrational energy     664921.7 (Joules/Mol)
                                  158.92011 (Kcal/Mol)
 Warning -- explicit consideration of  13 degrees of freedom as
           vibrations may cause significant error
 Vibrational temperatures:     62.70   206.13   277.04   343.75   426.32
          (Kelvin)            482.37   524.38   616.26   628.42   660.96
                              755.33   826.83   858.73  1015.16  1148.00
                             1203.47  1210.83  1245.48  1255.81  1301.53
                             1331.33  1352.41  1384.13  1389.06  1414.95
                             1490.49  1511.52  1523.31  1555.14  1577.25
                             1603.04  1634.98  1691.11  1711.96  1728.77
                             1767.36  1801.05  1860.25  1866.41  1881.88
                             1904.06  1931.44  1954.29  1970.57  1984.08
                             1995.95  2013.30  2019.33  2026.10  2108.40
                             2169.74  2176.14  2181.53  2185.65  2188.46
                             2205.82  2212.15  2235.95  4230.31  4328.12
                             4347.39  4355.69  4359.85  4362.39  4400.63
                             4409.02  4412.48  4419.07  4420.42  4428.15
                             4432.82  4436.36  4470.69  4491.23  5049.90

 Zero-point correction=                           0.253255 (Hartree/Particle)
 Thermal correction to Energy=                    0.262309
 Thermal correction to Enthalpy=                  0.263254
 Thermal correction to Gibbs Free Energy=         0.219235
 Sum of electronic and zero-point Energies=           -407.744895
 Sum of electronic and thermal Energies=              -407.735841
 Sum of electronic and thermal Enthalpies=            -407.734897
 Sum of electronic and thermal Free Energies=         -407.778916

                     E (Thermal)             CV                S
                      KCal/Mol        Cal/Mol-Kelvin    Cal/Mol-Kelvin
 Total                  164.602             37.351             92.646
 Electronic               0.000              0.000              0.000
 Translational            0.889              2.981             40.703
 Rotational               0.889              2.981             29.372
 Vibrational            162.824             31.389             22.571
 Vibration     1          0.595              1.980              5.089
 Vibration     2          0.616              1.910              2.760
 Vibration     3          0.635              1.850              2.203
 Vibration     4          0.657              1.781              1.811
 Vibration     5          0.690              1.681              1.438
 Vibration     6          0.716              1.605              1.235
 Vibration     7          0.738              1.545              1.103
 Vibration     8          0.790              1.409              0.864
 Vibration     9          0.797              1.390              0.837
 Vibration    10          0.817              1.340              0.768
 Vibration    11          0.880              1.195              0.599
 Vibration    12          0.931              1.086              0.495
 Vibration    13          0.955              1.038              0.455

 Optimization completed.
    -- Stationary point found.

 1\1\GINC-NODE315\Freq\RB3LYP\6-31G(d)\C9H17N1\VSC10255\08-Dec-2020\0\\
 #N Geom=AllCheck Guess=TCheck SCRF=Check GenChk RB3LYP/6-31G(d) Freq\\
 CID_9092_JID_631_neutraal\\0,1\C,-2.7520993445,-0.0879585501,-0.037984
 6459\C,-1.9276988071,1.0056341498,0.6524408067\C,-0.6034057536,1.24073
 17375,-0.0859965147\C,0.2444123346,-0.0429287001,-0.2241620812\C,-0.60
 65960534,-1.1433973611,-0.8856284598\C,-1.9430076206,-1.3844763813,-0.
 1706807374\C,0.8302029752,-0.4894372242,1.1524403999\C,2.3539867279,-0
 .5699228779,0.9423164974\C,2.5861170748,0.4555650425,-0.1668700219\N,1

 Normal termination of Gaussian 16 at Tue Dec  8 12:32:29 2020.

 ----------------------------------------------------------------------
 # B3LYP/6-311++G(d,p) empiricaldispersion=gd3bj scf=xqc pop=npa geom=c
 heck
 ----------------------------------------------------------------------

 ---------------------------------
 CID_9092_JID_631_Energie_neutraal
 ---------------------------------
 Structure from the checkpoint file:  "JID_631.chk"
 Charge =  0 Multiplicity = 1

 SCF Done:  E(RB3LYP) =  -408.110805020     A.U. after   14 cycles
 Normal termination of Gaussian 16 at Tue Dec  8 12:41:54 2020.

 ----------------------------------------------------------------------
 # B3LYP/6-311++G(d,p) empiricaldispersion=gd3bj scf=xqc pop=npa geom=c
 heck
 ----------------------------------------------------------------------

 -------------------------------
 CID_9092_JID_631_Energie_kation
 -------------------------------
 Structure from the checkpoint file:  "JID_631.chk"
 Charge =  1 Multiplicity = 2

 SCF Done:  E(UB3LYP) =  -407.813997340     A.U. after   17 cycles
 Normal termination of Gaussian 16 at Tue Dec  8 12:50:22 2020.
 Gaussian 16:  ES64L-G16RevA.03 25-Dec-2016

 ------------------------------
 CID_9092_JID_631_Energie_anion
 ------------------------------
 Structure from the checkpoint file:  "JID_631.chk"
 Charge = -1 Multiplicity = 2

                         Standard orientation:
 ---------------------------------------------------------------------
 Center     Atomic      Atomic             Coordinates (Angstroms)
 Number     Number       Type             X           Y           Z
 ---------------------------------------------------------------------
      1          6           0       -2.705134    0.079807    0.032064
      2          6           0       -1.819416    1.227045    0.533679
      3          6           0       -0.517555    1.306644   -0.274488
      4          6           0        0.281855   -0.014860   -0.258987
      5          6           0       -0.629547   -1.163858   -0.730087
      6          6           0       -1.944611   -1.252194    0.056086
      7          6           0        0.905291   -0.286857    1.146325
      8          6           0        2.416404   -0.453396    0.898634
      9          6           0        2.639086    0.397881   -0.350984
     10          7           0        1.465985    0.049688   -1.151869
     11          1           0       -3.022801    0.296065   -0.998639
     12          1           0       -3.618911    0.010023    0.635196
     13          1           0       -2.357025    2.181642    0.475492
     14          1           0       -1.584310    1.066733    1.595444
     15          1           0        0.117413    2.123638    0.092888
     16          1           0       -0.769714    1.544629   -1.319480
     17          1           0       -0.068777   -2.103937   -0.668603
     18          1           0       -0.853131   -1.005957   -1.794972
     19          1           0       -1.732858   -1.524043    1.100000
     20          1           0       -2.569936   -2.056572   -0.350667
     21          1           0        0.725209    0.566682    1.809696
     22          1           0        0.465983   -1.163886    1.630372
     23          1           0        3.027653   -0.139708    1.750408
     24          1           0        2.654404   -1.498175    0.671850
     25          1           0        2.693285    1.467389   -0.072678
     26          1           0        3.561308    0.146963   -0.887411
     27          1           0        1.312073    0.699421   -1.919260
 ---------------------------------------------------------------------

 SCF Done:  E(UB3LYP) =  -408.092236238     A.U. after   27 cycles

 The electronic state is 2-A.
 Alpha  occ. eigenvalues --  -14.18051 -10.09045 -10.07850 -10.05638 -10.05416
 Alpha  occ. eigenvalues --  -10.05384 -10.05293 -10.05268 -10.05053 -10.04871
 Alpha  occ. eigenvalues --   -0.80939  -0.71238  -0.65178  -0.63211  -0.63097
 Alpha  occ. eigenvalues --   -0.54709  -0.50223  -0.47915  -0.46959  -0.42783
 Alpha  occ. eigenvalues --   -0.39221  -0.37386  -0.35421  -0.33428  -0.32240
 Alpha  occ. eigenvalues --   -0.30598  -0.29008  -0.28235  -0.26828  -0.26389
 Alpha  occ. eigenvalues --   -0.26133  -0.23774  -0.23597  -0.22217  -0.21937
 Alpha  occ. eigenvalues --   -0.20644  -0.19545  -0.19312  -0.11151   0.04926
 Alpha virt. eigenvalues --    0.07150   0.07824   0.08124   0.09295   0.09545
 Alpha virt. eigenvalues --    0.09753   0.10333   0.11110   0.11866   0.12367
 Alpha virt. eigenvalues --    0.13078   0.13304   0.13903   0.14533   0.15351

  Beta  occ. eigenvalues --  -14.18039 -10.09047 -10.07826 -10.05619 -10.05395
  Beta  occ. eigenvalues --  -10.05367 -10.05273 -10.05248 -10.05028 -10.04862
  Beta  occ. eigenvalues --   -0.80917  -0.71205  -0.65144  -0.63175  -0.63056
  Beta  occ. eigenvalues --   -0.54656  -0.50169  -0.47851  -0.46900  -0.42725
  Beta  occ. eigenvalues --   -0.39166  -0.37355  -0.35364  -0.33398  -0.32205
  Beta  occ. eigenvalues --   -0.30567  -0.28973  -0.28207  -0.26785  -0.26353
  Beta  occ. eigenvalues --   -0.26094  -0.23735  -0.23559  -0.22176  -0.21903
  Beta  occ. eigenvalues --   -0.20606  -0.19512  -0.19274  -0.11117
  Beta virt. eigenvalues --    0.07207   0.08080   0.08579   0.08825   0.09965
  Beta virt. eigenvalues --    0.10111   0.10294   0.10949   0.11491   0.12405
  Beta virt. eigenvalues --    0.12855   0.13463   0.13773   0.14272   0.14961

 Mulliken charges and spin densities:
               1          2
     1  C    0.807037  -1.343983
     2  C   -0.169419  -0.007300
     3  C    1.654760  -1.971660
     4  C   -1.708794   1.583983
     5  C    0.335972  -0.649069
     6  C   -0.531447   0.396049
     7  C    0.552807  -0.901371
     8  C    0.074523  -0.582427
     9  C    0.964154  -1.154226
    10  N   -0.139325   0.213393
    11  H    0.080589   0.031442
    12  H   -0.519831   0.694940
    13  H   -0.499205   0.680515
    14  H   -0.075197   0.191165
    15  H   -0.175043   0.355827
    16  H   -0.271615   0.402491
    17  H    0.069308   0.098647
    18  H   -0.095287   0.231287
    19  H   -0.053972   0.163661
    20  H   -0.236146   0.400236
    21  H   -0.114619   0.265901
    22  H   -0.120726   0.271474
    23  H   -0.405343   0.566835
    24  H    0.116170   0.012627
    25  H   -0.104516   0.224663
    26  H   -0.344038   0.501427
    27  H   -0.090798   0.323473
 Sum of Mulliken charges =  -1.00000   1.00000

 Dipole moment (field-independent basis, Debye):
    X=              0.7682    Y=             -2.2801    Z=             -0.5987  Tot=              2.4794
 Quadrupole moment (field-independent basis, Debye-Ang):
   XX=           -126.3340   YY=           -103.1254   ZZ=            -99.6113
   XY=             -0.9749   XZ=              1.4556   YZ=             -1.4647

 Summary of Natural Population Analysis:

                                       Natural Population
                Natural  -----------------------------------------------
    Atom  No    Charge         Core      Valence    Rydberg      Total
 -----------------------------------------------------------------------
      C    1   -0.18749      0.99963     2.17979    0.00807     3.18749
      C    2   -0.19071      0.99963     2.18219    0.00890     3.19071
      C    3   -0.19554      0.99957     2.18478    0.01118     3.19554
      C    4    0.06439      0.99955     1.92105    0.01501     2.93561
      C    5   -0.18785      0.99957     2.17858    0.00971     3.18785
      C    6   -0.19200      0.99963     2.18350    0.00888     3.19200
      C    7   -0.19276      0.99958     2.18445    0.00872     3.19276
      C    8   -0.19264      0.99963     2.18469    0.00831     3.19264
      C    9   -0.08661      0.99963     2.07597    0.01101     3.08661
      N   10   -0.34776      0.99972     2.83627    0.01176     3.84776
      H   11    0.09121      0.00000     0.40735    0.00144     0.40879
      H   12    0.09872      0.00000     0.39980    0.00148     0.40128
      H   13    0.09973      0.00000     0.39883    0.00145     0.40027
      H   14    0.09360      0.00000     0.40479    0.00161     0.40640
      H   15    0.10195      0.00000     0.39621    0.00184     0.39805
      H   16    0.09384      0.00000     0.40449    0.00168     0.40616
      H   17    0.10074      0.00000     0.39784    0.00143     0.39926
      H   18    0.09601      0.00000     0.40249    0.00150     0.40399
      H   19    0.09264      0.00000     0.40589    0.00147     0.40736
      H   20    0.09761      0.00000     0.40135    0.00103     0.40239
      H   21    0.09969      0.00000     0.39867    0.00164     0.40031
      H   22    0.10100      0.00000     0.39774    0.00126     0.39900
      H   23    0.09965      0.00000     0.39916    0.00119     0.40035
      H   24    0.09481      0.00000     0.40383    0.00136     0.40519
      H   25    0.07874      0.00000     0.41912    0.00214     0.42126
      H   26    0.09227      0.00000     0.40645    0.00128     0.40773
      H   27    0.17676      0.00000     0.32045    0.00280     0.32324
 =======================================================================
   * Total *    0.00000      9.99614    28.87573    0.12813    39.00000

 Normal termination of Gaussian 16 at Tue Dec  8 13:04:41 2020.
