 Gaussian 16, Revision A.03,

 -----------------------------------------------------------
 # opt freq B3LYP/6-31G(d) empiricaldispersion=gd3bj scf=xqc
 -----------------------------------------------------------

 -------------------------------
 CID_101671190_JID_4141_neutraal
 -------------------------------
 Symbolic Z-matrix:
 Charge =  0 Multiplicity = 1

 SCF Done:  E(RB3LYP) =  -609.961486277     A.U. after   16 cycles
 SCF Done:  E(RB3LYP) =  -609.964697325     A.U. after   12 cycles
 SCF Done:  E(RB3LYP) =  -609.965210503     A.U. after   12 cycles
 SCF Done:  E(RB3LYP) =  -609.965647118     A.U. after   13 cycles
 SCF Done:  E(RB3LYP) =  -609.966073818     A.U. after   12 cycles
 SCF Done:  E(RB3LYP) =  -609.966276459     A.U. after   12 cycles
 SCF Done:  E(RB3LYP) =  -609.966336610     A.U. after   11 cycles
 SCF Done:  E(RB3LYP) =  -609.966374995     A.U. after   11 cycles
 SCF Done:  E(RB3LYP) =  -609.966411160     A.U. after   11 cycles
 SCF Done:  E(RB3LYP) =  -609.966421024     A.U. after   10 cycles
 SCF Done:  E(RB3LYP) =  -609.966426566     A.U. after   10 cycles
 SCF Done:  E(RB3LYP) =  -609.966427860     A.U. after    9 cycles
 SCF Done:  E(RB3LYP) =  -609.966427987     A.U. after    7 cycles
 Optimization completed.
    -- Stationary point found.
 Normal termination of Gaussian 16 at Thu Dec 10 09:16:26 2020.

 --------------------------------------------------------------------
 #N Geom=AllCheck Guess=TCheck SCRF=Check GenChk RB3LYP/6-31G(d) Freq
 --------------------------------------------------------------------

 Structure from the checkpoint file:  "JID_4141.chk"
 -------------------------------
 CID_101671190_JID_4141_neutraal
 -------------------------------
 Charge =  0 Multiplicity = 1

 SCF Done:  E(RB3LYP) =  -609.966427987     A.U. after    1 cycles

  Exact polarizability: 143.342   3.612 118.662   5.798 -14.955  89.765
 Approx polarizability: 205.122  13.287 189.879   6.526 -33.763 158.702

                      1                      2                      3
                      A                      A                      A
 Frequencies --     58.5382                83.9077                91.7935
 Red. masses --      5.9274                 3.8884                 6.4425
 Frc consts  --      0.0120                 0.0161                 0.0320
 IR Inten    --      1.9970                 3.3752                 2.0573

                      4                      5                      6
                      A                      A                      A
 Frequencies --    118.5879               141.2077               184.3327
 Red. masses --      3.3259                 1.3627                 3.7337
 Frc consts  --      0.0276                 0.0160                 0.0747
 IR Inten    --      2.2880                 1.4751                 1.7981

                      7                      8                      9
                      A                      A                      A
 Frequencies --    222.3721               282.9825               302.6491
 Red. masses --      3.5224                 3.7449                 2.9046
 Frc consts  --      0.1026                 0.1767                 0.1568
 IR Inten    --      3.1563                 4.8453                 0.5757

                     10                     11                     12
                      A                      A                      A
 Frequencies --    358.3925               380.3293               404.9427
 Red. masses --      3.8816                 5.3026                 7.3513
 Frc consts  --      0.2937                 0.4519                 0.7102
 IR Inten    --      4.4171                 6.9145                 6.9411

                     13                     14                     15
                      A                      A                      A
 Frequencies --    437.8379               444.6204               479.7689
 Red. masses --      6.0381                 5.0923                 4.6997
 Frc consts  --      0.6820                 0.5931                 0.6374
 IR Inten    --      1.5207                 6.4754                 1.1796

                     16                     17                     18
                      A                      A                      A
 Frequencies --    542.5174               603.9846               644.5891
 Red. masses --      4.5141                 5.4539                 5.8209
 Frc consts  --      0.7828                 1.1722                 1.4250
 IR Inten    --      1.9738                 2.4229                 4.1700

                     19                     20                     21
                      A                      A                      A
 Frequencies --    711.9216               722.1045               759.5226
 Red. masses --      6.0947                 4.8009                 3.6051
 Frc consts  --      1.8200                 1.4749                 1.2253
 IR Inten    --      4.6025                 4.1848                 9.8951

                     22                     23                     24
                      A                      A                      A
 Frequencies --    770.7316               782.2798               831.8438
 Red. masses --      1.4458                 5.1429                 3.6603
 Frc consts  --      0.5060                 1.8543                 1.4923
 IR Inten    --     33.0783                 3.8379                 0.3873

                     25                     26                     27
                      A                      A                      A
 Frequencies --    886.2291               900.5738               948.3110
 Red. masses --      1.3920                 3.8529                 1.4822
 Frc consts  --      0.6441                 1.8411                 0.7853
 IR Inten    --      0.3669                 1.5491                 0.8440

                     28                     29                     30
                      A                      A                      A
 Frequencies --    982.6535               990.7675              1005.1522
 Red. masses --      4.0973                 1.2778                 1.8985
 Frc consts  --      2.3310                 0.7390                 1.1301
 IR Inten    --      1.1075                 0.0217                 3.3364

                     31                     32                     33
                      A                      A                      A
 Frequencies --   1026.8652              1069.4931              1118.3958
 Red. masses --      2.5980                 2.2821                 2.4436
 Frc consts  --      1.6140                 1.5379                 1.8008
 IR Inten    --     12.9851                 1.2331                 8.2607

                     34                     35                     36
                      A                      A                      A
 Frequencies --   1157.2017              1163.5450              1197.3610
 Red. masses --      1.8249                 1.3079                 1.1443
 Frc consts  --      1.4398                 1.0432                 0.9666
 IR Inten    --     15.2021                 0.5930                 0.1979

                     37                     38                     39
                      A                      A                      A
 Frequencies --   1200.9506              1229.4719              1245.5446
 Red. masses --      1.7512                 1.8122                 1.7068
 Frc consts  --      1.4881                 1.6139                 1.5601
 IR Inten    --      1.2853                11.9245                75.4709

                     40                     41                     42
                      A                      A                      A
 Frequencies --   1269.2863              1292.5947              1305.9329
 Red. masses --      2.1157                 1.6375                 1.8165
 Frc consts  --      2.0083                 1.6120                 1.8252
 IR Inten    --      6.4250                 4.6135                17.0860

                     43                     44                     45
                      A                      A                      A
 Frequencies --   1324.4576              1361.0248              1376.9712
 Red. masses --      1.7694                 1.7329                 4.3053
 Frc consts  --      1.8287                 1.8913                 4.8095
 IR Inten    --     11.8520                11.4574                15.4654

                     46                     47                     48
                      A                      A                      A
 Frequencies --   1453.2673              1479.7841              1508.9275
 Red. masses --      1.3126                 1.7030                 2.3284
 Frc consts  --      1.6333                 2.1972                 3.1235
 IR Inten    --     24.5875                75.0687                 8.1472

                     49                     50                     51
                      A                      A                      A
 Frequencies --   1521.6771              1529.6076              1541.6915
 Red. masses --      1.0817                 1.0555                 2.0355
 Frc consts  --      1.4757                 1.4550                 2.8505
 IR Inten    --     17.9341                 8.8394                12.0896

                     52                     53                     54
                      A                      A                      A
 Frequencies --   1554.0176              1651.5519              1669.8240
 Red. masses --      1.4031                 6.4529                 6.1429
 Frc consts  --      1.9964                10.3703                10.0916
 IR Inten    --     17.6556                 0.5850                 0.5238

                     55                     56                     57
                      A                      A                      A
 Frequencies --   1797.5590              2359.9222              3005.6206
 Red. masses --     10.2580                12.6464                 1.0717
 Frc consts  --     19.5289                41.4967                 5.7039
 IR Inten    --    372.2489                10.2304                22.4177

                     58                     59                     60
                      A                      A                      A
 Frequencies --   3043.5939              3096.4656              3101.9734
 Red. masses --      1.0382                 1.1045                 1.0921
 Frc consts  --      5.6661                 6.2394                 6.1916
 IR Inten    --     48.8093                31.5394                12.8669

                     61                     62                     63
                      A                      A                      A
 Frequencies --   3111.9026              3185.1399              3189.6672
 Red. masses --      1.0846                 1.0873                 1.0977
 Frc consts  --      6.1883                 6.4990                 6.5800
 IR Inten    --      0.1998                 6.3940                 0.8533

                     64                     65                     66
                      A                      A                      A
 Frequencies --   3192.1667              3203.3543              3216.7004
 Red. masses --      1.0886                 1.0925                 1.0974
 Frc consts  --      6.5358                 6.6049                 6.6900
 IR Inten    --      1.1030                19.7137                20.2703

 - Thermochemistry -
 -------------------
 Temperature   298.150 Kelvin.  Pressure   1.00000 Atm.
 Atom     1 has atomic number  6 and mass  12.00000

 Molecular mass:   186.07931 amu.
 Principal axes and moments of inertia in atomic units:
                           1         2         3
     Eigenvalues --  1637.658363076.030293724.31720
           X            0.99931  -0.03604   0.00936
           Y            0.03659   0.99713  -0.06629
           Z           -0.00694   0.06659   0.99776
 This molecule is an asymmetric top.
 Rotational symmetry number  1.
 Warning -- assumption of classical behavior for rotation
           may cause significant error
 Rotational temperatures (Kelvin)      0.05289     0.02816     0.02326
 Rotational constants (GHZ):           1.10203     0.58671     0.48458
 Zero-point vibrational energy     501408.5 (Joules/Mol)
                                  119.83951 (Kcal/Mol)
 Warning -- explicit consideration of  17 degrees of freedom as
           vibrations may cause significant error
 Vibrational temperatures:     84.22   120.72   132.07   170.62   203.17
          (Kelvin)            265.21   319.94   407.15   435.44   515.65
                              547.21   582.62   629.95   639.71   690.28
                              780.56   869.00   927.42  1024.30  1038.95
                             1092.78  1108.91  1125.53  1196.84  1275.09
                             1295.72  1364.41  1413.82  1425.49  1446.19
                             1477.43  1538.76  1609.12  1664.96  1674.08
                             1722.74  1727.90  1768.94  1792.06  1826.22
                             1859.76  1878.95  1905.60  1958.21  1981.15
                             2090.93  2129.08  2171.01  2189.35  2200.76
                             2218.15  2235.88  2376.21  2402.50  2586.29
                             3395.40  4324.42  4379.05  4455.12  4463.05
                             4477.33  4582.71  4589.22  4592.82  4608.91
                             4628.11

 Zero-point correction=                           0.190976 (Hartree/Particle)
 Thermal correction to Energy=                    0.202830
 Thermal correction to Enthalpy=                  0.203774
 Thermal correction to Gibbs Free Energy=         0.152671
 Sum of electronic and zero-point Energies=           -609.775452
 Sum of electronic and thermal Energies=              -609.763598
 Sum of electronic and thermal Enthalpies=            -609.762654
 Sum of electronic and thermal Free Energies=         -609.813757

                     E (Thermal)             CV                S
                      KCal/Mol        Cal/Mol-Kelvin    Cal/Mol-Kelvin
 Total                  127.278             44.958            107.556
 Electronic               0.000              0.000              0.000
 Translational            0.889              2.981             41.569
 Rotational               0.889              2.981             31.307
 Vibrational            125.500             38.996             34.681
 Vibration     1          0.596              1.974              4.506
 Vibration     2          0.601              1.960              3.797
 Vibration     3          0.602              1.955              3.621
 Vibration     4          0.609              1.934              3.123
 Vibration     5          0.615              1.912              2.787
 Vibration     6          0.631              1.861              2.284
 Vibration     7          0.648              1.807              1.940
 Vibration     8          0.682              1.705              1.516
 Vibration     9          0.694              1.669              1.402
 Vibration    10          0.733              1.558              1.129
 Vibration    11          0.750              1.512              1.038
 Vibration    12          0.770              1.459              0.945
 Vibration    13          0.798              1.388              0.833
 Vibration    14          0.804              1.373              0.812
 Vibration    15          0.836              1.295              0.711
 Vibration    16          0.898              1.156              0.560
 Vibration    17          0.962              1.023              0.443

 Optimization completed.
    -- Stationary point found.
 Normal termination of Gaussian 16 at Thu Dec 10 09:22:46 2020.

 ----------------------------------------------------------------------
 # B3LYP/6-311++G(d,p) empiricaldispersion=gd3bj scf=xqc pop=npa geom=c
 heck
 ----------------------------------------------------------------------

 ---------------------------------------
 CID_101671190_JID_4141_Energie_neutraal
 ---------------------------------------
 Structure from the checkpoint file:  "JID_4141.chk"
 Charge =  0 Multiplicity = 1

 SCF Done:  E(RB3LYP) =  -610.130148254     A.U. after   15 cycles
 Normal termination of Gaussian 16 at Thu Dec 10 09:24:57 2020.

 ----------------------------------------------------------------------
 # B3LYP/6-311++G(d,p) empiricaldispersion=gd3bj scf=xqc pop=npa geom=c
 heck
 ----------------------------------------------------------------------

 -------------------------------------
 CID_101671190_JID_4141_Energie_kation
 -------------------------------------
 Structure from the checkpoint file:  "JID_4141.chk"
 Charge =  1 Multiplicity = 2

 SCF Done:  E(UB3LYP) =  -609.799789484     A.U. after   31 cycles
 Normal termination of Gaussian 16 at Thu Dec 10 09:30:44 2020.
 Gaussian 16:  ES64L-G16RevA.03 25-Dec-2016

 ----------------------------------------------------------------------
 # B3LYP/6-311++G(d,p) empiricaldispersion=gd3bj scf=xqc pop=npa geom=c
 heck
 ----------------------------------------------------------------------

 ------------------------------------
 CID_101671190_JID_4141_Energie_anion
 ------------------------------------
 Structure from the checkpoint file:  "JID_4141.chk"
 Charge = -1 Multiplicity = 2

                         Standard orientation:
 ---------------------------------------------------------------------
 Center     Atomic      Atomic             Coordinates (Angstroms)
 Number     Number       Type             X           Y           Z
 ---------------------------------------------------------------------
      1          6           0        2.655994   -1.921945   -0.077455
      2          7           0        1.567068   -0.960623   -0.005957
      3          6           0        0.462170   -1.246716    0.912754
      4          6           0       -0.849474   -0.721735    0.383844
      5          6           0       -2.052389   -1.409309    0.541132
      6          6           0       -3.235577   -0.876003    0.027944
      7          6           0       -3.216903    0.341414   -0.654294
      8          6           0       -2.015010    1.031067   -0.816492
      9          6           0       -0.837407    0.501365   -0.292509
     10          6           0        0.500798    1.206878   -0.410766
     11          6           0        1.659972    0.213591   -0.690352
     12          8           0        2.563649    0.509653   -1.456314
     13          6           0        0.803118    1.927061    0.835624
     14          7           0        1.033504    2.448826    1.846841
     15          1           0        3.125920   -2.046467    0.906055
     16          1           0        3.392679   -1.544548   -0.785700
     17          1           0        2.283149   -2.895422   -0.417060
     18          1           0        0.408980   -2.332534    1.034302
     19          1           0        0.676853   -0.821144    1.905836
     20          1           0       -2.064171   -2.364658    1.059537
     21          1           0       -4.169412   -1.416292    0.151372
     22          1           0       -4.135422    0.752306   -1.062226
     23          1           0       -1.992392    1.980052   -1.345169
     24          1           0        0.508866    1.920053   -1.239213
 ---------------------------------------------------------------------

 SCF Done:  E(UB3LYP) =  -610.123120110     A.U. after   33 cycles
 SCF Done:  E(UB3LYP) =  -610.123120110     a.u. after    1 cycles

 The electronic state is 2-A.
 Alpha  occ. eigenvalues --  -19.00148 -14.25815 -14.21737 -10.18869 -10.13463
 Alpha  occ. eigenvalues --  -10.12135 -10.11894 -10.10609 -10.08857 -10.08802
 Alpha  occ. eigenvalues --  -10.07617 -10.07456 -10.07104 -10.06945  -0.95552
 Alpha  occ. eigenvalues --   -0.85760  -0.81614  -0.77035  -0.71348  -0.67868
 Alpha  occ. eigenvalues --   -0.63600  -0.61920  -0.59277  -0.51352  -0.50491
 Alpha  occ. eigenvalues --   -0.45996  -0.43917  -0.42693  -0.40749  -0.37970
 Alpha  occ. eigenvalues --   -0.36749  -0.36276  -0.35050  -0.32808  -0.32732
 Alpha  occ. eigenvalues --   -0.32187  -0.30972  -0.30140  -0.28906  -0.27685
 Alpha  occ. eigenvalues --   -0.26402  -0.26076  -0.25029  -0.24261  -0.23356
 Alpha  occ. eigenvalues --   -0.17652  -0.16127  -0.15501  -0.15138   0.04314
 Alpha virt. eigenvalues --    0.06389   0.06974   0.07641   0.07891   0.08682
 Alpha virt. eigenvalues --    0.08846   0.09608   0.09947   0.11307   0.11592
 Alpha virt. eigenvalues --    0.12220   0.12804   0.12994   0.13502   0.14215

  Beta  occ. eigenvalues --  -19.00144 -14.25810 -14.21689 -10.18857 -10.13471
  Beta  occ. eigenvalues --  -10.12105 -10.11873 -10.10574 -10.08858 -10.08728
  Beta  occ. eigenvalues --  -10.07636 -10.07357 -10.07016 -10.06838  -0.95538
  Beta  occ. eigenvalues --   -0.85736  -0.81541  -0.76891  -0.71236  -0.67788
  Beta  occ. eigenvalues --   -0.63406  -0.61836  -0.59188  -0.51171  -0.50350
  Beta  occ. eigenvalues --   -0.45894  -0.43853  -0.42627  -0.40659  -0.37897
  Beta  occ. eigenvalues --   -0.36686  -0.36174  -0.34972  -0.32745  -0.32643
  Beta  occ. eigenvalues --   -0.32140  -0.30875  -0.30096  -0.28861  -0.27559
  Beta  occ. eigenvalues --   -0.26167  -0.25933  -0.24924  -0.24194  -0.23199
  Beta  occ. eigenvalues --   -0.17541  -0.15970  -0.15197  -0.14703
  Beta virt. eigenvalues --    0.06893   0.07320   0.07767   0.07981   0.08300
  Beta virt. eigenvalues --    0.09062   0.09281   0.10097   0.10486   0.11533
  Beta virt. eigenvalues --    0.11941   0.12475   0.12971   0.13061   0.13628

 Mulliken charges and spin densities:
               1          2
     1  C    0.888432  -1.156145
     2  N   -0.078741   0.189893
     3  C    1.332034  -2.546515
     4  C   -1.548048   2.304537
     5  C   -0.148270  -0.452591
     6  C    1.097096  -1.306820
     7  C    0.490741  -0.871879
     8  C   -0.659167   0.442802
     9  C    0.005983   0.598385
    10  C    0.655913   0.218329
    11  C   -0.441472   0.118254
    12  O   -0.332269  -0.008618
    13  C    0.203363  -0.489878
    14  N   -0.379158   0.043791
    15  H   -0.186017   0.344874
    16  H    0.121883   0.043210
    17  H   -0.358088   0.532275
    18  H   -0.559138   0.803144
    19  H    0.211983  -0.013697
    20  H   -0.661975   0.809696
    21  H   -0.387709   0.539755
    22  H   -0.293136   0.450564
    23  H   -0.085726   0.210499
    24  H    0.111486   0.196134
 Sum of Mulliken charges =  -1.00000   1.00000

 Dipole moment (field-independent basis, Debye):
    X=              1.0469    Y=              3.0619    Z=             -0.9943  Tot=              3.3852
 Quadrupole moment (field-independent basis, Debye-Ang):
   XX=           -137.1314   YY=           -133.6332   ZZ=           -113.3158
   XY=             -6.1560   XZ=              0.9837   YZ=             -1.6573

 Summary of Natural Population Analysis:

                                       Natural Population
                Natural  -----------------------------------------------
    Atom  No    Charge         Core      Valence    Rydberg      Total
 -----------------------------------------------------------------------
      C    1   -0.17729      0.99964     2.16983    0.00783     3.17729
      N    2   -0.24575      0.99963     2.73575    0.01038     3.74575
      C    3   -0.08926      0.99957     2.07832    0.01137     3.08926
      C    4   -0.02285      0.99945     2.01282    0.01058     3.02285
      C    5   -0.08095      0.99951     2.07102    0.01043     3.08095
      C    6   -0.07946      0.99956     2.06985    0.01005     3.07946
      C    7   -0.10363      0.99956     2.09422    0.00985     3.10363
      C    8   -0.08005      0.99951     2.07108    0.00946     3.08005
      C    9   -0.00234      0.99944     1.99199    0.01091     3.00234
      C   10   -0.19726      0.99946     2.18745    0.01035     3.19726
      C   11    0.35876      0.99962     1.61728    0.02434     2.64124
      O   12   -0.32162      0.99987     3.31638    0.00536     4.32162
      C   13    0.16433      0.99963     1.81741    0.01863     2.83567
      N   14   -0.17733      0.99979     2.66694    0.01061     3.67733
      H   15    0.09493      0.00000     0.40385    0.00122     0.40507
      H   16    0.11300      0.00000     0.38592    0.00108     0.38700
      H   17    0.09924      0.00000     0.39931    0.00145     0.40076
      H   18    0.11088      0.00000     0.38653    0.00259     0.38912
      H   19    0.10168      0.00000     0.39691    0.00140     0.39832
      H   20    0.10323      0.00000     0.39488    0.00189     0.39677
      H   21    0.10022      0.00000     0.39844    0.00134     0.39978
      H   22    0.10018      0.00000     0.39879    0.00103     0.39982
      H   23    0.09813      0.00000     0.40047    0.00141     0.40187
      H   24    0.13323      0.00000     0.36476    0.00201     0.36677
 =======================================================================
   * Total *    0.00000     13.99426    34.83019    0.17555    49.00000

 Normal termination of Gaussian 16 at Thu Dec 10 09:37:01 2020.
