 Gaussian 16, Revision A.03,

 -----------------------------------------------------------
 # opt freq B3LYP/6-31G(d) empiricaldispersion=gd3bj scf=xqc
 -----------------------------------------------------------

 -------------------------------
 CID_116508299_JID_3954_neutraal
 -------------------------------
 Symbolic Z-matrix:
 Charge =  0 Multiplicity = 1

 SCF Done:  E(RB3LYP) =  -916.888394133     A.U. after   14 cycles
 SCF Done:  E(RB3LYP) =  -916.894652488     A.U. after   13 cycles
 SCF Done:  E(RB3LYP) =  -916.894822900     A.U. after   12 cycles
 SCF Done:  E(RB3LYP) =  -916.896170338     A.U. after   11 cycles
 SCF Done:  E(RB3LYP) =  -916.896553057     A.U. after   11 cycles
 SCF Done:  E(RB3LYP) =  -916.896741349     A.U. after   11 cycles
 SCF Done:  E(RB3LYP) =  -916.896823046     A.U. after   10 cycles
 SCF Done:  E(RB3LYP) =  -916.896854111     A.U. after   10 cycles
 SCF Done:  E(RB3LYP) =  -916.896875182     A.U. after   10 cycles
 SCF Done:  E(RB3LYP) =  -916.896887660     A.U. after    9 cycles
 SCF Done:  E(RB3LYP) =  -916.896893798     A.U. after    9 cycles
 SCF Done:  E(RB3LYP) =  -916.896897966     A.U. after    9 cycles
 SCF Done:  E(RB3LYP) =  -916.896902422     A.U. after    9 cycles
 SCF Done:  E(RB3LYP) =  -916.896904859     A.U. after    8 cycles
 SCF Done:  E(RB3LYP) =  -916.896905969     A.U. after    8 cycles
 SCF Done:  E(RB3LYP) =  -916.896906271     A.U. after    7 cycles
 Optimization completed.
    -- Stationary point found.
 Normal termination of Gaussian 16 at Sun Dec 13 16:02:04 2020.

 --------------------------------------------------------------------
 #N Geom=AllCheck Guess=TCheck SCRF=Check GenChk RB3LYP/6-31G(d) Freq
 --------------------------------------------------------------------

 Structure from the checkpoint file:  "JID_3954.chk"
 -------------------------------
 CID_116508299_JID_3954_neutraal
 -------------------------------
 Charge =  0 Multiplicity = 1

 SCF Done:  E(RB3LYP) =  -916.896906271     A.U. after    1 cycles

  Exact polarizability: 153.848  -4.917 139.778  -2.535  -9.786 106.908
 Approx polarizability: 193.018 -13.676 218.483  -6.727 -27.066 164.516

                      1                      2                      3
                      A                      A                      A
 Frequencies --     44.7089                65.9724               101.9910
 Red. masses --      4.6638                 3.7351                 1.4981
 Frc consts  --      0.0055                 0.0096                 0.0092
 IR Inten    --      2.5116                 1.9698                 2.2732

                      4                      5                      6
                      A                      A                      A
 Frequencies --    115.2563               141.5755               151.7377
 Red. masses --      2.3240                 2.3683                 2.2898
 Frc consts  --      0.0182                 0.0280                 0.0311
 IR Inten    --      1.9972                 2.0173                 2.2751

                      7                      8                      9
                      A                      A                      A
 Frequencies --    195.7380               226.9433               234.7747
 Red. masses --      4.0565                 3.4083                 2.2481
 Frc consts  --      0.0916                 0.1034                 0.0730
 IR Inten    --      4.1614                 5.9947                 0.5206

                     10                     11                     12
                      A                      A                      A
 Frequencies --    263.0762               263.8743               297.0540
 Red. masses --      1.3295                 2.1062                 1.3994
 Frc consts  --      0.0542                 0.0864                 0.0728
 IR Inten    --      0.7306                 1.9625                 1.2094

                     13                     14                     15
                      A                      A                      A
 Frequencies --    335.9021               368.5898               382.6330
 Red. masses --      1.9212                 2.4989                 2.8150
 Frc consts  --      0.1277                 0.2000                 0.2428
 IR Inten    --      1.5758                 2.6245                 3.0767

                     16                     17                     18
                      A                      A                      A
 Frequencies --    393.4546               418.1871               434.2998
 Red. masses --      2.1222                 4.3343                 2.0792
 Frc consts  --      0.1936                 0.4466                 0.2311
 IR Inten    --      0.2952                 0.6614                 6.7912

                     19                     20                     21
                      A                      A                      A
 Frequencies --    486.9896               519.6904               531.8543
 Red. masses --      4.0771                 3.3964                 2.4600
 Frc consts  --      0.5697                 0.5405                 0.4100
 IR Inten    --     17.5011                10.2283                 5.4682

                     22                     23                     24
                      A                      A                      A
 Frequencies --    625.4213               668.6975               685.3994
 Red. masses --      3.1053                 3.2915                 1.9004
 Frc consts  --      0.7156                 0.8672                 0.5260
 IR Inten    --     16.6142                47.9575                29.7868

                     25                     26                     27
                      A                      A                      A
 Frequencies --    763.6712               800.0416               863.8756
 Red. masses --      3.3416                 2.3775                 2.0568
 Frc consts  --      1.1482                 0.8966                 0.9044
 IR Inten    --      2.8406                 8.2315                 7.2700

                     28                     29                     30
                      A                      A                      A
 Frequencies --    878.8210               904.9838               966.0801
 Red. masses --      2.1281                 2.3132                 1.9769
 Frc consts  --      0.9684                 1.1162                 1.0871
 IR Inten    --      1.1408                 2.2328                 7.4182

                     31                     32                     33
                      A                      A                      A
 Frequencies --    968.6268              1035.1526              1044.8335
 Red. masses --      2.2723                 2.3320                 3.6907
 Frc consts  --      1.2561                 1.4723                 2.3738
 IR Inten    --      5.6704                11.3820                17.8722

                     34                     35                     36
                      A                      A                      A
 Frequencies --   1058.0594              1069.3973              1094.2808
 Red. masses --      1.8926                 1.8825                 2.0571
 Frc consts  --      1.2483                 1.2684                 1.4513
 IR Inten    --     15.5852                18.5928                26.8690

                     37                     38                     39
                      A                      A                      A
 Frequencies --   1129.4030              1141.0845              1157.4263
 Red. masses --      1.8138                 1.6853                 1.3225
 Frc consts  --      1.3631                 1.2929                 1.0438
 IR Inten    --     67.0858                 4.6990                14.9706

                     40                     41                     42
                      A                      A                      A
 Frequencies --   1166.5901              1171.3341              1176.5274
 Red. masses --      1.3869                 1.3366                 1.3700
 Frc consts  --      1.1121                 1.0804                 1.1173
 IR Inten    --     24.8338                15.2019                 1.7959

                     43                     44                     45
                      A                      A                      A
 Frequencies --   1181.7626              1201.3991              1230.7985
 Red. masses --      2.0949                 2.0676                 1.3888
 Frc consts  --      1.7237                 1.7583                 1.2396
 IR Inten    --     66.5975                25.7303                 1.9934

                     46                     47                     48
                      A                      A                      A
 Frequencies --   1264.9886              1288.0536              1311.9155
 Red. masses --      2.1780                 2.3556                 2.2577
 Frc consts  --      2.0535                 2.3026                 2.2895
 IR Inten    --     13.4691               218.8239                21.9088

                     49                     50                     51
                      A                      A                      A
 Frequencies --   1329.2239              1344.3130              1358.7660
 Red. masses --      1.3998                 1.4264                 1.4991
 Frc consts  --      1.4572                 1.5187                 1.6307
 IR Inten    --     35.9554                32.5175                 8.4399

                     52                     53                     54
                      A                      A                      A
 Frequencies --   1379.9247              1402.3086              1408.1792
 Red. masses --      1.3128                 1.6713                 1.5772
 Frc consts  --      1.4729                 1.9364                 1.8427
 IR Inten    --      2.2715                92.4588                71.4242

                     55                     56                     57
                      A                      A                      A
 Frequencies --   1415.4219              1432.8030              1460.1511
 Red. masses --      1.4591                 1.4657                 1.3219
 Frc consts  --      1.7223                 1.7729                 1.6605
 IR Inten    --     17.4943                11.0391                60.6355

                     58                     59                     60
                      A                      A                      A
 Frequencies --   1482.3635              1485.3832              1505.9107
 Red. masses --      1.1577                 1.1629                 1.1972
 Frc consts  --      1.4989                 1.5117                 1.5996
 IR Inten    --      1.4011                 3.1120                38.8200

                     61                     62                     63
                      A                      A                      A
 Frequencies --   1506.5605              1515.0998              1517.3369
 Red. masses --      1.1271                 1.0799                 1.0539
 Frc consts  --      1.5072                 1.4605                 1.4295
 IR Inten    --     11.0182                 2.4505                12.5243

                     64                     65                     66
                      A                      A                      A
 Frequencies --   1521.1208              1526.4404              1534.9117
 Red. masses --      1.1345                 1.2294                 1.0786
 Frc consts  --      1.5467                 1.6878                 1.4972
 IR Inten    --     11.5538                31.0585                25.2006

                     67                     68                     69
                      A                      A                      A
 Frequencies --   1537.0389              1542.1830              1546.2282
 Red. masses --      1.0633                 1.1531                 1.2508
 Frc consts  --      1.4800                 1.6157                 1.7619
 IR Inten    --     14.8576                33.8720                70.7806

                     70                     71                     72
                      A                      A                      A
 Frequencies --   1556.2349              1568.8948              2901.3813
 Red. masses --      1.1027                 1.1962                 1.0738
 Frc consts  --      1.5734                 1.7347                 5.3259
 IR Inten    --     56.9718                48.9066                36.8795

                     73                     74                     75
                      A                      A                      A
 Frequencies --   2912.2432              2946.7056              3041.5720
 Red. masses --      1.0726                 1.0611                 1.0651
 Frc consts  --      5.3596                 5.4286                 5.8056
 IR Inten    --     77.5981               130.5256                23.3012

                     76                     77                     78
                      A                      A                      A
 Frequencies --   3044.7333              3053.6456              3061.4822
 Red. masses --      1.0423                 1.0354                 1.0663
 Frc consts  --      5.6932                 5.6882                 5.8882
 IR Inten    --      9.6580                80.8543                36.5767

                     79                     80                     81
                      A                      A                      A
 Frequencies --   3077.6597              3081.9733              3087.9480
 Red. masses --      1.0835                 1.0739                 1.0988
 Frc consts  --      6.0468                 6.0100                 6.1733
 IR Inten    --     35.0766                56.4182                23.5864

                     82                     83                     84
                      A                      A                      A
 Frequencies --   3110.1676              3111.6261              3113.8335
 Red. masses --      1.1046                 1.0989                 1.0888
 Frc consts  --      6.2956                 6.2687                 6.2202
 IR Inten    --     20.2449                47.7478                11.2252

                     85                     86                     87
                      A                      A                      A
 Frequencies --   3126.3172              3132.1137              3133.2117
 Red. masses --      1.1038                 1.0860                 1.0920
 Frc consts  --      6.3566                 6.2771                 6.3163
 IR Inten    --     30.9894                 1.1387                24.2441

                     88                     89                     90
                      A                      A                      A
 Frequencies --   3141.0076              3170.4204              3610.9376
 Red. masses --      1.1040                 1.1047                 1.0765
 Frc consts  --      6.4171                 6.5423                 8.2703
 IR Inten    --     21.2028                 2.6118                37.7841

 - Thermochemistry -
 -------------------
 Temperature   298.150 Kelvin.  Pressure   1.00000 Atm.
 Atom     1 has atomic number  6 and mass  12.00000

 Molecular mass:   201.12997 amu.
 Principal axes and moments of inertia in atomic units:
                           1         2         3
     Eigenvalues --  1618.536584079.448874648.63081
           X            0.99939   0.03482  -0.00382
           Y           -0.03472   0.99909   0.02485
           Z            0.00469  -0.02470   0.99968
 This molecule is an asymmetric top.
 Rotational symmetry number  1.
 Warning -- assumption of classical behavior for rotation
           may cause significant error
 Rotational temperatures (Kelvin)      0.05351     0.02123     0.01863
 Rotational constants (GHZ):           1.11505     0.44240     0.38823
 Zero-point vibrational energy     756989.2 (Joules/Mol)
                                  180.92475 (Kcal/Mol)
 Warning -- explicit consideration of  21 degrees of freedom as
           vibrations may cause significant error
 Vibrational temperatures:     64.33    94.92   146.74   165.83   203.70
          (Kelvin)            218.32   281.62   326.52   337.79   378.51
                              379.66   427.39   483.29   530.32   550.52
                              566.09   601.68   624.86   700.67   747.72
                              765.22   899.84   962.11   986.14  1098.75
                             1151.08  1242.92  1264.43  1302.07  1389.97
                             1393.64  1489.35  1503.28  1522.31  1538.62
                             1574.43  1624.96  1641.77  1665.28  1678.46
                             1685.29  1692.76  1700.29  1728.55  1770.84
                             1820.04  1853.22  1887.55  1912.46  1934.17
                             1954.96  1985.40  2017.61  2026.06  2036.48
                             2061.48  2100.83  2132.79  2137.14  2166.67
                             2167.60  2179.89  2183.11  2188.55  2196.21
                             2208.40  2211.46  2218.86  2224.68  2239.07
                             2257.29  4174.44  4190.07  4239.65  4376.14
                             4380.69  4393.51  4404.79  4428.07  4434.27
                             4442.87  4474.84  4476.94  4480.11  4498.07
                             4506.41  4507.99  4519.21  4561.53  5195.33

 Zero-point correction=                           0.288322 (Hartree/Particle)
 Thermal correction to Energy=                    0.302367
 Thermal correction to Enthalpy=                  0.303311
 Thermal correction to Gibbs Free Energy=         0.247768
 Sum of electronic and zero-point Energies=           -916.608584
 Sum of electronic and thermal Energies=              -916.594539
 Sum of electronic and thermal Enthalpies=            -916.593595
 Sum of electronic and thermal Free Energies=         -916.649138

                     E (Thermal)             CV                S
                      KCal/Mol        Cal/Mol-Kelvin    Cal/Mol-Kelvin
 Total                  189.738             53.329            116.900
 Electronic               0.000              0.000              0.000
 Translational            0.889              2.981             41.801
 Rotational               0.889              2.981             31.796
 Vibrational            187.961             47.368             43.304
 Vibration     1          0.595              1.980              5.039
 Vibration     2          0.597              1.971              4.270
 Vibration     3          0.604              1.948              3.416
 Vibration     4          0.608              1.937              3.178
 Vibration     5          0.615              1.912              2.782
 Vibration     6          0.619              1.901              2.650
 Vibration     7          0.636              1.846              2.173
 Vibration     8          0.651              1.800              1.903
 Vibration     9          0.655              1.788              1.842
 Vibration    10          0.670              1.741              1.641
 Vibration    11          0.670              1.739              1.636
 Vibration    12          0.691              1.679              1.433
 Vibration    13          0.717              1.604              1.232
 Vibration    14          0.741              1.537              1.086
 Vibration    15          0.752              1.507              1.029
 Vibration    16          0.761              1.484              0.987
 Vibration    17          0.781              1.431              0.898
 Vibration    18          0.795              1.395              0.845
 Vibration    19          0.843              1.279              0.691
 Vibration    20          0.875              1.206              0.611
 Vibration    21          0.887              1.180              0.583

 Optimization completed.
    -- Stationary point found.
 Normal termination of Gaussian 16 at Sun Dec 13 16:11:01 2020.

 ----------------------------------------------------------------------
 # B3LYP/6-311++G(d,p) empiricaldispersion=gd3bj scf=xqc pop=npa geom=c
 heck
 ----------------------------------------------------------------------

 ---------------------------------------
 CID_116508299_JID_3954_Energie_neutraal
 ---------------------------------------
 Structure from the checkpoint file:  "JID_3954.chk"
 Charge =  0 Multiplicity = 1

 SCF Done:  E(RB3LYP) =  -917.067568802     A.U. after   14 cycles
 Normal termination of Gaussian 16 at Sun Dec 13 16:15:16 2020.

 ----------------------------------------------------------------------
 # B3LYP/6-311++G(d,p) empiricaldispersion=gd3bj scf=xqc pop=npa geom=c
 heck
 ----------------------------------------------------------------------

 -------------------------------------
 CID_116508299_JID_3954_Energie_kation
 -------------------------------------
 Structure from the checkpoint file:  "JID_3954.chk"
 Charge =  1 Multiplicity = 2

 SCF Done:  E(UB3LYP) =  -916.797092269     A.U. after   25 cycles
 Normal termination of Gaussian 16 at Sun Dec 13 16:25:58 2020.
 Gaussian 16:  ES64L-G16RevA.03 25-Dec-2016

 ----------------------------------------------------------------------
 # B3LYP/6-311++G(d,p) empiricaldispersion=gd3bj scf=xqc pop=npa geom=c
 heck
 ----------------------------------------------------------------------

 ------------------------------------
 CID_116508299_JID_3954_Energie_anion
 ------------------------------------
 Structure from the checkpoint file:  "JID_3954.chk"
 Charge = -1 Multiplicity = 2

                         Standard orientation:
 ---------------------------------------------------------------------
 Center     Atomic      Atomic             Coordinates (Angstroms)
 Number     Number       Type             X           Y           Z
 ---------------------------------------------------------------------
      1          6           0       -3.254408   -1.721146    0.492620
      2          7           0       -2.979426   -0.295081    0.680428
      3          6           0       -1.938105    0.354864    0.055626
      4         16           0       -2.193004    1.897570   -0.589069
      5          7           0       -0.750208   -0.314966    0.032898
      6          6           0       -0.406403   -1.246184    1.114332
      7          6           0        0.327952    0.153972   -0.856477
      8          6           0        1.058745   -0.994024   -1.579876
      9          6           0        2.214552   -1.619593   -0.785798
     10          6           0        3.098181   -0.538884   -0.160401
     11          7           0        2.300966    0.370048    0.661929
     12          6           0        1.323685    1.089817   -0.156639
     13          6           0        3.140321    1.297545    1.404271
     14          1           0       -2.749565   -2.095697   -0.404038
     15          1           0       -4.331515   -1.854925    0.363222
     16          1           0       -2.935550   -2.326838    1.347823
     17          1           0       -3.798462    0.297467    0.699718
     18          1           0       -0.455985   -2.293903    0.794724
     19          1           0        0.606149   -1.014331    1.448411
     20          1           0       -1.095438   -1.096916    1.946306
     21          1           0       -0.185483    0.754118   -1.607209
     22          1           0        1.475634   -0.560748   -2.498697
     23          1           0        0.334373   -1.754042   -1.894071
     24          1           0        2.821131   -2.245534   -1.451300
     25          1           0        1.838368   -2.274020    0.006288
     26          1           0        3.632145    0.016888   -0.960119
     27          1           0        3.863195   -0.998945    0.475283
     28          1           0        0.765786    1.788886    0.472464
     29          1           0        1.833611    1.691224   -0.937738
     30          1           0        3.735108    1.959844    0.745599
     31          1           0        2.514477    1.928760    2.043290
     32          1           0        3.833634    0.739382    2.042399
 ---------------------------------------------------------------------

 SCF Done:  E(UB3LYP) =  -917.057086949     A.U. after   31 cycles

 The electronic state is 2-A.
 Alpha  occ. eigenvalues --  -88.68630 -14.25311 -14.24032 -14.21744 -10.17956
 Alpha  occ. eigenvalues --  -10.11307 -10.10445 -10.09972 -10.09971 -10.09965
 Alpha  occ. eigenvalues --  -10.09723 -10.07703 -10.07210  -7.77414  -5.73826
 Alpha  occ. eigenvalues --   -5.73254  -5.72933  -0.89240  -0.84332  -0.81566
 Alpha  occ. eigenvalues --   -0.70401  -0.66582  -0.66185  -0.60741  -0.59784
 Alpha  occ. eigenvalues --   -0.56896  -0.54701  -0.52944  -0.49479  -0.44070
 Alpha  occ. eigenvalues --   -0.41979  -0.40098  -0.38789  -0.38322  -0.37456
 Alpha  occ. eigenvalues --   -0.36666  -0.35318  -0.35029  -0.33153  -0.31560
 Alpha  occ. eigenvalues --   -0.30811  -0.30500  -0.29984  -0.29312  -0.28577
 Alpha  occ. eigenvalues --   -0.27644  -0.26269  -0.25026  -0.24274  -0.23236
 Alpha  occ. eigenvalues --   -0.22637  -0.15715  -0.13266  -0.12094  -0.10728
 Alpha  occ. eigenvalues --    0.04054
 Alpha virt. eigenvalues --    0.05846   0.06901   0.07436   0.08144   0.08166
 Alpha virt. eigenvalues --    0.09070   0.09341   0.09951   0.10367   0.11062
 Alpha virt. eigenvalues --    0.11209   0.11724   0.12573   0.13069   0.13242

  Beta  occ. eigenvalues --  -88.68627 -14.25302 -14.24025 -14.21736 -10.17939
  Beta  occ. eigenvalues --  -10.11308 -10.10383 -10.09962 -10.09952 -10.09946
  Beta  occ. eigenvalues --  -10.09696 -10.07688 -10.07188  -7.77411  -5.73825
  Beta  occ. eigenvalues --   -5.73248  -5.72931  -0.89213  -0.84314  -0.81541
  Beta  occ. eigenvalues --   -0.70373  -0.66554  -0.66140  -0.60704  -0.59718
  Beta  occ. eigenvalues --   -0.56844  -0.54670  -0.52898  -0.49434  -0.44032
  Beta  occ. eigenvalues --   -0.41940  -0.40053  -0.38717  -0.38281  -0.37428
  Beta  occ. eigenvalues --   -0.36629  -0.35286  -0.34995  -0.33117  -0.31520
  Beta  occ. eigenvalues --   -0.30780  -0.30455  -0.29961  -0.29267  -0.28544
  Beta  occ. eigenvalues --   -0.27621  -0.26238  -0.24970  -0.24241  -0.23204
  Beta  occ. eigenvalues --   -0.22600  -0.15682  -0.13224  -0.12059  -0.10713
  Beta virt. eigenvalues --    0.06243   0.06975   0.07432   0.07910   0.08334
  Beta virt. eigenvalues --    0.08873   0.09506   0.09786   0.10379   0.10655
  Beta virt. eigenvalues --    0.11358   0.11541   0.12095   0.12918   0.13307

 Mulliken charges and spin densities:
               1          2
     1  C    1.104781  -1.507477
     2  N   -0.209699   0.196601
     3  C   -0.197370   0.194781
     4  S   -0.540213  -0.054827
     5  N    0.299956   0.132288
     6  C    0.715715  -1.122995
     7  C   -0.676564   0.508643
     8  C    0.103439  -0.694450
     9  C    0.064741  -0.213568
    10  C    0.336092  -0.727639
    11  N   -0.026987   0.133464
    12  C   -0.314865  -0.333966
    13  C    0.195973  -0.479966
    14  H   -0.200169   0.383805
    15  H   -0.778528   0.934054
    16  H   -0.336375   0.499900
    17  H    0.210293   0.068259
    18  H   -0.433832   0.619043
    19  H    0.201004   0.030745
    20  H    0.137509   0.041965
    21  H    0.064252   0.042872
    22  H    0.014502   0.135089
    23  H   -0.057781   0.230904
    24  H   -0.629705   0.829504
    25  H    0.125596   0.006571
    26  H    0.147703  -0.036250
    27  H   -0.410899   0.587276
    28  H    0.274605  -0.075532
    29  H    0.003853   0.105456
    30  H   -0.035536   0.139874
    31  H   -0.028865   0.157420
    32  H   -0.122624   0.268153
 Sum of Mulliken charges =  -1.00000   1.00000

 Dipole moment (field-independent basis, Debye):
    X=              2.3840    Y=              4.3407    Z=              0.0030  Tot=              4.9523
 Quadrupole moment (field-independent basis, Debye-Ang):
   XX=           -167.6967   YY=           -145.1810   ZZ=           -121.7525
   XY=             -0.2192   XZ=             -1.2567   YZ=              1.9505

 Summary of Natural Population Analysis:

                                       Natural Population
                Natural  -----------------------------------------------
    Atom  No    Charge         Core      Valence    Rydberg      Total
 -----------------------------------------------------------------------
      C    1   -0.18105      0.99964     2.17316    0.00825     3.18105
      N    2   -0.32499      0.99965     2.81245    0.01288     3.82499
      C    3    0.16779      0.99959     1.81055    0.02207     2.83221
      S    4   -0.15974      4.99958     3.14797    0.01219     8.15974
      N    5   -0.25574      0.99959     2.74095    0.01519     3.75574
      C    6   -0.18838      0.99961     2.17936    0.00940     3.18838
      C    7   -0.01164      0.99955     1.99811    0.01398     3.01164
      C    8   -0.19416      0.99960     2.18518    0.00938     3.19416
      C    9   -0.19607      0.99962     2.18746    0.00898     3.19607
      C   10   -0.08290      0.99961     2.07121    0.01209     3.08290
      N   11   -0.28663      0.99971     2.77558    0.01133     3.78663
      C   12   -0.08900      0.99958     2.07994    0.00948     3.08900
      C   13   -0.17408      0.99965     2.16628    0.00815     3.17408
      H   14    0.09938      0.00000     0.39837    0.00225     0.40062
      H   15    0.10136      0.00000     0.39683    0.00181     0.39864
      H   16    0.09580      0.00000     0.40215    0.00205     0.40420
      H   17    0.19742      0.00000     0.30054    0.00203     0.30258
      H   18    0.09743      0.00000     0.40069    0.00188     0.40257
      H   19    0.11346      0.00000     0.38447    0.00207     0.38654
      H   20    0.10367      0.00000     0.39500    0.00134     0.39633
      H   21    0.11963      0.00000     0.37882    0.00154     0.38037
      H   22    0.09927      0.00000     0.39969    0.00104     0.40073
      H   23    0.10794      0.00000     0.39076    0.00130     0.39206
      H   24    0.10160      0.00000     0.39708    0.00132     0.39840
      H   25    0.09956      0.00000     0.39852    0.00192     0.40044
      H   26    0.07692      0.00000     0.42144    0.00164     0.42308
      H   27    0.09942      0.00000     0.39902    0.00157     0.40058
      H   28    0.10849      0.00000     0.39036    0.00115     0.39151
      H   29    0.08323      0.00000     0.41537    0.00139     0.41677
      H   30    0.07957      0.00000     0.41919    0.00124     0.42043
      H   31    0.09547      0.00000     0.40370    0.00083     0.40453
      H   32    0.09696      0.00000     0.40202    0.00102     0.40304
 =======================================================================
   * Total *   -0.00000     16.99498    37.82223    0.18279    55.00000

 Normal termination of Gaussian 16 at Sun Dec 13 16:38:50 2020.
