 Gaussian 16, Revision A.03,

 -----------------------------------------------------------
 # opt freq B3LYP/6-31G(d) empiricaldispersion=gd3bj scf=xqc
 -----------------------------------------------------------

 ------------------------------
 CID_47155144_JID_9603_neutraal
 ------------------------------
 Symbolic Z-matrix:
 Charge =  0 Multiplicity = 1

 SCF Done:  E(RB3LYP) =  -841.197542541     A.U. after   15 cycles
 SCF Done:  E(RB3LYP) =  -841.187088244     A.U. after   15 cycles
 SCF Done:  E(RB3LYP) =  -841.205205564     A.U. after   13 cycles
 SCF Done:  E(RB3LYP) =  -841.205164180     A.U. after   13 cycles
 SCF Done:  E(RB3LYP) =  -841.206361084     A.U. after   13 cycles
 SCF Done:  E(RB3LYP) =  -841.206509934     A.U. after   12 cycles
 SCF Done:  E(RB3LYP) =  -841.205917026     A.U. after   13 cycles
 SCF Done:  E(RB3LYP) =  -841.206687308     A.U. after   12 cycles
 SCF Done:  E(RB3LYP) =  -841.206808041     A.U. after   11 cycles
 SCF Done:  E(RB3LYP) =  -841.206892153     A.U. after   12 cycles
 SCF Done:  E(RB3LYP) =  -841.208515806     A.U. after    8 cycles
 SCF Done:  E(RB3LYP) =  -841.208516180     A.U. after    8 cycles
 SCF Done:  E(RB3LYP) =  -841.208516311     A.U. after    8 cycles
 SCF Done:  E(RB3LYP) =  -841.208516361     A.U. after    7 cycles
 SCF Done:  E(RB3LYP) =  -841.208516397     A.U. after    7 cycles
 Optimization completed.
    -- Stationary point found.
 Normal termination of Gaussian 16 at Sat Dec 12 10:36:05 2020.

 --------------------------------------------------------------------
 #N Geom=AllCheck Guess=TCheck SCRF=Check GenChk RB3LYP/6-31G(d) Freq
 --------------------------------------------------------------------

 Structure from the checkpoint file:  "JID_9603.chk"
 ------------------------------
 CID_47155144_JID_9603_neutraal
 ------------------------------
 Charge =  0 Multiplicity = 1

 SCF Done:  E(RB3LYP) =  -841.208516397     A.U. after    1 cycles

  Exact polarizability: 214.203 -15.612 148.437  29.338  20.322 132.505
 Approx polarizability: 328.690 -34.750 224.566  64.944  40.785 224.589

                      1                      2                      3
                      A                      A                      A
 Frequencies --     29.4950                32.2768                46.2912
 Red. masses --      5.4908                 8.1834                 4.2885
 Frc consts  --      0.0028                 0.0050                 0.0054
 IR Inten    --      0.4743                 0.8397                 0.4368

                      4                      5                      6
                      A                      A                      A
 Frequencies --     66.8553                90.3143               112.1495
 Red. masses --      3.9591                 4.4024                 1.5528
 Frc consts  --      0.0104                 0.0212                 0.0115
 IR Inten    --      1.4564                 0.1165                 0.0194

                      7                      8                      9
                      A                      A                      A
 Frequencies --    125.5852               140.1704               145.2675
 Red. masses --      5.2621                 2.2234                 3.1707
 Frc consts  --      0.0489                 0.0257                 0.0394
 IR Inten    --      7.3377                 2.6073                 0.3535

                     10                     11                     12
                      A                      A                      A
 Frequencies --    154.2831               212.8057               228.2844
 Red. masses --      4.3756                 3.0093                 3.5020
 Frc consts  --      0.0614                 0.0803                 0.1075
 IR Inten    --      0.9879                 0.9711                 0.9747

                     13                     14                     15
                      A                      A                      A
 Frequencies --    274.4972               285.1541               359.1766
 Red. masses --      2.8070                 3.0434                 5.5779
 Frc consts  --      0.1246                 0.1458                 0.4240
 IR Inten    --      1.1401                 0.7270                 9.9398

                     16                     17                     18
                      A                      A                      A
 Frequencies --    364.9849               377.9167               387.8833
 Red. masses --      2.6548                 5.5180                 4.2940
 Frc consts  --      0.2084                 0.4643                 0.3806
 IR Inten    --      3.3127                 1.0521                 0.9083

                     19                     20                     21
                      A                      A                      A
 Frequencies --    422.0171               430.9751               471.9281
 Red. masses --      4.9022                 4.6078                 4.1580
 Frc consts  --      0.5144                 0.5043                 0.5456
 IR Inten    --      5.1200                 5.0008                 5.9130

                     22                     23                     24
                      A                      A                      A
 Frequencies --    473.4234               496.1713               528.9093
 Red. masses --      5.3096                 3.7014                 1.2764
 Frc consts  --      0.7012                 0.5369                 0.2104
 IR Inten    --      5.1840                12.5708                57.3006

                     25                     26                     27
                      A                      A                      A
 Frequencies --    554.8880               556.6921               568.3237
 Red. masses --      6.1804                 2.6657                 1.4064
 Frc consts  --      1.1212                 0.4867                 0.2676
 IR Inten    --      0.6873                 7.5002                37.5844

                     28                     29                     30
                      A                      A                      A
 Frequencies --    603.7983               612.7693               629.1026
 Red. masses --      5.0646                 3.3847                 1.2042
 Frc consts  --      1.0879                 0.7488                 0.2808
 IR Inten    --     12.0719                13.7415                41.2892

                     31                     32                     33
                      A                      A                      A
 Frequencies --    681.0372               693.0966               707.1062
 Red. masses --      5.1421                 2.9679                 2.6120
 Frc consts  --      1.4052                 0.8400                 0.7695
 IR Inten    --      0.9830                 4.5468                15.5186

                     34                     35                     36
                      A                      A                      A
 Frequencies --    726.4689               735.3707               776.8277
 Red. masses --      3.9605                 4.1372                 3.2095
 Frc consts  --      1.2315                 1.3182                 1.1411
 IR Inten    --     16.2742                 2.0206                23.2292

                     37                     38                     39
                      A                      A                      A
 Frequencies --    809.5934               816.5491               907.6662
 Red. masses --      3.8710                 1.8462                 2.0606
 Frc consts  --      1.4949                 0.7253                 1.0002
 IR Inten    --      3.2594                13.9271                 3.6796

                     40                     41                     42
                      A                      A                      A
 Frequencies --    915.5884               925.2116               931.0362
 Red. masses --      1.5904                 1.4351                 2.3517
 Frc consts  --      0.7855                 0.7238                 1.2010
 IR Inten    --      0.9650                 0.8404                 3.7574

                     43                     44                     45
                      A                      A                      A
 Frequencies --    961.8786               976.9444               984.1850
 Red. masses --      2.4395                 1.3050                 2.1074
 Frc consts  --      1.3298                 0.7339                 1.2027
 IR Inten    --     12.7379                 0.7691                 4.4049

                     46                     47                     48
                      A                      A                      A
 Frequencies --   1001.5276              1024.6423              1066.3895
 Red. masses --      2.8172                 6.1413                 1.9433
 Frc consts  --      1.6649                 3.7989                 1.3020
 IR Inten    --     10.2408                 3.0615                28.6437

                     49                     50                     51
                      A                      A                      A
 Frequencies --   1079.0333              1121.4601              1123.2337
 Red. masses --      2.0325                 1.7045                 2.3074
 Frc consts  --      1.3943                 1.2631                 1.7152
 IR Inten    --     11.3393                 3.0348                 6.7999

                     52                     53                     54
                      A                      A                      A
 Frequencies --   1161.3694              1166.5875              1189.5840
 Red. masses --      1.3782                 2.5004                 1.7376
 Frc consts  --      1.0952                 2.0049                 1.4487
 IR Inten    --      3.4353                39.6108                 6.0342

                     55                     56                     57
                      A                      A                      A
 Frequencies --   1201.8505              1227.7094              1236.3654
 Red. masses --      1.1505                 1.3027                 1.3117
 Frc consts  --      0.9792                 1.1569                 1.1813
 IR Inten    --      0.2634                16.0209                23.0541

                     58                     59                     60
                      A                      A                      A
 Frequencies --   1260.6776              1291.6399              1303.1097
 Red. masses --      1.4713                 3.3349                 2.4555
 Frc consts  --      1.3777                 3.2781                 2.4567
 IR Inten    --     40.1439                19.8216                12.5172

                     61                     62                     63
                      A                      A                      A
 Frequencies --   1318.8651              1340.3148              1344.7336
 Red. masses --      1.9653                 1.4036                 1.4494
 Frc consts  --      2.0141                 1.4856                 1.5442
 IR Inten    --      2.1383                 3.2025                 9.5011

                     64                     65                     66
                      A                      A                      A
 Frequencies --   1355.4059              1365.5751              1381.1150
 Red. masses --      2.9789                 1.6123                 2.4196
 Frc consts  --      3.2244                 1.7714                 2.7192
 IR Inten    --      3.1643                13.7976               193.5894

                     67                     68                     69
                      A                      A                      A
 Frequencies --   1391.5653              1402.3313              1439.3828
 Red. masses --      1.4656                 1.3422                 2.1390
 Frc consts  --      1.6721                 1.5552                 2.6111
 IR Inten    --     41.6831                 3.3998                17.1096

                     70                     71                     72
                      A                      A                      A
 Frequencies --   1446.7170              1479.3344              1486.6719
 Red. masses --      1.3643                 1.7139                 2.5149
 Frc consts  --      1.6824                 2.2099                 3.2749
 IR Inten    --     32.5168                63.8441                27.1713

                     73                     74                     75
                      A                      A                      A
 Frequencies --   1501.4245              1520.0788              1528.3104
 Red. masses --      1.1150                 1.0922                 1.0736
 Frc consts  --      1.4810                 1.4869                 1.4775
 IR Inten    --     29.5520                 6.8288                11.8383

                     76                     77                     78
                      A                      A                      A
 Frequencies --   1532.5221              1533.9515              1555.9236
 Red. masses --      1.0805                 2.4985                 1.2057
 Frc consts  --      1.4952                 3.4637                 1.7198
 IR Inten    --      5.9348                41.0072                17.1997

                     79                     80                     81
                      A                      A                      A
 Frequencies --   1634.7285              1659.2198              1774.6779
 Red. masses --      5.5774                 5.9878                 9.4872
 Frc consts  --      8.7816                 9.7124                17.6047
 IR Inten    --     19.9927                35.2018               116.6210

                     82                     83                     84
                      A                      A                      A
 Frequencies --   1777.9220              2232.8768              3003.6655
 Red. masses --      8.4246                 6.1435                 1.0721
 Frc consts  --     15.6901                18.0466                 5.6989
 IR Inten    --    551.3839                 0.3325                55.2119

                     85                     86                     87
                      A                      A                      A
 Frequencies --   3032.1856              3044.4695              3080.3285
 Red. masses --      1.0397                 1.0736                 1.1042
 Frc consts  --      5.6320                 5.8632                 6.1731
 IR Inten    --     62.0433                13.1280                33.9274

                     88                     89                     90
                      A                      A                      A
 Frequencies --   3085.1261              3098.5959              3103.4404
 Red. masses --      1.0653                 1.0868                 1.0877
 Frc consts  --      5.9740                 6.1479                 6.1726
 IR Inten    --     14.6040                14.5664                26.4493

                     91                     92                     93
                      A                      A                      A
 Frequencies --   3135.4161              3155.4397              3184.9059
 Red. masses --      1.1011                 1.0904                 1.0961
 Frc consts  --      6.3777                 6.3965                 6.5510
 IR Inten    --     34.3197                 7.1320                 1.1240

                     94                     95                     96
                      A                      A                      A
 Frequencies --   3196.4632              3217.5209              3220.6690
 Red. masses --      1.0876                 1.0919                 1.0912
 Frc consts  --      6.5472                 6.6599                 6.6690
 IR Inten    --      7.2991                 2.6140                 9.6990

                     97                     98                     99
                      A                      A                      A
 Frequencies --   3226.2612              3497.0132              3566.6612
 Red. masses --      1.0958                 1.1574                 1.0748
 Frc consts  --      6.7199                 8.3389                 8.0553
 IR Inten    --      8.6907                82.6094                27.6523

 - Thermochemistry -
 -------------------
 Temperature   298.150 Kelvin.  Pressure   1.00000 Atm.
 Atom     1 has atomic number  6 and mass  12.00000

 Molecular mass:   256.12118 amu.
 Principal axes and moments of inertia in atomic units:
                           1         2         3
     Eigenvalues --  3298.278595356.189946883.83110
           X            0.99960   0.02794   0.00370
           Y           -0.02803   0.99926   0.02649
           Z           -0.00295  -0.02658   0.99964
 This molecule is an asymmetric top.
 Rotational symmetry number  1.
 Warning -- assumption of classical behavior for rotation
           may cause significant error
 Rotational temperatures (Kelvin)      0.02626     0.01617     0.01258
 Rotational constants (GHZ):           0.54718     0.33694     0.26217
 Zero-point vibrational energy     751481.8 (Joules/Mol)
                                  179.60845 (Kcal/Mol)
 Warning -- explicit consideration of  29 degrees of freedom as
           vibrations may cause significant error
 Vibrational temperatures:     42.44    46.44    66.60    96.19   129.94
          (Kelvin)            161.36   180.69   201.67   209.01   221.98
                              306.18   328.45   394.94   410.27   516.78
                              525.13   543.74   558.08   607.19   620.08
                              679.00   681.15   713.88   760.98   798.36
                              800.96   817.69   868.73   881.64   905.14
                              979.86   997.21  1017.37  1045.23  1058.03
                             1117.68  1164.82  1174.83  1305.93  1317.33
                             1331.17  1339.55  1383.93  1405.61  1416.02
                             1440.97  1474.23  1534.30  1552.49  1613.53
                             1616.08  1670.95  1678.46  1711.55  1729.19
                             1766.40  1778.85  1813.83  1858.38  1874.88
                             1897.55  1928.41  1934.77  1950.13  1964.76
                             1987.12  2002.15  2017.64  2070.95  2081.50
                             2128.43  2138.99  2160.21  2187.05  2198.90
                             2204.96  2207.01  2238.63  2352.01  2387.25
                             2553.37  2558.03  3212.61  4321.60  4362.64
                             4380.31  4431.91  4438.81  4458.19  4465.16
                             4511.16  4539.97  4582.37  4599.00  4629.29
                             4633.82  4641.87  5031.42  5131.63

 Zero-point correction=                           0.286224 (Hartree/Particle)
 Thermal correction to Energy=                    0.303888
 Thermal correction to Enthalpy=                  0.304832
 Thermal correction to Gibbs Free Energy=         0.239702
 Sum of electronic and zero-point Energies=           -840.922292
 Sum of electronic and thermal Energies=              -840.904629
 Sum of electronic and thermal Enthalpies=            -840.903685
 Sum of electronic and thermal Free Energies=         -840.968814

                     E (Thermal)             CV                S
                      KCal/Mol        Cal/Mol-Kelvin    Cal/Mol-Kelvin
 Total                  190.692             67.380            137.077
 Electronic               0.000              0.000              0.000
 Translational            0.889              2.981             42.521
 Rotational               0.889              2.981             33.164
 Vibrational            188.915             61.419             61.392
 Vibration     1          0.593              1.984              5.863
 Vibration     2          0.594              1.983              5.684
 Vibration     3          0.595              1.979              4.970
 Vibration     4          0.598              1.970              4.244
 Vibration     5          0.602              1.956              3.653
 Vibration     6          0.607              1.939              3.231
 Vibration     7          0.611              1.927              3.013
 Vibration     8          0.615              1.913              2.802
 Vibration     9          0.617              1.908              2.733
 Vibration    10          0.620              1.898              2.619
 Vibration    11          0.644              1.821              2.019
 Vibration    12          0.651              1.798              1.892
 Vibration    13          0.677              1.720              1.568
 Vibration    14          0.683              1.701              1.503
 Vibration    15          0.734              1.556              1.126
 Vibration    16          0.738              1.544              1.101
 Vibration    17          0.748              1.517              1.047
 Vibration    18          0.756              1.496              1.008
 Vibration    19          0.784              1.422              0.885
 Vibration    20          0.792              1.403              0.855
 Vibration    21          0.829              1.312              0.732
 Vibration    22          0.830              1.309              0.728
 Vibration    23          0.852              1.259              0.668
 Vibration    24          0.884              1.186              0.590
 Vibration    25          0.910              1.129              0.534
 Vibration    26          0.912              1.125              0.530
 Vibration    27          0.924              1.100              0.507
 Vibration    28          0.962              1.024              0.443
 Vibration    29          0.972              1.005              0.428

                           ! Non-Optimized Parameters !
 Normal termination of Gaussian 16 at Sat Dec 12 10:54:59 2020.

 ----------------------------------------------------------------------
 # B3LYP/6-311++G(d,p) empiricaldispersion=gd3bj scf=xqc pop=npa geom=c
 heck
 ----------------------------------------------------------------------

 --------------------------------------
 CID_47155144_JID_9603_Energie_neutraal
 --------------------------------------
 Structure from the checkpoint file:  "JID_9603.chk"
 Charge =  0 Multiplicity = 1

 SCF Done:  E(RB3LYP) =  -841.444834720     A.U. after   16 cycles
 Normal termination of Gaussian 16 at Sat Dec 12 11:03:16 2020.

 ----------------------------------------------------------------------
 # B3LYP/6-311++G(d,p) empiricaldispersion=gd3bj scf=xqc pop=npa geom=c
 heck
 ----------------------------------------------------------------------

 ------------------------------------
 CID_47155144_JID_9603_Energie_kation
 ------------------------------------
 Structure from the checkpoint file:  "JID_9603.chk"
 Charge =  1 Multiplicity = 2

 SCF Done:  E(UB3LYP) =  -841.148137003     A.U. after   28 cycles
 Normal termination of Gaussian 16 at Sat Dec 12 11:23:58 2020.
 Gaussian 16:  ES64L-G16RevA.03 25-Dec-2016

 ----------------------------------------------------------------------
 # B3LYP/6-311++G(d,p) empiricaldispersion=gd3bj scf=xqc pop=npa geom=c
 heck
 ----------------------------------------------------------------------

 -----------------------------------
 CID_47155144_JID_9603_Energie_anion
 -----------------------------------
 Structure from the checkpoint file:  "JID_9603.chk"
 Charge = -1 Multiplicity = 2

                         Standard orientation:
 ---------------------------------------------------------------------
 Center     Atomic      Atomic             Coordinates (Angstroms)
 Number     Number       Type             X           Y           Z
 ---------------------------------------------------------------------
      1          6           0       -0.997569   -3.238223   -0.327265
      2          7           0       -1.420185   -1.959688    0.212878
      3          6           0       -2.796384   -1.517772    0.010715
      4          6           0       -2.821497   -0.045520   -0.391350
      5          6           0       -2.165089    0.837507    0.698895
      6          6           0       -1.147039    0.050614    1.569744
      7          6           0       -0.559060   -1.230351    0.990726
      8          8           0        0.579969   -1.596442    1.257830
      9          6           0       -1.671884    2.153623    0.090992
     10          8           0       -2.384170    3.148957    0.126315
     11          7           0       -0.437105    2.221639   -0.518582
     12          6           0        0.559252    1.219121   -0.731759
     13          6           0        0.412185    0.269392   -1.747318
     14          6           0        1.403327   -0.689981   -1.951992
     15          6           0        2.551962   -0.692643   -1.169020
     16          6           0        2.726843    0.280057   -0.169552
     17          6           0        1.719136    1.232661    0.042008
     18          6           0        3.909305    0.295449    0.628796
     19          6           0        4.916389    0.314194    1.297753
     20          1           0        0.065907   -3.350656   -0.118500
     21          1           0       -1.545739   -4.069788    0.135183
     22          1           0       -1.166655   -3.268619   -1.410884
     23          1           0       -3.232849   -2.132802   -0.781860
     24          1           0       -3.401867   -1.685604    0.915367
     25          1           0       -2.284325    0.049410   -1.337983
     26          1           0       -3.848317    0.289573   -0.567679
     27          1           0       -2.962339    1.178540    1.362858
     28          1           0       -0.307104    0.670233    1.884571
     29          1           0       -1.663740   -0.251616    2.490572
     30          1           0       -0.228015    3.161797   -0.836628
     31          1           0       -0.467511    0.298667   -2.380281
     32          1           0        1.280281   -1.433733   -2.733577
     33          1           0        3.324083   -1.438909   -1.320879
     34          1           0        1.834699    1.976955    0.822547
     35          1           0        5.798854    0.323996    1.895708
 ---------------------------------------------------------------------

 SCF Done:  E(UB3LYP) =  -841.443785313     A.U. after   33 cycles
 SCF Done:  E(UB3LYP) =  -841.443785313     a.u. after    1 cycles

 The electronic state is 2-A.
 Alpha  occ. eigenvalues --  -18.99271 -18.97511 -14.24075 -14.23835 -10.17882
 Alpha  occ. eigenvalues --  -10.16275 -10.11541 -10.10115 -10.09740 -10.09616
 Alpha  occ. eigenvalues --  -10.08563 -10.08300 -10.06849 -10.06096 -10.06018
 Alpha  occ. eigenvalues --  -10.05936 -10.05602 -10.05180 -10.04275  -0.94520
 Alpha  occ. eigenvalues --   -0.92918  -0.83864  -0.82862  -0.74161  -0.72168
 Alpha  occ. eigenvalues --   -0.66517  -0.65468  -0.63612  -0.62075  -0.61158
 Alpha  occ. eigenvalues --   -0.56642  -0.53599  -0.51832  -0.50940  -0.47672
 Alpha  occ. eigenvalues --   -0.44703  -0.43349  -0.40822  -0.40625  -0.39190
 Alpha  occ. eigenvalues --   -0.38338  -0.38082  -0.36010  -0.35194  -0.35104
 Alpha  occ. eigenvalues --   -0.34181  -0.32951  -0.32609  -0.31690  -0.31633
 Alpha  occ. eigenvalues --   -0.30264  -0.29385  -0.29202  -0.27786  -0.26883
 Alpha  occ. eigenvalues --   -0.25701  -0.25010  -0.24867  -0.24249  -0.23958
 Alpha  occ. eigenvalues --   -0.20025  -0.17071  -0.16740  -0.16116  -0.14857
 Alpha  occ. eigenvalues --   -0.14326  -0.13920  -0.12119   0.04040
 Alpha virt. eigenvalues --    0.05637   0.07239   0.07736   0.08027   0.08436
 Alpha virt. eigenvalues --    0.08897   0.09420   0.10100   0.10268   0.10826
 Alpha virt. eigenvalues --    0.11137   0.11546   0.11724   0.12488   0.12727

  Beta  occ. eigenvalues --  -18.99272 -18.97510 -14.24074 -14.23835 -10.17881
  Beta  occ. eigenvalues --  -10.16273 -10.11511 -10.10134 -10.09738 -10.09592
  Beta  occ. eigenvalues --  -10.08558 -10.08288 -10.06631 -10.06023 -10.06012
  Beta  occ. eigenvalues --  -10.05880 -10.05612 -10.04911 -10.04120  -0.94519
  Beta  occ. eigenvalues --   -0.92916  -0.83856  -0.82832  -0.73884  -0.72150
  Beta  occ. eigenvalues --   -0.66150  -0.65438  -0.63439  -0.62030  -0.60868
  Beta  occ. eigenvalues --   -0.56601  -0.53558  -0.51480  -0.50743  -0.47601
  Beta  occ. eigenvalues --   -0.44589  -0.43305  -0.40730  -0.40503  -0.39171
  Beta  occ. eigenvalues --   -0.38312  -0.37914  -0.35885  -0.35168  -0.35013
  Beta  occ. eigenvalues --   -0.34116  -0.32919  -0.32556  -0.31663  -0.31563
  Beta  occ. eigenvalues --   -0.30231  -0.29360  -0.29170  -0.27625  -0.26525
  Beta  occ. eigenvalues --   -0.25608  -0.24924  -0.24740  -0.24028  -0.23931
  Beta  occ. eigenvalues --   -0.19204  -0.16905  -0.16693  -0.16047  -0.14723
  Beta  occ. eigenvalues --   -0.14206  -0.13572  -0.11047
  Beta virt. eigenvalues --    0.06439   0.07602   0.07878   0.08109   0.08213
  Beta virt. eigenvalues --    0.08610   0.09136   0.09465   0.10308   0.10397
  Beta virt. eigenvalues --    0.11026   0.11250   0.11575   0.11780   0.12594

 Mulliken charges and spin densities:
               1          2
     1  C    0.406403  -0.693977
     2  N   -0.013280   0.174998
     3  C    0.518212  -1.151726
     4  C   -0.671962   0.625564
     5  C    0.916650  -0.457424
     6  C   -0.584466   0.048204
     7  C   -0.036491  -0.093536
     8  O   -0.259642   0.002083
     9  C   -0.297215  -0.032986
    10  O   -0.330191   0.006605
    11  N   -0.220663   0.026166
    12  C   -0.612043  -0.127975
    13  C    0.241590   0.045497
    14  C   -0.333946   0.050172
    15  C   -0.740902  -0.050411
    16  C    0.420177   0.159686
    17  C   -0.255572   0.097920
    18  C    1.072918  -0.130770
    19  C   -0.812797   0.228648
    20  H    0.135157   0.041163
    21  H   -0.197001   0.347917
    22  H   -0.031746   0.185461
    23  H   -0.537589   0.727161
    24  H   -0.122398   0.282613
    25  H    0.243375  -0.111624
    26  H   -0.057100   0.246640
    27  H    0.247524   0.001238
    28  H    0.223509   0.009398
    29  H    0.012225   0.190245
    30  H    0.310862   0.005697
    31  H   -0.107082   0.250846
    32  H    0.039537   0.099726
    33  H    0.142812   0.001650
    34  H    0.160523   0.002020
    35  H    0.130612  -0.006888
 Sum of Mulliken charges =  -1.00000   1.00000

 Dipole moment (field-independent basis, Debye):
    X=              0.2423    Y=              1.4223    Z=             -0.0098  Tot=              1.4428
 Quadrupole moment (field-independent basis, Debye-Ang):
   XX=           -175.0876   YY=           -155.9611   ZZ=           -134.9579
   XY=             -1.1987   XZ=             -4.9944   YZ=              1.8107

 Summary of Natural Population Analysis:

                                       Natural Population
                Natural  -----------------------------------------------
    Atom  No    Charge         Core      Valence    Rydberg      Total
 -----------------------------------------------------------------------
      C    1   -0.17711      0.99963     2.16926    0.00821     3.17711
      N    2   -0.26231      0.99963     2.75051    0.01217     3.76231
      C    3   -0.07919      0.99961     2.06902    0.01056     3.07919
      C    4   -0.18885      0.99960     2.18097    0.00828     3.18885
      C    5   -0.14749      0.99955     2.13691    0.01104     3.14749
      C    6   -0.23469      0.99957     2.22588    0.00924     3.23469
      C    7    0.34860      0.99963     1.62778    0.02400     2.65140
      O    8   -0.32092      0.99988     3.31497    0.00607     4.32092
      C    9    0.35304      0.99963     1.62427    0.02307     2.64696
      O   10   -0.33008      0.99988     3.32435    0.00585     4.33008
      N   11   -0.32009      0.99964     2.81007    0.01038     3.82009
      C   12    0.04586      0.99945     1.94286    0.01184     2.95414
      C   13   -0.05853      0.99950     2.04974    0.00928     3.05853
      C   14   -0.10377      0.99956     2.09445    0.00975     3.10377
      C   15   -0.06020      0.99953     2.05149    0.00918     3.06020
      C   16   -0.03091      0.99945     2.02204    0.00941     3.03091
      C   17   -0.06337      0.99945     2.05603    0.00790     3.06337
      C   18   -0.00074      0.99938     1.99387    0.00749     3.00074
      C   19   -0.10386      0.99928     2.10094    0.00364     3.10386
      H   20    0.11755      0.00000     0.38134    0.00111     0.38245
      H   21    0.09081      0.00000     0.40814    0.00105     0.40919
      H   22    0.09285      0.00000     0.40597    0.00117     0.40715
      H   23    0.10419      0.00000     0.39403    0.00178     0.39581
      H   24    0.09095      0.00000     0.40748    0.00157     0.40905
      H   25    0.10284      0.00000     0.39505    0.00211     0.39716
      H   26    0.10422      0.00000     0.39476    0.00102     0.39578
      H   27    0.11126      0.00000     0.38757    0.00117     0.38874
      H   28    0.12019      0.00000     0.37873    0.00108     0.37981
      H   29    0.11107      0.00000     0.38793    0.00101     0.38893
      H   30    0.19445      0.00000     0.30329    0.00226     0.30555
      H   31    0.09513      0.00000     0.40326    0.00161     0.40487
      H   32    0.09733      0.00000     0.40185    0.00082     0.40267
      H   33    0.09850      0.00000     0.40072    0.00078     0.40150
      H   34    0.10018      0.00000     0.39904    0.00078     0.39982
      H   35    0.10312      0.00000     0.39594    0.00095     0.39688
 =======================================================================
   * Total *    0.00002     18.99185    48.79052    0.21761    67.99998

 Normal termination of Gaussian 16 at Sat Dec 12 11:48:38 2020.
