 Gaussian 16, Revision A.03,

 -----------------------------------------------------------
 # opt freq B3LYP/6-31G(d) empiricaldispersion=gd3bj scf=xqc
 -----------------------------------------------------------

 ------------------------------
 CID_75399896_JID_7585_neutraal
 ------------------------------
 Symbolic Z-matrix:
 Charge =  0 Multiplicity = 1

 SCF Done:  E(RB3LYP) =  -802.088605494     A.U. after   15 cycles
 SCF Done:  E(RB3LYP) =  -802.098147693     A.U. after   13 cycles
 SCF Done:  E(RB3LYP) =  -802.100345741     A.U. after   13 cycles
 SCF Done:  E(RB3LYP) =  -802.101338406     A.U. after   13 cycles
 SCF Done:  E(RB3LYP) =  -802.101745074     A.U. after   13 cycles
 SCF Done:  E(RB3LYP) =  -802.102055396     A.U. after   13 cycles
 SCF Done:  E(RB3LYP) =  -802.102093488     A.U. after   12 cycles
 SCF Done:  E(RB3LYP) =  -802.102184340     A.U. after   11 cycles
 SCF Done:  E(RB3LYP) =  -802.102201589     A.U. after   10 cycles
 SCF Done:  E(RB3LYP) =  -802.102206949     A.U. after    9 cycles
 SCF Done:  E(RB3LYP) =  -802.103067862     A.U. after   12 cycles
 SCF Done:  E(RB3LYP) =  -802.103169154     A.U. after   12 cycles
 SCF Done:  E(RB3LYP) =  -802.103184334     A.U. after   11 cycles
 SCF Done:  E(RB3LYP) =  -802.103185555     A.U. after    9 cycles
 SCF Done:  E(RB3LYP) =  -802.103185716     A.U. after    8 cycles
 SCF Done:  E(RB3LYP) =  -802.103185735     A.U. after    6 cycles
 Optimization completed.
    -- Stationary point found.
 Normal termination of Gaussian 16 at Fri Dec 11 13:14:08 2020.

 --------------------------------------------------------------------
 #N Geom=AllCheck Guess=TCheck SCRF=Check GenChk RB3LYP/6-31G(d) Freq
 --------------------------------------------------------------------

 Structure from the checkpoint file:  "JID_7585.chk"
 ------------------------------
 CID_75399896_JID_7585_neutraal
 ------------------------------
 Charge =  0 Multiplicity = 1

 SCF Done:  E(RB3LYP) =  -802.103185735     A.U. after    1 cycles

  Exact polarizability: 170.907  -5.204 163.421 -16.193 -11.976 100.520
 Approx polarizability: 220.992  -0.432 275.376 -35.269 -36.913 164.840

                      1                      2                      3
                      A                      A                      A
 Frequencies --     19.3495                31.7678                38.1584
 Red. masses --      4.0570                 5.2123                 2.3757
 Frc consts  --      0.0009                 0.0031                 0.0020
 IR Inten    --      1.2439                 3.1205                 0.2643

                      4                      5                      6
                      A                      A                      A
 Frequencies --     51.1812                81.8664               100.7007
 Red. masses --      2.5535                 4.2384                 4.5904
 Frc consts  --      0.0039                 0.0167                 0.0274
 IR Inten    --      0.4277                 2.0468                 1.1179

                      7                      8                      9
                      A                      A                      A
 Frequencies --    111.7226               148.5555               184.1477
 Red. masses --      1.1134                 4.0791                 2.9608
 Frc consts  --      0.0082                 0.0530                 0.0592
 IR Inten    --      0.0084                 1.7474                 2.8094

                     10                     11                     12
                      A                      A                      A
 Frequencies --    190.5926               220.8471               249.3642
 Red. masses --      3.6905                 4.9316                 4.3379
 Frc consts  --      0.0790                 0.1417                 0.1589
 IR Inten    --      0.7693                 2.2316                 0.2619

                     13                     14                     15
                      A                      A                      A
 Frequencies --    299.6674               323.2138               344.6019
 Red. masses --      4.5091                 5.9851                 3.6312
 Frc consts  --      0.2386                 0.3684                 0.2541
 IR Inten    --     16.3907                 2.0918                12.5204

                     16                     17                     18
                      A                      A                      A
 Frequencies --    392.5797               410.0815               455.3938
 Red. masses --      6.3318                 3.4708                 3.8557
 Frc consts  --      0.5750                 0.3439                 0.4711
 IR Inten    --      6.5161                19.2781                 1.0349

                     19                     20                     21
                      A                      A                      A
 Frequencies --    465.3543               495.6925               578.0541
 Red. masses --      2.7679                 2.5137                 2.7419
 Frc consts  --      0.3532                 0.3639                 0.5398
 IR Inten    --      3.0931                28.3127                 6.7551

                     22                     23                     24
                      A                      A                      A
 Frequencies --    596.5343               609.4276               618.1162
 Red. masses --      3.3587                 4.4209                 4.0194
 Frc consts  --      0.7042                 0.9674                 0.9048
 IR Inten    --     73.3008                38.6714                 5.1911

                     25                     26                     27
                      A                      A                      A
 Frequencies --    633.1459               695.7060               720.4853
 Red. masses --      4.1748                 3.3373                 6.3567
 Frc consts  --      0.9860                 0.9517                 1.9442
 IR Inten    --      4.6612                77.5821                 8.3453

                     28                     29                     30
                      A                      A                      A
 Frequencies --    742.7904               759.1836               774.7359
 Red. masses --      5.0580                 2.4527                 4.5492
 Frc consts  --      1.6442                 0.8329                 1.6088
 IR Inten    --      5.8211                56.6303                 8.7033

                     31                     32                     33
                      A                      A                      A
 Frequencies --    788.8161               811.3249               830.2858
 Red. masses --      1.1930                 2.0365                 1.9280
 Frc consts  --      0.4373                 0.7898                 0.7831
 IR Inten    --      0.5623                 1.7270                 1.8225

                     34                     35                     36
                      A                      A                      A
 Frequencies --    891.7616               904.7799               927.7566
 Red. masses --      3.1583                 2.1637                 1.4165
 Frc consts  --      1.4798                 1.0436                 0.7183
 IR Inten    --      0.8017                 0.8719                31.1564

                     37                     38                     39
                      A                      A                      A
 Frequencies --    937.2721               954.0203               962.4424
 Red. masses --      1.2587                 1.8170                 3.8463
 Frc consts  --      0.6515                 0.9744                 2.0991
 IR Inten    --      0.0929                 4.2005                 5.1348

                     40                     41                     42
                      A                      A                      A
 Frequencies --    979.3423              1015.5892              1034.3345
 Red. masses --      1.8413                 1.3605                 2.3423
 Frc consts  --      1.0405                 0.8267                 1.4765
 IR Inten    --      9.2443                 4.7374                15.4969

                     43                     44                     45
                      A                      A                      A
 Frequencies --   1062.3192              1067.0532              1083.5156
 Red. masses --      2.5106                 2.3534                 2.2994
 Frc consts  --      1.6693                 1.5788                 1.5905
 IR Inten    --     10.9428                52.9443                30.5901

                     46                     47                     48
                      A                      A                      A
 Frequencies --   1127.5560              1141.6070              1161.0511
 Red. masses --      4.0519                 3.4772                 1.3141
 Frc consts  --      3.0352                 2.6700                 1.0437
 IR Inten    --      9.8429                27.0234                 0.1282

                     49                     50                     51
                      A                      A                      A
 Frequencies --   1186.1534              1206.8047              1211.0465
 Red. masses --      1.9229                 1.3883                 1.5658
 Frc consts  --      1.5940                 1.1912                 1.3530
 IR Inten    --      5.2182                11.4844                 9.4966

                     52                     53                     54
                      A                      A                      A
 Frequencies --   1216.5717              1246.8589              1266.7525
 Red. masses --      1.4800                 1.5241                 3.1870
 Frc consts  --      1.2906                 1.3960                 3.0131
 IR Inten    --      0.4098                 1.3120                11.5416

                     55                     56                     57
                      A                      A                      A
 Frequencies --   1295.8931              1309.8888              1326.1516
 Red. masses --      1.1684                 1.3510                 1.9123
 Frc consts  --      1.1561                 1.3658                 1.9815
 IR Inten    --      1.2071                 0.9562                72.1369

                     58                     59                     60
                      A                      A                      A
 Frequencies --   1335.8469              1341.8175              1363.1743
 Red. masses --      1.2593                 1.3426                 1.3167
 Frc consts  --      1.3241                 1.4242                 1.4416
 IR Inten    --      6.9634                 1.0401                 3.7461

                     61                     62                     63
                      A                      A                      A
 Frequencies --   1372.9015              1380.1593              1404.1057
 Red. masses --      1.9694                 1.6219                 2.3682
 Frc consts  --      2.1871                 1.8203                 2.7509
 IR Inten    --    121.2037                10.3727                55.2559

                     64                     65                     66
                      A                      A                      A
 Frequencies --   1416.5616              1442.9893              1472.4689
 Red. masses --      1.6580                 1.4495                 1.2737
 Frc consts  --      1.9603                 1.7782                 1.6271
 IR Inten    --      5.9701                16.4025                16.7009

                     67                     68                     69
                      A                      A                      A
 Frequencies --   1497.3974              1517.8223              1519.9604
 Red. masses --      1.0425                 1.0786                 1.5983
 Frc consts  --      1.3772                 1.4640                 2.1756
 IR Inten    --      7.3637                 1.5686                14.5339

                     70                     71                     72
                      A                      A                      A
 Frequencies --   1524.1236              1526.8099              1542.5292
 Red. masses --      1.0942                 1.0898                 1.4690
 Frc consts  --      1.4976                 1.4967                 2.0594
 IR Inten    --      1.8872                 3.7030                13.5960

                     73                     74                     75
                      A                      A                      A
 Frequencies --   1549.7142              1581.8653              1674.7340
 Red. masses --      1.1041                 6.6081                 6.1857
 Frc consts  --      1.5623                 9.7424                10.2219
 IR Inten    --      1.0493                97.7419                60.8417

                     76                     77                     78
                      A                      A                      A
 Frequencies --   1757.0163              1761.4523              3046.7549
 Red. masses --      9.8467                 9.5345                 1.0697
 Frc consts  --     17.9098                17.4297                 5.8503
 IR Inten    --    538.9400               116.9397                10.5898

                     79                     80                     81
                      A                      A                      A
 Frequencies --   3052.8844              3064.1582              3068.6186
 Red. masses --      1.0678                 1.0789                 1.0661
 Frc consts  --      5.8637                 5.9684                 5.9147
 IR Inten    --     22.8738                27.5874                26.6998

                     82                     83                     84
                      A                      A                      A
 Frequencies --   3078.7456              3080.3405              3103.7688
 Red. masses --      1.0635                 1.0314                 1.0978
 Frc consts  --      5.9392                 5.7662                 6.2310
 IR Inten    --     28.3606                28.7887                23.9295

                     85                     86                     87
                      A                      A                      A
 Frequencies --   3113.8214              3117.6380              3129.9000
 Red. masses --      1.1006                 1.1018                 1.1044
 Frc consts  --      6.2875                 6.3098                 6.3746
 IR Inten    --     13.9190                27.1338                52.7039

                     88                     89                     90
                      A                      A                      A
 Frequencies --   3149.1252              3173.3284              3221.5159
 Red. masses --      1.1050                 1.1067                 1.0912
 Frc consts  --      6.4563                 6.5661                 6.6722
 IR Inten    --      9.2108                 8.1615                 7.4701

                     91                     92                     93
                      A                      A                      A
 Frequencies --   3266.8046              3296.4415              3560.6589
 Red. masses --      1.0937                 1.0908                 1.0774
 Frc consts  --      6.8772                 6.9837                 8.0477
 IR Inten    --      4.5131                 6.2640                25.7856

 - Thermochemistry -
 -------------------
 Temperature   298.150 Kelvin.  Pressure   1.00000 Atm.
 Atom     1 has atomic number  6 and mass  12.00000

 Molecular mass:   236.11609 amu.
 Principal axes and moments of inertia in atomic units:
                           1         2         3
     Eigenvalues --  2628.384916174.739948057.33292
           X            0.99998   0.00621  -0.00161
           Y           -0.00620   0.99998   0.00249
           Z            0.00163  -0.00248   1.00000
 This molecule is an asymmetric top.
 Rotational symmetry number  1.
 Warning -- assumption of classical behavior for rotation
           may cause significant error
 Rotational temperatures (Kelvin)      0.03295     0.01403     0.01075
 Rotational constants (GHZ):           0.68664     0.29228     0.22399
 Zero-point vibrational energy     722532.0 (Joules/Mol)
                                  172.68930 (Kcal/Mol)
 Warning -- explicit consideration of  24 degrees of freedom as
           vibrations may cause significant error
 Vibrational temperatures:     27.84    45.71    54.90    73.64   117.79
          (Kelvin)            144.89   160.74   213.74   264.95   274.22
                              317.75   358.78   431.15   465.03   495.81
                              564.83   590.02   655.21   669.54   713.19
                              831.69   858.28   876.83   889.33   910.96
                             1000.97  1036.62  1068.71  1092.30  1114.67
                             1134.93  1167.32  1194.60  1283.05  1301.78
                             1334.83  1348.53  1372.62  1384.74  1409.06
                             1461.21  1488.18  1528.44  1535.25  1558.94
                             1622.30  1642.52  1670.49  1706.61  1736.32
                             1742.43  1750.38  1793.95  1822.57  1864.50
                             1884.64  1908.04  1921.99  1930.58  1961.30
                             1975.30  1985.74  2020.19  2038.12  2076.14
                             2118.55  2154.42  2183.81  2186.88  2192.87
                             2196.74  2219.36  2229.69  2275.95  2409.57
                             2527.95  2534.34  4383.60  4392.42  4408.64
                             4415.06  4429.63  4431.92  4465.63  4480.09
                             4485.59  4503.23  4530.89  4565.71  4635.04
                             4700.20  4742.84  5122.99

 Zero-point correction=                           0.275198 (Hartree/Particle)
 Thermal correction to Energy=                    0.291351
 Thermal correction to Enthalpy=                  0.292296
 Thermal correction to Gibbs Free Energy=         0.228837
 Sum of electronic and zero-point Energies=           -801.827988
 Sum of electronic and thermal Energies=              -801.811834
 Sum of electronic and thermal Enthalpies=            -801.810890
 Sum of electronic and thermal Free Energies=         -801.874349

                     E (Thermal)             CV                S
                      KCal/Mol        Cal/Mol-Kelvin    Cal/Mol-Kelvin
 Total                  182.826             60.197            133.560
 Electronic               0.000              0.000              0.000
 Translational            0.889              2.981             42.279
 Rotational               0.889              2.981             33.236
 Vibrational            181.048             54.236             58.046
 Vibration     1          0.593              1.986              6.700
 Vibration     2          0.594              1.983              5.716
 Vibration     3          0.594              1.982              5.352
 Vibration     4          0.595              1.977              4.771
 Vibration     5          0.600              1.962              3.846
 Vibration     6          0.604              1.949              3.441
 Vibration     7          0.607              1.940              3.239
 Vibration     8          0.618              1.904              2.691
 Vibration     9          0.631              1.861              2.286
 Vibration    10          0.634              1.853              2.222
 Vibration    11          0.648              1.809              1.952
 Vibration    12          0.662              1.764              1.735
 Vibration    13          0.692              1.674              1.419
 Vibration    14          0.708              1.629              1.294
 Vibration    15          0.723              1.586              1.191
 Vibration    16          0.760              1.486              0.990
 Vibration    17          0.774              1.448              0.926
 Vibration    18          0.814              1.349              0.780
 Vibration    19          0.823              1.327              0.751
 Vibration    20          0.851              1.260              0.669
 Vibration    21          0.935              1.079              0.489
 Vibration    22          0.954              1.039              0.456
 Vibration    23          0.968              1.012              0.434
 Vibration    24          0.978              0.994              0.420

                           ! Non-Optimized Parameters !
 Normal termination of Gaussian 16 at Fri Dec 11 13:25:32 2020.

 ----------------------------------------------------------------------
 # B3LYP/6-311++G(d,p) empiricaldispersion=gd3bj scf=xqc pop=npa geom=c
 heck
 ----------------------------------------------------------------------

 --------------------------------------
 CID_75399896_JID_7585_Energie_neutraal
 --------------------------------------
 Structure from the checkpoint file:  "JID_7585.chk"
 Charge =  0 Multiplicity = 1

 SCF Done:  E(RB3LYP) =  -802.331339569     A.U. after   16 cycles
 Normal termination of Gaussian 16 at Fri Dec 11 13:31:25 2020.

 ----------------------------------------------------------------------
 # B3LYP/6-311++G(d,p) empiricaldispersion=gd3bj scf=xqc pop=npa geom=c
 heck
 ----------------------------------------------------------------------

 ------------------------------------
 CID_75399896_JID_7585_Energie_kation
 ------------------------------------
 Structure from the checkpoint file:  "JID_7585.chk"
 Charge =  1 Multiplicity = 2

 SCF Done:  E(UB3LYP) =  -802.031154477     A.U. after   29 cycles
 Normal termination of Gaussian 16 at Fri Dec 11 13:47:01 2020.
 Gaussian 16:  ES64L-G16RevA.03 25-Dec-2016

 ----------------------------------------------------------------------
 # B3LYP/6-311++G(d,p) empiricaldispersion=gd3bj scf=xqc pop=npa geom=c
 heck
 ----------------------------------------------------------------------

 -----------------------------------
 CID_75399896_JID_7585_Energie_anion
 -----------------------------------
 Structure from the checkpoint file:  "JID_7585.chk"
 Charge = -1 Multiplicity = 2

                         Standard orientation:
 ---------------------------------------------------------------------
 Center     Atomic      Atomic             Coordinates (Angstroms)
 Number     Number       Type             X           Y           Z
 ---------------------------------------------------------------------
      1          6           0        4.215561   -1.805831   -0.510944
      2          7           0        3.187044   -0.789711   -0.307680
      3          6           0        3.294182    0.456754   -0.858393
      4          6           0        2.336542    1.407254   -0.680650
      5          6           0        1.183900    1.084926    0.099047
      6          6           0        1.079259   -0.154023    0.675394
      7          6           0        2.084786   -1.180012    0.486925
      8          8           0        2.034803   -2.320866    0.947164
      9          6           0        0.193621    2.207815    0.259969
     10          8           0        0.538560    3.376442    0.127516
     11          7           0       -1.147347    1.935160    0.430717
     12          8           0       -1.607378    0.729467    0.967308
     13          6           0       -2.198163   -0.094487   -0.060729
     14          6           0       -2.452627   -1.484204    0.542446
     15          6           0       -3.720164   -2.021041   -0.180399
     16          6           0       -4.153297   -0.899631   -1.159921
     17          6           0       -3.567048    0.381899   -0.550109
     18          1           0        5.022058   -1.383015   -1.111931
     19          1           0        4.600128   -2.139212    0.455895
     20          1           0        3.785417   -2.674534   -1.015874
     21          1           0        4.189720    0.636412   -1.442977
     22          1           0        2.440222    2.395264   -1.106986
     23          1           0        0.244543   -0.429655    1.300538
     24          1           0       -1.705182    2.729235    0.729429
     25          1           0       -1.491233   -0.148482   -0.896759
     26          1           0       -1.581610   -2.136344    0.434242
     27          1           0       -2.633320   -1.362639    1.616044
     28          1           0       -4.514365   -2.218513    0.546895
     29          1           0       -3.528717   -2.962838   -0.702803
     30          1           0       -5.237527   -0.849807   -1.298336
     31          1           0       -3.709704   -1.070791   -2.148846
     32          1           0       -4.157484    0.699971    0.319536
     33          1           0       -3.508011    1.219945   -1.251034
 ---------------------------------------------------------------------

 SCF Done:  E(UB3LYP) =  -802.346267501     A.U. after   32 cycles

 The electronic state is 2-A.
 Alpha  occ. eigenvalues --  -19.04760 -18.93456 -18.92011 -14.23871 -14.20648
 Alpha  occ. eigenvalues --  -10.11455 -10.11185 -10.10214 -10.08340 -10.08100
 Alpha  occ. eigenvalues --  -10.08028 -10.07258 -10.06576 -10.06082 -10.01790
 Alpha  occ. eigenvalues --  -10.01645  -9.99168  -0.97241  -0.88422  -0.87958
 Alpha  occ. eigenvalues --   -0.80546  -0.75498  -0.70993  -0.66921  -0.62110
 Alpha  occ. eigenvalues --   -0.60295  -0.59545  -0.57791  -0.50419  -0.49161
 Alpha  occ. eigenvalues --   -0.48296  -0.47145  -0.43727  -0.42387  -0.39534
 Alpha  occ. eigenvalues --   -0.37509  -0.36565  -0.35704  -0.34337  -0.33467
 Alpha  occ. eigenvalues --   -0.32910  -0.32421  -0.30296  -0.29657  -0.28767
 Alpha  occ. eigenvalues --   -0.27500  -0.26891  -0.25935  -0.25736  -0.25502
 Alpha  occ. eigenvalues --   -0.24987  -0.24454  -0.23977  -0.23547  -0.22627
 Alpha  occ. eigenvalues --   -0.21266  -0.18970  -0.16819  -0.14316  -0.12926
 Alpha  occ. eigenvalues --   -0.11715  -0.09730  -0.06913   0.04522
 Alpha virt. eigenvalues --    0.06373   0.08346   0.08546   0.08730   0.09615
 Alpha virt. eigenvalues --    0.10580   0.11227   0.11826   0.12291   0.12408
 Alpha virt. eigenvalues --    0.12496   0.12737   0.14074   0.14254   0.14952

  Beta  occ. eigenvalues --  -19.04758 -18.93153 -18.91886 -14.23823 -14.20334
  Beta  occ. eigenvalues --  -10.11450 -10.10989 -10.10205 -10.08338 -10.08117
  Beta  occ. eigenvalues --  -10.08027 -10.07255 -10.06572 -10.05893 -10.01891
  Beta  occ. eigenvalues --  -10.01350  -9.98818  -0.97190  -0.87914  -0.87660
  Beta  occ. eigenvalues --   -0.80106  -0.75448  -0.70867  -0.66460  -0.62103
  Beta  occ. eigenvalues --   -0.60191  -0.59067  -0.57552  -0.50047  -0.48661
  Beta  occ. eigenvalues --   -0.48216  -0.47081  -0.43572  -0.42231  -0.39512
  Beta  occ. eigenvalues --   -0.37318  -0.36521  -0.35413  -0.34064  -0.32929
  Beta  occ. eigenvalues --   -0.32839  -0.32270  -0.30120  -0.29527  -0.28523
  Beta  occ. eigenvalues --   -0.27309  -0.26739  -0.25853  -0.25505  -0.25037
  Beta  occ. eigenvalues --   -0.24736  -0.24042  -0.23474  -0.23391  -0.22529
  Beta  occ. eigenvalues --   -0.21056  -0.18143  -0.16747  -0.12881  -0.11667
  Beta  occ. eigenvalues --   -0.11271  -0.09457  -0.05432
  Beta virt. eigenvalues --    0.06308   0.08263   0.08465   0.08646   0.09544
  Beta virt. eigenvalues --    0.10510   0.10662   0.11221   0.11772   0.12329
  Beta virt. eigenvalues --    0.12375   0.12440   0.12806   0.14169   0.14615

 Mulliken charges and spin densities:
               1          2
     1  C   -0.255384  -0.007619
     2  N    0.070787   0.070884
     3  C   -0.185361   0.192308
     4  C   -0.150864  -0.040417
     5  C    0.325190   0.088786
     6  C    0.311406   0.456566
     7  C   -0.752363  -0.018614
     8  O   -0.425117   0.038577
     9  C   -0.404036   0.095254
    10  O   -0.397661   0.108550
    11  N   -0.392999   0.024198
    12  O    0.089666  -0.005352
    13  C    0.127784   0.048956
    14  C   -0.490408  -0.034538
    15  C   -0.295905  -0.035739
    16  C   -0.436570  -0.044784
    17  C   -0.204095  -0.050521
    18  H    0.095934  -0.000205
    19  H    0.168053   0.006442
    20  H    0.152429   0.020971
    21  H    0.085769  -0.011873
    22  H    0.185771   0.009517
    23  H    0.216419  -0.016003
    24  H    0.286260   0.001134
    25  H    0.179880   0.009521
    26  H    0.179990  -0.006120
    27  H    0.161280   0.006447
    28  H    0.103715   0.011740
    29  H    0.122502   0.021461
    30  H    0.123934   0.022673
    31  H    0.123364   0.014582
    32  H    0.128647   0.004295
    33  H    0.151983   0.018924
 Sum of Mulliken charges =  -1.00000   1.00000

 Dipole moment (field-independent basis, Debye):
    X=             -5.7114    Y=             -2.1425    Z=             -2.5092  Tot=              6.5960
 Quadrupole moment (field-independent basis, Debye-Ang):
   XX=           -119.5758   YY=           -143.5084   ZZ=           -112.5335
   XY=              0.1588   XZ=             -5.8824   YZ=              5.3476

 Summary of Natural Population Analysis:

                                       Natural Population
                Natural  -----------------------------------------------
    Atom  No    Charge         Core      Valence    Rydberg      Total
 -----------------------------------------------------------------------
      C    1   -0.17511      0.99966     2.16814    0.00731     3.17511
      N    2   -0.18906      0.99963     2.68028    0.00915     3.68906
      C    3    0.05256      0.99957     1.93728    0.01059     2.94744
      C    4   -0.15674      0.99955     2.14733    0.00986     3.15674
      C    5   -0.00693      0.99947     1.99543    0.01203     3.00693
      C    6   -0.07295      0.99949     2.06515    0.00832     3.07295
      C    7    0.31513      0.99962     1.66435    0.02089     2.68487
      O    8   -0.34646      0.99988     3.33989    0.00668     4.34646
      C    9    0.35550      0.99963     1.62403    0.02084     2.64450
      O   10   -0.30024      0.99988     3.29430    0.00606     4.30024
      N   11   -0.17148      0.99962     2.65573    0.01612     3.67148
      O   12   -0.22177      0.99988     3.21097    0.01092     4.22177
      C   13    0.06585      0.99952     1.91910    0.01553     2.93415
      C   14   -0.20521      0.99962     2.19745    0.00815     3.20521
      C   15   -0.19322      0.99965     2.18635    0.00721     3.19322
      C   16   -0.19254      0.99965     2.18574    0.00715     3.19254
      C   17   -0.20516      0.99961     2.19767    0.00787     3.20516
      H   18    0.08684      0.00000     0.41234    0.00082     0.41316
      H   19    0.09933      0.00000     0.39930    0.00136     0.40067
      H   20    0.09818      0.00000     0.40042    0.00140     0.40182
      H   21    0.08403      0.00000     0.41496    0.00101     0.41597
      H   22    0.10993      0.00000     0.38909    0.00097     0.39007
      H   23    0.10328      0.00000     0.39504    0.00168     0.39672
      H   24    0.17873      0.00000     0.31950    0.00177     0.32127
      H   25    0.09567      0.00000     0.40255    0.00177     0.40433
      H   26    0.11182      0.00000     0.38581    0.00237     0.38818
      H   27    0.10274      0.00000     0.39627    0.00100     0.39726
      H   28    0.09278      0.00000     0.40590    0.00132     0.40722
      H   29    0.09713      0.00000     0.40162    0.00125     0.40287
      H   30    0.09511      0.00000     0.40342    0.00147     0.40489
      H   31    0.09460      0.00000     0.40400    0.00140     0.40540
      H   32    0.09398      0.00000     0.40427    0.00175     0.40602
      H   33    0.10366      0.00000     0.39488    0.00146     0.39634
 =======================================================================
   * Total *   -0.00000     16.99393    45.79858    0.20749    63.00000

 Normal termination of Gaussian 16 at Fri Dec 11 14:03:45 2020.
