 Gaussian 16, Revision A.03,

 -----------------------------------------------------------
 # opt freq B3LYP/6-31G(d) empiricaldispersion=gd3bj scf=xqc
 -----------------------------------------------------------

 -----------------------------
 CID_91172424_JID_434_neutraal
 -----------------------------
 Symbolic Z-matrix:
 Charge =  0 Multiplicity = 1

 SCF Done:  E(RB3LYP) =  -533.133156274     A.U. after   15 cycles
 SCF Done:  E(RB3LYP) =  -533.139817183     A.U. after   13 cycles
 SCF Done:  E(RB3LYP) =  -533.140213565     A.U. after   11 cycles
 SCF Done:  E(RB3LYP) =  -533.140273122     A.U. after   11 cycles
 SCF Done:  E(RB3LYP) =  -533.140286958     A.U. after    9 cycles
 SCF Done:  E(RB3LYP) =  -533.140289178     A.U. after    9 cycles
 SCF Done:  E(RB3LYP) =  -533.140289445     A.U. after    8 cycles
 Optimization completed.
    -- Stationary point found.
 Normal termination of Gaussian 16 at Tue Dec  8 10:31:53 2020.

 --------------------------------------------------------------------
 #N Geom=AllCheck Guess=TCheck SCRF=Check GenChk RB3LYP/6-31G(d) Freq
 --------------------------------------------------------------------

 Structure from the checkpoint file:  "JID_434.chk"
 -----------------------------
 CID_91172424_JID_434_neutraal
 -----------------------------
 Charge =  0 Multiplicity = 1

 SCF Done:  E(RB3LYP) =  -533.140289445     A.U. after    1 cycles

  Exact polarizability: 106.879  -5.016  80.109   1.365   0.279  36.917
 Approx polarizability: 171.966 -20.067 142.830   4.119  -0.380  55.250

                      1                      2                      3
                      A                      A                      A
 Frequencies --     76.5177               123.2540               181.5621
 Red. masses --      4.2916                 3.6434                 6.2051
 Frc consts  --      0.0148                 0.0326                 0.1205
 IR Inten    --      5.7734                 1.6678                 0.5195

                      4                      5                      6
                      A                      A                      A
 Frequencies --    194.2628               315.8658               322.1057
 Red. masses --      5.1668                 2.3148                 5.1030
 Frc consts  --      0.1149                 0.1361                 0.3119
 IR Inten    --      2.2128                26.3936                40.6778

                      7                      8                      9
                      A                      A                      A
 Frequencies --    369.3968               393.9655               416.5773
 Red. masses --      5.4762                 1.5766                 4.6118
 Frc consts  --      0.4403                 0.1442                 0.4715
 IR Inten    --      4.5744               128.1410                 0.8350

                     10                     11                     12
                      A                      A                      A
 Frequencies --    490.3213               554.2265               569.0128
 Red. masses --      8.0419                 8.8172                 1.3022
 Frc consts  --      1.1391                 1.5957                 0.2484
 IR Inten    --      8.3022                19.4894                87.8669

                     13                     14                     15
                      A                      A                      A
 Frequencies --    594.1441               639.8000               739.7993
 Red. masses --      2.7481                 6.0852                 9.1999
 Frc consts  --      0.5716                 1.4676                 2.9666
 IR Inten    --     21.1997                 4.7962                18.3767

                     16                     17                     18
                      A                      A                      A
 Frequencies --    755.8866               776.7061               856.8044
 Red. masses --      5.0420                 9.3340                 1.2277
 Frc consts  --      1.6973                 3.3177                 0.5310
 IR Inten    --      1.0161                 1.0165                32.2794

                     19                     20                     21
                      A                      A                      A
 Frequencies --    924.3625               985.4911               999.3738
 Red. masses --      1.3292                 4.4258                 1.5219
 Frc consts  --      0.6692                 2.5325                 0.8956
 IR Inten    --      3.6230                 0.5941                35.1603

                     22                     23                     24
                      A                      A                      A
 Frequencies --   1086.8020              1110.9093              1160.2549
 Red. masses --      1.8995                 3.8388                 5.7393
 Frc consts  --      1.3219                 2.7913                 4.5521
 IR Inten    --     34.5189                50.2750                97.1881

                     25                     26                     27
                      A                      A                      A
 Frequencies --   1206.0312              1223.0034              1275.9285
 Red. masses --      2.0194                 1.5079                 1.4790
 Frc consts  --      1.7306                 1.3288                 1.4186
 IR Inten    --     10.9527                14.0141               175.1886

                     28                     29                     30
                      A                      A                      A
 Frequencies --   1307.1225              1360.3720              1408.9800
 Red. masses --      2.0625                 2.2841                 1.3354
 Frc consts  --      2.0762                 2.4905                 1.5620
 IR Inten    --     40.0657                92.3941                87.0354

                     31                     32                     33
                      A                      A                      A
 Frequencies --   1442.5530              1479.1239              1523.2595
 Red. masses --      1.6990                 2.0199                 1.0877
 Frc consts  --      2.0831                 2.6037                 1.4870
 IR Inten    --     15.1172               185.7836                 0.6564

                     34                     35                     36
                      A                      A                      A
 Frequencies --   1649.6765              1728.8431              1794.4916
 Red. masses --      8.1196                 5.8594                12.1383
 Frc consts  --     13.0191                10.3184                23.0298
 IR Inten    --      9.7406                53.7443               483.2887

                     37                     38                     39
                      A                      A                      A
 Frequencies --   3014.6343              3083.8674              3222.2209
 Red. masses --      1.0689                 1.0940                 1.0911
 Frc consts  --      5.7233                 6.1301                 6.6748
 IR Inten    --     39.7982                17.0306                 7.8891

                     40                     41                     42
                      A                      A                      A
 Frequencies --   3250.2488              3603.2981              3735.8089
 Red. masses --      1.0923                 1.0643                 1.0661
 Frc consts  --      6.7989                 8.1414                 8.7667
 IR Inten    --      0.4005               103.8079                17.1286

 - Thermochemistry -
 -------------------
 Temperature   298.150 Kelvin.  Pressure   1.00000 Atm.
 Atom     1 has atomic number  6 and mass  12.00000

 Molecular mass:   142.02661 amu.
 Principal axes and moments of inertia in atomic units:
                           1         2         3
     Eigenvalues --   575.742082085.625582637.02527
           X            0.99995   0.00931  -0.00261
           Y           -0.00930   0.99995   0.00321
           Z            0.00264  -0.00319   0.99999
 This molecule is an asymmetric top.
 Rotational symmetry number  1.
 Warning -- assumption of classical behavior for rotation
           may cause significant error
 Rotational temperatures (Kelvin)      0.15044     0.04153     0.03285
 Rotational constants (GHZ):           3.13463     0.86532     0.68439
 Zero-point vibrational energy     310711.3 (Joules/Mol)
                                   74.26177 (Kcal/Mol)
 Warning -- explicit consideration of  13 degrees of freedom as
           vibrations may cause significant error
 Vibrational temperatures:    110.09   177.33   261.23   279.50   454.46
          (Kelvin)            463.44   531.48   566.83   599.36   705.46
                              797.41   818.68   854.84   920.53  1064.41
                             1087.55  1117.51  1232.75  1329.95  1417.90
                             1437.88  1563.67  1598.35  1669.35  1735.21
                             1759.63  1835.78  1880.66  1957.27  2027.21
                             2075.51  2128.13  2191.63  2373.52  2487.42
                             2581.87  4337.39  4437.00  4636.06  4676.38
                             5184.34  5375.00

 Zero-point correction=                           0.118344 (Hartree/Particle)
 Thermal correction to Energy=                    0.127076
 Thermal correction to Enthalpy=                  0.128020
 Thermal correction to Gibbs Free Energy=         0.084488
 Sum of electronic and zero-point Energies=           -533.021946
 Sum of electronic and thermal Energies=              -533.013213
 Sum of electronic and thermal Enthalpies=            -533.012269
 Sum of electronic and thermal Free Energies=         -533.055802

                     E (Thermal)             CV                S
                      KCal/Mol        Cal/Mol-Kelvin    Cal/Mol-Kelvin
 Total                   79.741             32.819             91.622
 Electronic               0.000              0.000              0.000
 Translational            0.889              2.981             40.764
 Rotational               0.889              2.981             29.539
 Vibrational             77.964             26.857             21.319
 Vibration     1          0.599              1.965              3.978
 Vibration     2          0.610              1.930              3.049
 Vibration     3          0.630              1.865              2.312
 Vibration     4          0.635              1.848              2.187
 Vibration     5          0.703              1.643              1.331
 Vibration     6          0.707              1.631              1.299
 Vibration     7          0.742              1.535              1.082
 Vibration     8          0.761              1.483              0.985
 Vibration     9          0.780              1.434              0.904
 Vibration    10          0.846              1.271              0.683
 Vibration    11          0.910              1.130              0.535
 Vibration    12          0.925              1.098              0.506
 Vibration    13          0.952              1.044              0.460

                           ! Non-Optimized Parameters !
 Normal termination of Gaussian 16 at Tue Dec  8 10:35:09 2020.

 ----------------------------------------------------------------------
 # B3LYP/6-311++G(d,p) empiricaldispersion=gd3bj scf=xqc pop=npa geom=c
 heck
 ----------------------------------------------------------------------

 -------------------------------------
 CID_91172424_JID_434_Energie_neutraal
 -------------------------------------
 Structure from the checkpoint file:  "JID_434.chk"
 Charge =  0 Multiplicity = 1

 SCF Done:  E(RB3LYP) =  -533.312813356     A.U. after   14 cycles
 Normal termination of Gaussian 16 at Tue Dec  8 10:37:21 2020.

 ----------------------------------------------------------------------
 # B3LYP/6-311++G(d,p) empiricaldispersion=gd3bj scf=xqc pop=npa geom=c
 heck
 ----------------------------------------------------------------------

 -----------------------------------
 CID_91172424_JID_434_Energie_kation
 -----------------------------------
 Structure from the checkpoint file:  "JID_434.chk"
 Charge =  1 Multiplicity = 2

 SCF Done:  E(UB3LYP) =  -532.999779635     A.U. after   21 cycles
 Normal termination of Gaussian 16 at Tue Dec  8 10:39:41 2020.
 Gaussian 16:  ES64L-G16RevA.03 25-Dec-2016

 ----------------------------------------------------------------------
 # B3LYP/6-311++G(d,p) empiricaldispersion=gd3bj scf=xqc pop=npa geom=c
 heck
 ----------------------------------------------------------------------

 ----------------------------------
 CID_91172424_JID_434_Energie_anion
 ----------------------------------
 Structure from the checkpoint file:  "JID_434.chk"
 Charge = -1 Multiplicity = 2

                         Standard orientation:
 ---------------------------------------------------------------------
 Center     Atomic      Atomic             Coordinates (Angstroms)
 Number     Number       Type             X           Y           Z
 ---------------------------------------------------------------------
      1          6           0       -0.739115    1.199569   -0.092194
      2          6           0       -1.078705   -0.108391   -0.076694
      3          8           0       -0.126775   -1.089413   -0.023037
      4          6           0        1.215017   -0.805903    0.010963
      5          8           0        2.034617   -1.707241    0.053637
      6          6           0        1.589192    0.604280    0.003260
      7          6           0        0.641071    1.577935   -0.046685
      8          8           0        2.917689    0.838820    0.050953
      9          6           0       -2.471796   -0.677761   -0.123103
     10          8           0       -3.463333    0.301680    0.116762
     11          1           0       -1.525739    1.940523   -0.154158
     12          1           0        0.933755    2.622559   -0.054214
     13          1           0        3.336095   -0.046601    0.074898
     14          1           0       -2.678611   -1.081220   -1.121294
     15          1           0       -2.533228   -1.523077    0.579728
     16          1           0       -3.363846    0.598673    1.035234
 ---------------------------------------------------------------------

 SCF Done:  E(UB3LYP) =  -533.317466796     A.U. after   28 cycles

 The electronic state is 2-A.
 Alpha  occ. eigenvalues --  -19.02545 -19.00719 -19.00503 -18.94391 -10.12908
 Alpha  occ. eigenvalues --  -10.10024 -10.07998 -10.06714 -10.02781 -10.01742
 Alpha  occ. eigenvalues --   -0.96403  -0.92161  -0.90985  -0.86897  -0.66670
 Alpha  occ. eigenvalues --   -0.63071  -0.55210  -0.49765  -0.48361  -0.42456
 Alpha  occ. eigenvalues --   -0.39513  -0.36628  -0.34632  -0.33531  -0.30894
 Alpha  occ. eigenvalues --   -0.29867  -0.28088  -0.26393  -0.25819  -0.25155
 Alpha  occ. eigenvalues --   -0.22767  -0.20405  -0.19909  -0.16896  -0.15273
 Alpha  occ. eigenvalues --   -0.13223  -0.06868   0.05450
 Alpha virt. eigenvalues --    0.08033   0.10300   0.10507   0.11604   0.12623
 Alpha virt. eigenvalues --    0.14172   0.15335   0.15726   0.17132   0.18105
 Alpha virt. eigenvalues --    0.18532   0.18888   0.19917   0.20750   0.21533

  Beta  occ. eigenvalues --  -19.02243 -19.00669 -19.00447 -18.94185 -10.12722
  Beta  occ. eigenvalues --  -10.10038 -10.07712 -10.06515 -10.02872 -10.01454
  Beta  occ. eigenvalues --   -0.95895  -0.91961  -0.90861  -0.86508  -0.66261
  Beta  occ. eigenvalues --   -0.62588  -0.55011  -0.49535  -0.47606  -0.42287
  Beta  occ. eigenvalues --   -0.39343  -0.36407  -0.34401  -0.32824  -0.30075
  Beta  occ. eigenvalues --   -0.29574  -0.27825  -0.26242  -0.25617  -0.24354
  Beta  occ. eigenvalues --   -0.22471  -0.19833  -0.19175  -0.16713  -0.14096
  Beta  occ. eigenvalues --   -0.12968  -0.05244
  Beta virt. eigenvalues --    0.08570   0.10301   0.10697   0.11295   0.11843
  Beta virt. eigenvalues --    0.12655   0.14223   0.15691   0.16164   0.17352
  Beta virt. eigenvalues --    0.18251   0.18538   0.18911   0.19920   0.20869

 Mulliken charges and spin densities:
               1          2
     1  C    0.320613  -0.076301
     2  C   -1.169238   1.081988
     3  O   -0.162979   0.071694
     4  C   -0.016338   0.203612
     5  O   -0.461980   0.067238
     6  C   -0.061321   0.101643
     7  C   -0.146954   0.031637
     8  O   -0.301079   0.018372
     9  C    1.042314  -1.367499
    10  O   -0.269235  -0.004498
    11  H   -0.112598   0.266817
    12  H    0.112750   0.006574
    13  H    0.256675   0.000002
    14  H    0.034407   0.143100
    15  H    0.062294   0.087280
    16  H   -0.127330   0.368341
 Sum of Mulliken charges =  -1.00000   1.00000

 Dipole moment (field-independent basis, Debye):
    X=              0.1868    Y=              0.4191    Z=              0.0702  Tot=              0.4642
 Quadrupole moment (field-independent basis, Debye-Ang):
   XX=            -98.2002   YY=            -76.9542   ZZ=            -66.9897
   XY=              5.3379   XZ=             -0.1242   YZ=              0.4187

 Summary of Natural Population Analysis:

                                       Natural Population
                Natural  -----------------------------------------------
    Atom  No    Charge         Core      Valence    Rydberg      Total
 -----------------------------------------------------------------------
      C    1   -0.17804      0.99950     2.16825    0.01029     3.17804
      C    2    0.20131      0.99941     1.78548    0.01380     2.79869
      O    3   -0.23667      0.99983     3.22734    0.00951     4.23667
      C    4    0.38387      0.99958     1.59237    0.02418     2.61613
      O    5   -0.32615      0.99987     3.31905    0.00723     4.32615
      C    6    0.13043      0.99938     1.85616    0.01403     2.86957
      C    7   -0.07323      0.99953     2.06180    0.01190     3.07323
      O    8   -0.34848      0.99988     3.34136    0.00724     4.34848
      C    9   -0.02673      0.99956     2.01249    0.01467     3.02673
      O   10   -0.36755      0.99990     3.36048    0.00717     4.36755
      H   11    0.10666      0.00000     0.39217    0.00117     0.39334
      H   12    0.09286      0.00000     0.40585    0.00129     0.40714
      H   13    0.24097      0.00000     0.25616    0.00287     0.25903
      H   14    0.09029      0.00000     0.40797    0.00174     0.40971
      H   15    0.08090      0.00000     0.41711    0.00199     0.41910
      H   16    0.22955      0.00000     0.26423    0.00622     0.27045
 =======================================================================
   * Total *   -0.00000      9.99644    26.86826    0.13530    37.00000

 Normal termination of Gaussian 16 at Tue Dec  8 10:44:36 2020.
