 Gaussian 16, Revision A.03,

 -----------------------------------------------------------
 # opt freq B3LYP/6-31G(d) empiricaldispersion=gd3bj scf=xqc
 -----------------------------------------------------------

 ------------------------------
 CID_83072538_JID_8950_neutraal
 ------------------------------
 Symbolic Z-matrix:
 Charge =  0 Multiplicity = 1

 SCF Done:  E(RB3LYP) =  -1145.76325118     A.U. after   15 cycles
 SCF Done:  E(RB3LYP) =  -1145.77031849     A.U. after   12 cycles
 SCF Done:  E(RB3LYP) =  -1145.77034474     A.U. after   13 cycles
 SCF Done:  E(RB3LYP) =  -1145.77050230     A.U. after   13 cycles
 SCF Done:  E(RB3LYP) =  -1145.77163517     A.U. after   12 cycles
 SCF Done:  E(RB3LYP) =  -1145.77275025     A.U. after   12 cycles
 SCF Done:  E(RB3LYP) =  -1145.77319809     A.U. after   13 cycles
 SCF Done:  E(RB3LYP) =  -1145.77416213     A.U. after   13 cycles
 SCF Done:  E(RB3LYP) =  -1145.77455166     A.U. after   12 cycles
 SCF Done:  E(RB3LYP) =  -1145.77490743     A.U. after   12 cycles
 SCF Done:  E(RB3LYP) =  -1145.77857416     A.U. after    8 cycles
 SCF Done:  E(RB3LYP) =  -1145.77857508     A.U. after    8 cycles
 SCF Done:  E(RB3LYP) =  -1145.77857541     A.U. after    7 cycles
 SCF Done:  E(RB3LYP) =  -1145.77857572     A.U. after    8 cycles
 SCF Done:  E(RB3LYP) =  -1145.77857579     A.U. after    7 cycles
 Optimization completed.
    -- Stationary point found.
 Normal termination of Gaussian 16 at Fri Dec 11 23:23:57 2020.

 --------------------------------------------------------------------
 #N Geom=AllCheck Guess=TCheck SCRF=Check GenChk RB3LYP/6-31G(d) Freq
 --------------------------------------------------------------------

 Structure from the checkpoint file:  "JID_8950.chk"
 ------------------------------
 CID_83072538_JID_8950_neutraal
 ------------------------------
 Charge =  0 Multiplicity = 1

 SCF Done:  E(RB3LYP) =  -1145.77857579     A.U. after    1 cycles

  Exact polarizability: 193.221 -11.809 162.428  -8.230 -10.517 145.466
 Approx polarizability: 245.066 -17.964 262.068 -20.403 -36.939 246.625

                      1                      2                      3
                      A                      A                      A
 Frequencies --     18.1557                26.5680                43.8977
 Red. masses --      3.9985                 5.4491                 4.2158
 Frc consts  --      0.0008                 0.0023                 0.0048
 IR Inten    --      0.1159                 0.4840                 0.4183

                      4                      5                      6
                      A                      A                      A
 Frequencies --     65.4025                68.0315                77.8691
 Red. masses --      1.3507                 1.5868                 4.5051
 Frc consts  --      0.0034                 0.0043                 0.0161
 IR Inten    --      0.0447                 0.4497                 2.9659

                      7                      8                      9
                      A                      A                      A
 Frequencies --     93.5365               139.9120               166.8183
 Red. masses --      3.7908                 2.2695                 2.3810
 Frc consts  --      0.0195                 0.0262                 0.0390
 IR Inten    --      0.3812                 3.0154                 0.9955

                     10                     11                     12
                      A                      A                      A
 Frequencies --    178.8541               194.7465               220.0500
 Red. masses --      2.0633                 2.1823                 1.5498
 Frc consts  --      0.0389                 0.0488                 0.0442
 IR Inten    --      1.0382                 1.1013                 1.3339

                     13                     14                     15
                      A                      A                      A
 Frequencies --    222.5806               236.8058               248.2661
 Red. masses --      3.2703                 2.0343                 3.0767
 Frc consts  --      0.0955                 0.0672                 0.1117
 IR Inten    --      7.8341                 1.0643                 2.1349

                     16                     17                     18
                      A                      A                      A
 Frequencies --    261.3522               312.6016               323.9939
 Red. masses --      3.2395                 2.8632                 2.3527
 Frc consts  --      0.1304                 0.1648                 0.1455
 IR Inten    --      1.2469                 1.4684                 1.2765

                     19                     20                     21
                      A                      A                      A
 Frequencies --    349.5288               380.7756               401.9039
 Red. masses --      3.3724                 2.9475                 4.7104
 Frc consts  --      0.2427                 0.2518                 0.4483
 IR Inten    --      2.3047                 1.9166                 0.4194

                     22                     23                     24
                      A                      A                      A
 Frequencies --    408.5269               463.9732               480.6596
 Red. masses --      3.2738                 2.1623                 3.7129
 Frc consts  --      0.3219                 0.2743                 0.5054
 IR Inten    --      1.1320                15.8746                 8.1045

                     25                     26                     27
                      A                      A                      A
 Frequencies --    521.1759               558.6567               575.3228
 Red. masses --      4.1194                 3.1616                 5.7511
 Frc consts  --      0.6593                 0.5814                 1.1216
 IR Inten    --      4.8816                10.7287                 5.1038

                     28                     29                     30
                      A                      A                      A
 Frequencies --    612.1696               617.6478               655.1100
 Red. masses --      4.8952                 2.3067                 5.2147
 Frc consts  --      1.0809                 0.5185                 1.3186
 IR Inten    --     15.8272                12.7170                 3.0155

                     31                     32                     33
                      A                      A                      A
 Frequencies --    663.3099               709.7577               732.9414
 Red. masses --      4.1464                 2.7403                 3.4950
 Frc consts  --      1.0749                 0.8133                 1.1062
 IR Inten    --     29.9487                19.2922                 4.4508

                     34                     35                     36
                      A                      A                      A
 Frequencies --    755.4961               778.7312               790.4678
 Red. masses --      3.0552                 1.7141                 1.7495
 Frc consts  --      1.0274                 0.6124                 0.6441
 IR Inten    --     16.3269                32.6189                15.4492

                     37                     38                     39
                      A                      A                      A
 Frequencies --    816.8209               859.5871               863.0408
 Red. masses --      1.4937                 2.0893                 3.6749
 Frc consts  --      0.5872                 0.9096                 1.6127
 IR Inten    --      6.5164                10.0469                 4.4405

                     40                     41                     42
                      A                      A                      A
 Frequencies --    883.4621               913.4670               931.7219
 Red. masses --      1.9968                 2.1321                 2.7248
 Frc consts  --      0.9182                 1.0482                 1.3937
 IR Inten    --     30.9660                 3.4687                 2.1274

                     43                     44                     45
                      A                      A                      A
 Frequencies --    951.3626               984.9330               988.2429
 Red. masses --      1.9765                 2.8184                 2.3096
 Frc consts  --      1.0540                 1.6109                 1.3290
 IR Inten    --      9.6678                22.2590                 4.8621

                     46                     47                     48
                      A                      A                      A
 Frequencies --   1002.2590              1013.7071              1041.0293
 Red. masses --      2.5437                 2.0435                 2.2373
 Frc consts  --      1.5055                 1.2372                 1.4286
 IR Inten    --      3.9387                25.2897                14.4006

                     49                     50                     51
                      A                      A                      A
 Frequencies --   1056.2959              1064.0899              1074.7507
 Red. masses --      1.5575                 1.4094                 2.4233
 Frc consts  --      1.0239                 0.9402                 1.6492
 IR Inten    --      7.0040                 1.0835                12.1176

                     52                     53                     54
                      A                      A                      A
 Frequencies --   1093.5118              1126.7375              1138.0307
 Red. masses --      2.3596                 1.9159                 1.8895
 Frc consts  --      1.6624                 1.4331                 1.4418
 IR Inten    --     17.7639                74.7920                17.8277

                     55                     56                     57
                      A                      A                      A
 Frequencies --   1158.3399              1170.4599              1172.6736
 Red. masses --      1.6350                 1.2958                 1.9321
 Frc consts  --      1.2925                 1.0459                 1.5654
 IR Inten    --     27.3408                 8.8077                21.1459

                     58                     59                     60
                      A                      A                      A
 Frequencies --   1192.7341              1207.2444              1211.2654
 Red. masses --      2.2121                 3.0540                 1.8863
 Frc consts  --      1.8542                 2.6224                 1.6306
 IR Inten    --     17.9762                41.9538                41.7805

                     61                     62                     63
                      A                      A                      A
 Frequencies --   1241.9897              1248.9116              1284.4049
 Red. masses --      1.4329                 1.5301                 1.5138
 Frc consts  --      1.3023                 1.4061                 1.4714
 IR Inten    --      6.3697                 0.7535                20.8544

                     64                     65                     66
                      A                      A                      A
 Frequencies --   1302.6509              1322.7389              1349.4439
 Red. masses --      2.1152                 1.3021                 1.3696
 Frc consts  --      2.1147                 1.3423                 1.4695
 IR Inten    --     50.8885                 1.3426                 0.1345

                     67                     68                     69
                      A                      A                      A
 Frequencies --   1352.1713              1361.5438              1374.0635
 Red. masses --      1.4048                 1.4426                 2.0761
 Frc consts  --      1.5133                 1.5756                 2.3095
 IR Inten    --      8.4751                14.5339                 8.4366

                     70                     71                     72
                      A                      A                      A
 Frequencies --   1390.8242              1396.6152              1433.2260
 Red. masses --      1.4364                 1.3772                 1.3065
 Frc consts  --      1.6371                 1.5827                 1.5812
 IR Inten    --      5.3518                16.1104                20.1771

                     73                     74                     75
                      A                      A                      A
 Frequencies --   1433.8360              1441.2947              1453.6758
 Red. masses --      1.2708                 1.9091                 1.3911
 Frc consts  --      1.5394                 2.3366                 1.7320
 IR Inten    --      5.9335                40.7204                11.6749

                     76                     77                     78
                      A                      A                      A
 Frequencies --   1476.8398              1493.9396              1505.2525
 Red. masses --      1.2551                 1.1498                 1.1870
 Frc consts  --      1.6129                 1.5120                 1.5847
 IR Inten    --     16.8784                20.6006                18.5383

                     79                     80                     81
                      A                      A                      A
 Frequencies --   1505.7692              1508.3754              1520.6337
 Red. masses --      1.0873                 1.0468                 1.0821
 Frc consts  --      1.4525                 1.4032                 1.4742
 IR Inten    --     15.0695                 8.5857                 0.3942

                     82                     83                     84
                      A                      A                      A
 Frequencies --   1533.9793              1536.0844              1541.5217
 Red. masses --      1.0515                 1.1307                 1.0468
 Frc consts  --      1.4579                 1.5719                 1.4656
 IR Inten    --      0.6770                27.4895                 5.6044

                     85                     86                     87
                      A                      A                      A
 Frequencies --   1546.1419              1550.8833              1554.6390
 Red. masses --      1.1120                 1.0874                 4.6715
 Frc consts  --      1.5663                 1.5410                 6.6522
 IR Inten    --     22.4226                14.5930                 6.5839

                     88                     89                     90
                      A                      A                      A
 Frequencies --   1560.6086              1585.2146              1710.1507
 Red. masses --      1.0948                 6.0475                 9.9258
 Frc consts  --      1.5710                 8.9538                17.1035
 IR Inten    --      1.1678                29.7015               185.5884

                     91                     92                     93
                      A                      A                      A
 Frequencies --   2975.7635              3040.0650              3043.3565
 Red. masses --      1.0732                 1.0436                 1.0461
 Frc consts  --      5.5995                 5.6826                 5.7085
 IR Inten    --     76.1139                40.5065                32.4575

                     94                     95                     96
                      A                      A                      A
 Frequencies --   3050.4505              3055.6298              3074.0653
 Red. masses --      1.0661                 1.0371                 1.0678
 Frc consts  --      5.8450                 5.7053                 5.9452
 IR Inten    --     37.2245                20.0879                10.4168

                     97                     98                     99
                      A                      A                      A
 Frequencies --   3085.0861              3090.9834              3095.1608
 Red. masses --      1.0739                 1.0708                 1.0752
 Frc consts  --      6.0223                 6.0274                 6.0687
 IR Inten    --     53.7683                29.1149                 2.3257

                    100                    101                    102
                      A                      A                      A
 Frequencies --   3098.4427              3099.7227              3110.1449
 Red. masses --      1.0885                 1.0939                 1.1016
 Frc consts  --      6.1569                 6.1925                 6.2782
 IR Inten    --     61.6438                24.4956                11.6302

                    103                    104                    105
                      A                      A                      A
 Frequencies --   3114.1430              3123.3183              3132.9981
 Red. masses --      1.1053                 1.0945                 1.1061
 Frc consts  --      6.3157                 6.2906                 6.3967
 IR Inten    --      5.3502                21.8552                45.5720

                    106                    107                    108
                      A                      A                      A
 Frequencies --   3149.2484              3157.0393              3171.4426
 Red. masses --      1.1002                 1.1008                 1.1006
 Frc consts  --      6.4289                 6.4643                 6.5221
 IR Inten    --     21.0908                 5.2655                 2.5019

                    109                    110                    111
                      A                      A                      A
 Frequencies --   3209.9187              3297.6458              3530.2180
 Red. masses --      1.0967                 1.0950                 1.0742
 Frc consts  --      6.6574                 7.0157                 7.8873
 IR Inten    --      9.1501                 4.7611                 0.7182

 - Thermochemistry -
 -------------------
 Temperature   298.150 Kelvin.  Pressure   1.00000 Atm.
 Atom     1 has atomic number  6 and mass  12.00000

 Molecular mass:   267.14053 amu.
 Principal axes and moments of inertia in atomic units:
                           1         2         3
     Eigenvalues --  2485.426358673.927959335.95747
           X            0.99989  -0.01260   0.00766
           Y            0.01248   0.99980   0.01587
           Z           -0.00785  -0.01577   0.99984
 This molecule is an asymmetric top.
 Rotational symmetry number  1.
 Warning -- assumption of classical behavior for rotation
           may cause significant error
 Rotational temperatures (Kelvin)      0.03485     0.00999     0.00928
 Rotational constants (GHZ):           0.72613     0.20807     0.19331
 Zero-point vibrational energy     882207.8 (Joules/Mol)
                                  210.85273 (Kcal/Mol)
 Warning -- explicit consideration of  29 degrees of freedom as
           vibrations may cause significant error
 Vibrational temperatures:     26.12    38.23    63.16    94.10    97.88
          (Kelvin)            112.04   134.58   201.30   240.01   257.33
                              280.20   316.60   320.24   340.71   357.20
                              376.03   449.76   466.15   502.89   547.85
                              578.25   587.78   667.55   691.56   749.86
                              803.78   827.76   880.78   888.66   942.56
                              954.36  1021.18  1054.54  1086.99  1120.42
                             1137.31  1175.22  1236.75  1241.72  1271.10
                             1314.28  1340.54  1368.80  1417.10  1421.86
                             1442.03  1458.50  1497.81  1519.77  1530.99
                             1546.33  1573.32  1621.12  1637.37  1666.59
                             1684.03  1687.22  1716.08  1736.96  1742.74
                             1786.95  1796.91  1847.97  1874.22  1903.13
                             1941.55  1945.47  1958.96  1976.97  2001.09
                             2009.42  2062.09  2062.97  2073.70  2091.52
                             2124.84  2149.45  2165.72  2166.47  2170.22
                             2187.85  2207.05  2210.08  2217.91  2224.55
                             2231.38  2236.78  2245.37  2280.77  2460.53
                             4281.46  4373.98  4378.71  4388.92  4396.37
                             4422.89  4438.75  4447.24  4453.25  4457.97
                             4459.81  4474.80  4480.56  4493.76  4507.69
                             4531.07  4542.28  4563.00  4618.36  4744.58
                             5079.20

 Zero-point correction=                           0.336015 (Hartree/Particle)
 Thermal correction to Energy=                    0.354796
 Thermal correction to Enthalpy=                  0.355740
 Thermal correction to Gibbs Free Energy=         0.287085
 Sum of electronic and zero-point Energies=          -1145.442561
 Sum of electronic and thermal Energies=             -1145.423780
 Sum of electronic and thermal Enthalpies=           -1145.422835
 Sum of electronic and thermal Free Energies=        -1145.491490

                     E (Thermal)             CV                S
                      KCal/Mol        Cal/Mol-Kelvin    Cal/Mol-Kelvin
 Total                  222.638             70.337            144.497
 Electronic               0.000              0.000              0.000
 Translational            0.889              2.981             42.647
 Rotational               0.889              2.981             33.664
 Vibrational            220.861             64.375             68.186
 Vibration     1          0.593              1.986              6.826
 Vibration     2          0.593              1.984              6.070
 Vibration     3          0.595              1.980              5.075
 Vibration     4          0.597              1.971              4.287
 Vibration     5          0.598              1.969              4.210
 Vibration     6          0.599              1.964              3.944
 Vibration     7          0.603              1.954              3.585
 Vibration     8          0.615              1.913              2.805
 Vibration     9          0.624              1.883              2.471
 Vibration    10          0.629              1.868              2.340
 Vibration    11          0.635              1.847              2.182
 Vibration    12          0.647              1.811              1.959
 Vibration    13          0.648              1.807              1.938
 Vibration    14          0.656              1.784              1.827
 Vibration    15          0.662              1.766              1.743
 Vibration    16          0.669              1.743              1.653
 Vibration    17          0.701              1.650              1.349
 Vibration    18          0.709              1.627              1.290
 Vibration    19          0.727              1.576              1.168
 Vibration    20          0.751              1.511              1.036
 Vibration    21          0.768              1.466              0.956
 Vibration    22          0.773              1.452              0.932
 Vibration    23          0.822              1.330              0.755
 Vibration    24          0.837              1.293              0.708
 Vibration    25          0.876              1.203              0.607
 Vibration    26          0.914              1.121              0.527
 Vibration    27          0.932              1.085              0.494
 Vibration    28          0.971              1.006              0.429
 Vibration    29          0.977              0.995              0.420

                           ! Non-Optimized Parameters !
 Normal termination of Gaussian 16 at Fri Dec 11 23:42:31 2020.

 ----------------------------------------------------------------------
 # B3LYP/6-311++G(d,p) empiricaldispersion=gd3bj scf=xqc pop=npa geom=c
 heck
 ----------------------------------------------------------------------

 --------------------------------------
 CID_83072538_JID_8950_Energie_neutraal
 --------------------------------------
 Structure from the checkpoint file:  "JID_8950.chk"
 Charge =  0 Multiplicity = 1

 SCF Done:  E(RB3LYP) =  -1146.01091919     A.U. after   16 cycles
 Normal termination of Gaussian 16 at Fri Dec 11 23:51:53 2020.

 ----------------------------------------------------------------------
 # B3LYP/6-311++G(d,p) empiricaldispersion=gd3bj scf=xqc pop=npa geom=c
 heck
 ----------------------------------------------------------------------

 ------------------------------------
 CID_83072538_JID_8950_Energie_kation
 ------------------------------------
 Structure from the checkpoint file:  "JID_8950.chk"
 Charge =  1 Multiplicity = 2

 SCF Done:  E(UB3LYP) =  -1145.72579373     A.U. after   28 cycles
 Normal termination of Gaussian 16 at Sat Dec 12 00:14:57 2020.
 Gaussian 16:  ES64L-G16RevA.03 25-Dec-2016

 ----------------------------------------------------------------------
 # B3LYP/6-311++G(d,p) empiricaldispersion=gd3bj scf=xqc pop=npa geom=c
 heck
 ----------------------------------------------------------------------

 -----------------------------------
 CID_83072538_JID_8950_Energie_anion
 -----------------------------------
 Structure from the checkpoint file:  "JID_8950.chk"
 Charge = -1 Multiplicity = 2

                         Standard orientation:
 ---------------------------------------------------------------------
 Center     Atomic      Atomic             Coordinates (Angstroms)
 Number     Number       Type             X           Y           Z
 ---------------------------------------------------------------------
      1          6           0       -3.822349    2.142649    0.012668
      2          6           0       -3.115196    1.181549   -0.944444
      3          6           0       -2.274224    0.073402   -0.262989
      4          6           0       -1.810632   -0.957510   -1.344534
      5          6           0       -2.717429   -2.198881   -1.148862
      6          6           0       -3.798508   -1.731356   -0.162925
      7          7           0       -3.070392   -0.760199    0.657761
      8          6           0       -1.045103    0.725678    0.417698
      9          8           0       -0.753489    1.892516    0.138324
     10          7           0       -0.267658    0.012133    1.293603
     11          6           0       -0.286473   -1.433871    1.494681
     12          6           0        0.957014    0.687345    1.747653
     13          6           0        2.082097    0.543779    0.757568
     14          6           0        2.310962    1.378488   -0.299289
     15         16           0        3.651600    0.801244   -1.237533
     16          6           0        3.809752   -0.553841   -0.118566
     17          7           0        2.934116   -0.544795    0.845145
     18          6           0        4.871421   -1.595598   -0.286753
     19          1           0       -4.549448    1.627597    0.653822
     20          1           0       -4.378950    2.900087   -0.549785
     21          1           0       -3.097846    2.657996    0.648041
     22          1           0       -3.858729    0.687365   -1.583050
     23          1           0       -2.453911    1.749308   -1.603833
     24          1           0       -1.922846   -0.516441   -2.338522
     25          1           0       -0.754649   -1.216450   -1.230368
     26          1           0       -3.144018   -2.560061   -2.088804
     27          1           0       -2.144647   -3.020924   -0.708762
     28          1           0       -4.652320   -1.293828   -0.707630
     29          1           0       -4.185580   -2.542843    0.462723
     30          1           0       -3.682678   -0.195924    1.240615
     31          1           0        0.444373   -1.934897    0.846770
     32          1           0       -0.009511   -1.644103    2.533218
     33          1           0       -1.290066   -1.809016    1.316694
     34          1           0        0.720940    1.739024    1.902927
     35          1           0        1.252749    0.234804    2.698013
     36          1           0        1.744473    2.255317   -0.575460
     37          1           0        4.795636   -2.095353   -1.259103
     38          1           0        5.875338   -1.161832   -0.213697
     39          1           0        4.753554   -2.340827    0.503140
 ---------------------------------------------------------------------

 SCF Done:  E(UB3LYP) =  -1145.99865887     A.U. after   33 cycles
 SCF Done:  E(UB3LYP) =  -1145.99865887     a.u. after    1 cycles

 The electronic state is 2-A.
 Alpha  occ. eigenvalues --  -88.77331 -18.98597 -14.24367 -14.20631 -14.20250
 Alpha  occ. eigenvalues --  -10.16904 -10.12938 -10.11819 -10.10769 -10.09971
 Alpha  occ. eigenvalues --  -10.09450 -10.09136 -10.08799 -10.08543 -10.07631
 Alpha  occ. eigenvalues --  -10.07254 -10.06688 -10.06185  -7.85980  -5.82245
 Alpha  occ. eigenvalues --   -5.81903  -5.81602  -0.93966  -0.86027  -0.83543
 Alpha  occ. eigenvalues --   -0.82593  -0.69123  -0.68857  -0.68142  -0.66947
 Alpha  occ. eigenvalues --   -0.63924  -0.62255  -0.59931  -0.56761  -0.53495
 Alpha  occ. eigenvalues --   -0.49958  -0.48733  -0.47580  -0.44682  -0.43556
 Alpha  occ. eigenvalues --   -0.42336  -0.39827  -0.39078  -0.37851  -0.35561
 Alpha  occ. eigenvalues --   -0.34810  -0.34593  -0.34441  -0.33495  -0.32925
 Alpha  occ. eigenvalues --   -0.32586  -0.31231  -0.30114  -0.29679  -0.29207
 Alpha  occ. eigenvalues --   -0.28648  -0.28157  -0.28030  -0.27931  -0.27030
 Alpha  occ. eigenvalues --   -0.26171  -0.25605  -0.25159  -0.24342  -0.23861
 Alpha  occ. eigenvalues --   -0.22240  -0.18234  -0.17584  -0.16594  -0.14755
 Alpha  occ. eigenvalues --   -0.13632  -0.12879   0.04323
 Alpha virt. eigenvalues --    0.05725   0.06400   0.07228   0.07394   0.08090
 Alpha virt. eigenvalues --    0.08963   0.09259   0.09504   0.09847   0.09969
 Alpha virt. eigenvalues --    0.10335   0.10713   0.10886   0.11458   0.11754

  Beta  occ. eigenvalues --  -88.77317 -18.98590 -14.24367 -14.20614 -14.20235
  Beta  occ. eigenvalues --  -10.16905 -10.12760 -10.11819 -10.10769 -10.09970
  Beta  occ. eigenvalues --  -10.09418 -10.09119 -10.08681 -10.08537 -10.07625
  Beta  occ. eigenvalues --  -10.07232 -10.06677 -10.06167  -7.85966  -5.82241
  Beta  occ. eigenvalues --   -5.81899  -5.81550  -0.93957  -0.85906  -0.83523
  Beta  occ. eigenvalues --   -0.82573  -0.68992  -0.68759  -0.68074  -0.66912
  Beta  occ. eigenvalues --   -0.63882  -0.62223  -0.59897  -0.56670  -0.53446
  Beta  occ. eigenvalues --   -0.49897  -0.48661  -0.47447  -0.44606  -0.43490
  Beta  occ. eigenvalues --   -0.42270  -0.39795  -0.39022  -0.37812  -0.35503
  Beta  occ. eigenvalues --   -0.34764  -0.34527  -0.34220  -0.33452  -0.32890
  Beta  occ. eigenvalues --   -0.32545  -0.31175  -0.30089  -0.29644  -0.29119
  Beta  occ. eigenvalues --   -0.28601  -0.28104  -0.27963  -0.27806  -0.26961
  Beta  occ. eigenvalues --   -0.26127  -0.25527  -0.25125  -0.24312  -0.23839
  Beta  occ. eigenvalues --   -0.22217  -0.17889  -0.17534  -0.16550  -0.14687
  Beta  occ. eigenvalues --   -0.13228  -0.12729
  Beta virt. eigenvalues --    0.06419   0.06693   0.07313   0.07704   0.07834
  Beta virt. eigenvalues --    0.08335   0.09176   0.09380   0.09726   0.09997
  Beta virt. eigenvalues --    0.10120   0.10517   0.10962   0.11111   0.11573

 Mulliken charges and spin densities:
               1          2
     1  C   -0.009623  -0.620402
     2  C   -0.043829  -0.332415
     3  C    0.333007   0.424962
     4  C   -0.150983  -0.100250
     5  C   -0.106434  -0.370249
     6  C    0.913536  -1.160135
     7  N   -0.128561   0.141534
     8  C   -0.890546  -0.004336
     9  O   -0.285032  -0.000592
    10  N    0.196878   0.042895
    11  C   -0.004051  -0.432823
    12  C   -0.845309  -0.168921
    13  C   -0.857949  -0.147189
    14  C    0.524914   0.359731
    15  S   -0.359491  -0.170385
    16  C   -0.073375   0.558708
    17  N    0.078129   0.058576
    18  C    0.781050  -0.864031
    19  H   -0.131000   0.256327
    20  H   -0.007198   0.140229
    21  H    0.098479   0.082370
    22  H   -0.028090   0.176553
    23  H    0.208515  -0.017180
    24  H   -0.041073   0.219564
    25  H   -0.004806   0.159644
    26  H   -0.386828   0.561091
    27  H    0.146584  -0.005122
    28  H   -0.072408   0.218643
    29  H   -0.615928   0.792899
    30  H    0.093045   0.144920
    31  H   -0.019409   0.216867
    32  H    0.051641   0.070845
    33  H    0.226186   0.025928
    34  H    0.130045   0.060139
    35  H    0.175866   0.006522
    36  H    0.226118   0.071628
    37  H   -0.297512   0.472886
    38  H    0.114182   0.033921
    39  H    0.061262   0.096649
 Sum of Mulliken charges =  -1.00000   1.00000

 Dipole moment (field-independent basis, Debye):
    X=              3.8360    Y=              3.3252    Z=              1.8815  Tot=              5.4141
 Quadrupole moment (field-independent basis, Debye-Ang):
   XX=           -205.8951   YY=           -162.6737   ZZ=           -148.5759
   XY=             -4.1795   XZ=              1.9339   YZ=             -4.1901

 Summary of Natural Population Analysis:

                                       Natural Population
                Natural  -----------------------------------------------
    Atom  No    Charge         Core      Valence    Rydberg      Total
 -----------------------------------------------------------------------
      C    1   -0.29082      0.99966     2.28543    0.00574     3.29082
      C    2   -0.19718      0.99960     2.18690    0.01068     3.19718
      C    3    0.03151      0.99953     1.95430    0.01466     2.96849
      C    4   -0.18657      0.99959     2.17820    0.00877     3.18657
      C    5   -0.19538      0.99963     2.18756    0.00819     3.19538
      C    6   -0.08751      0.99963     2.07656    0.01132     3.08751
      N    7   -0.35165      0.99973     2.83929    0.01263     3.85165
      C    8    0.35223      0.99956     1.62480    0.02341     2.64777
      O    9   -0.33598      0.99988     3.33114    0.00496     4.33598
      N   10   -0.24452      0.99964     2.73530    0.00958     3.74452
      C   11   -0.18388      0.99962     2.17650    0.00776     3.18388
      C   12   -0.09548      0.99956     2.08474    0.01118     3.09548
      C   13    0.04733      0.99947     1.93985    0.01335     2.95267
      C   14   -0.17781      0.99945     2.16877    0.00960     3.17781
      S   15    0.17487      4.99944     2.80641    0.01929     7.82513
      C   16    0.06463      0.99963     1.91836    0.01738     2.93537
      N   17   -0.25335      0.99963     2.74281    0.01091     3.75335
      C   18   -0.30862      0.99961     2.30274    0.00627     3.30862
      H   19    0.09110      0.00000     0.40772    0.00118     0.40890
      H   20    0.09876      0.00000     0.40055    0.00069     0.40124
      H   21    0.10601      0.00000     0.39298    0.00101     0.39399
      H   22    0.09642      0.00000     0.40238    0.00120     0.40358
      H   23    0.10849      0.00000     0.39042    0.00108     0.39151
      H   24    0.10238      0.00000     0.39639    0.00123     0.39762
      H   25    0.10493      0.00000     0.39346    0.00162     0.39507
      H   26    0.10303      0.00000     0.39572    0.00125     0.39697
      H   27    0.09868      0.00000     0.39999    0.00133     0.40132
      H   28    0.08165      0.00000     0.41622    0.00213     0.41835
      H   29    0.09692      0.00000     0.40145    0.00163     0.40308
      H   30    0.18172      0.00000     0.31565    0.00262     0.31828
      H   31    0.09588      0.00000     0.40282    0.00131     0.40412
      H   32    0.09278      0.00000     0.40628    0.00094     0.40722
      H   33    0.11763      0.00000     0.38062    0.00175     0.38237
      H   34    0.11430      0.00000     0.38453    0.00117     0.38570
      H   35    0.10086      0.00000     0.39792    0.00122     0.39914
      H   36    0.11999      0.00000     0.37882    0.00119     0.38001
      H   37    0.11106      0.00000     0.38657    0.00236     0.38894
      H   38    0.10328      0.00000     0.39592    0.00080     0.39672
      H   39    0.11232      0.00000     0.38651    0.00117     0.38768
 =======================================================================
   * Total *    0.00000     21.99286    49.77257    0.23457    72.00000

 Normal termination of Gaussian 16 at Sat Dec 12 00:42:11 2020.
