 Gaussian 16, Revision A.03,

 -----------------------------------------------------------
 # opt freq B3LYP/6-31G(d) empiricaldispersion=gd3bj scf=xqc
 -----------------------------------------------------------

 -------------------------------
 CID_103773558_JID_7072_neutraal
 -------------------------------
 Symbolic Z-matrix:
 Charge =  0 Multiplicity = 1

 SCF Done:  E(RB3LYP) =  -1112.70431286     A.U. after   14 cycles
 SCF Done:  E(RB3LYP) =  -1112.70972818     A.U. after   12 cycles
 SCF Done:  E(RB3LYP) =  -1112.70690089     A.U. after   13 cycles
 SCF Done:  E(RB3LYP) =  -1112.70409389     A.U. after   13 cycles
 SCF Done:  E(RB3LYP) =  -1112.70286803     A.U. after   13 cycles
 SCF Done:  E(RB3LYP) =  -1112.70985485     A.U. after   10 cycles
 SCF Done:  E(RB3LYP) =  -1112.71107965     A.U. after   12 cycles
 SCF Done:  E(RB3LYP) =  -1112.71164378     A.U. after   11 cycles
 SCF Done:  E(RB3LYP) =  -1112.71180302     A.U. after   12 cycles
 SCF Done:  E(RB3LYP) =  -1112.71184998     A.U. after   12 cycles
 SCF Done:  E(RB3LYP) =  -1112.71278194     A.U. after   10 cycles
 SCF Done:  E(RB3LYP) =  -1112.71278410     A.U. after    8 cycles
 SCF Done:  E(RB3LYP) =  -1112.71278475     A.U. after    8 cycles
 SCF Done:  E(RB3LYP) =  -1112.71278525     A.U. after    8 cycles
 SCF Done:  E(RB3LYP) =  -1112.71278539     A.U. after    7 cycles
 SCF Done:  E(RB3LYP) =  -1112.71278544     A.U. after    7 cycles
 Optimization completed.
    -- Stationary point found.
 Normal termination of Gaussian 16 at Mon Dec 14 16:52:37 2020.

 --------------------------------------------------------------------
 #N Geom=AllCheck Guess=TCheck SCRF=Check GenChk RB3LYP/6-31G(d) Freq
 --------------------------------------------------------------------

 Structure from the checkpoint file:  "JID_7072.chk"
 -------------------------------
 CID_103773558_JID_7072_neutraal
 -------------------------------
 Charge =  0 Multiplicity = 1

 SCF Done:  E(RB3LYP) =  -1112.71278544     A.U. after    1 cycles

  Exact polarizability: 187.567   1.959 159.913   1.641   0.973 136.561
 Approx polarizability: 231.866   6.866 247.721   2.552   4.422 218.605

                      1                      2                      3
                      A                      A                      A
 Frequencies --     29.3142                51.0541                59.6847
 Red. masses --      4.5489                 3.9868                 3.4297
 Frc consts  --      0.0023                 0.0061                 0.0072
 IR Inten    --      0.2381                 1.0494                 0.6934

                      4                      5                      6
                      A                      A                      A
 Frequencies --     66.2346                85.5223               128.9681
 Red. masses --      4.1900                 3.9202                 3.4610
 Frc consts  --      0.0108                 0.0169                 0.0339
 IR Inten    --      1.4205                 0.7411                 0.3897

                      7                      8                      9
                      A                      A                      A
 Frequencies --    136.7131               184.7557               215.2211
 Red. masses --      4.2458                 7.2079                 2.5292
 Frc consts  --      0.0468                 0.1450                 0.0690
 IR Inten    --      0.2384                 2.9505                 0.5352

                     10                     11                     12
                      A                      A                      A
 Frequencies --    241.7771               266.3863               278.2599
 Red. masses --      1.2223                 2.4491                 2.1172
 Frc consts  --      0.0421                 0.1024                 0.0966
 IR Inten    --      0.5865                 5.2617                 5.0823

                     13                     14                     15
                      A                      A                      A
 Frequencies --    282.4576               288.7133               302.1151
 Red. masses --      1.1890                 2.1457                 1.3050
 Frc consts  --      0.0559                 0.1054                 0.0702
 IR Inten    --      0.9863                12.5360                69.0549

                     16                     17                     18
                      A                      A                      A
 Frequencies --    313.6184               339.6623               346.9950
 Red. masses --      3.6282                 2.2571                 2.7233
 Frc consts  --      0.2103                 0.1534                 0.1932
 IR Inten    --      7.7346                 3.5891                 4.8150

                     19                     20                     21
                      A                      A                      A
 Frequencies --    374.9775               390.0747               412.1527
 Red. masses --      2.3843                 2.7586                 3.0370
 Frc consts  --      0.1975                 0.2473                 0.3040
 IR Inten    --      3.2484                 1.7298                 2.6675

                     22                     23                     24
                      A                      A                      A
 Frequencies --    439.4205               451.6464               474.9166
 Red. masses --      3.3483                 2.6949                 2.9120
 Frc consts  --      0.3809                 0.3239                 0.3870
 IR Inten    --     19.2339                 0.7044                 4.9547

                     25                     26                     27
                      A                      A                      A
 Frequencies --    512.4028               527.8808               551.3326
 Red. masses --      2.5976                 3.6403                 3.1592
 Frc consts  --      0.4018                 0.5977                 0.5658
 IR Inten    --      1.0056                 1.7066                 3.8074

                     28                     29                     30
                      A                      A                      A
 Frequencies --    571.9969               650.7399               680.4568
 Red. masses --      3.0059                 4.2665                 3.7808
 Frc consts  --      0.5794                 1.0645                 1.0314
 IR Inten    --     14.7311                10.3669                 2.0343

                     31                     32                     33
                      A                      A                      A
 Frequencies --    700.7863               713.6547               781.2580
 Red. masses --      2.3813                 5.6808                 3.0029
 Frc consts  --      0.6890                 1.7047                 1.0799
 IR Inten    --      5.9761                 4.8036                 5.9226

                     34                     35                     36
                      A                      A                      A
 Frequencies --    789.4486               818.4770               848.3130
 Red. masses --      3.1613                 1.6241                 2.6016
 Frc consts  --      1.1608                 0.6410                 1.1031
 IR Inten    --      3.6986                 0.6053                 1.2846

                     37                     38                     39
                      A                      A                      A
 Frequencies --    874.2972               883.2792               911.1305
 Red. masses --      1.4991                 2.1598                 2.3731
 Frc consts  --      0.6751                 0.9928                 1.1607
 IR Inten    --      0.2442                 6.6481                 0.9223

                     40                     41                     42
                      A                      A                      A
 Frequencies --    913.4372               940.2434               962.7087
 Red. masses --      2.5977                 2.2446                 1.9489
 Frc consts  --      1.2770                 1.1691                 1.0642
 IR Inten    --      1.2032                 9.5878                 6.7607

                     43                     44                     45
                      A                      A                      A
 Frequencies --    973.4263              1000.7143              1022.3527
 Red. masses --      2.1181                 1.8768                 1.6206
 Frc consts  --      1.1825                 1.1074                 0.9980
 IR Inten    --      4.6674                 4.2070                22.5460

                     46                     47                     48
                      A                      A                      A
 Frequencies --   1030.3043              1038.0219              1042.0545
 Red. masses --      1.9637                 2.0462                 1.8934
 Frc consts  --      1.2282                 1.2990                 1.2114
 IR Inten    --     21.3487                14.3378                 2.7436

                     49                     50                     51
                      A                      A                      A
 Frequencies --   1066.6260              1073.1836              1077.8050
 Red. masses --      1.8390                 1.3860                 1.7988
 Frc consts  --      1.2327                 0.9405                 1.2312
 IR Inten    --     36.1450                 2.0770                 6.6153

                     52                     53                     54
                      A                      A                      A
 Frequencies --   1101.2710              1129.9810              1143.7931
 Red. masses --      1.9463                 1.6746                 1.4622
 Frc consts  --      1.3907                 1.2598                 1.1271
 IR Inten    --     16.2552                13.5626                 1.5350

                     55                     56                     57
                      A                      A                      A
 Frequencies --   1166.0809              1177.5019              1186.1588
 Red. masses --      2.3483                 2.0951                 2.0604
 Frc consts  --      1.8813                 1.7115                 1.7080
 IR Inten    --     21.7070                11.2847                16.5168

                     58                     59                     60
                      A                      A                      A
 Frequencies --   1192.4899              1213.4342              1230.4086
 Red. masses --      2.0873                 1.5659                 1.1780
 Frc consts  --      1.7488                 1.3584                 1.0507
 IR Inten    --      6.6789                29.9093                 6.8007

                     61                     62                     63
                      A                      A                      A
 Frequencies --   1246.9150              1267.9925              1286.6572
 Red. masses --      1.3065                 1.3788                 1.4993
 Frc consts  --      1.1968                 1.3061                 1.4624
 IR Inten    --      6.2522                62.7139                41.9270

                     64                     65                     66
                      A                      A                      A
 Frequencies --   1295.8982              1311.1708              1314.3075
 Red. masses --      2.1558                 1.3660                 1.2792
 Frc consts  --      2.1331                 1.3837                 1.3020
 IR Inten    --     54.9373                38.1233                12.2959

                     67                     68                     69
                      A                      A                      A
 Frequencies --   1348.8148              1355.3232              1376.1958
 Red. masses --      1.3488                 1.4033                 1.2967
 Frc consts  --      1.4458                 1.5188                 1.4470
 IR Inten    --     17.1447                 2.4760                 2.5625

                     70                     71                     72
                      A                      A                      A
 Frequencies --   1379.2677              1385.2190              1401.2661
 Red. masses --      1.2962                 1.3503                 1.6083
 Frc consts  --      1.4529                 1.5266                 1.8606
 IR Inten    --      0.8416                14.3801                 4.2265

                     73                     74                     75
                      A                      A                      A
 Frequencies --   1403.0268              1408.6795              1434.2780
 Red. masses --      1.2954                 1.3407                 1.3346
 Frc consts  --      1.5024                 1.5675                 1.6176
 IR Inten    --      4.2882                 3.3418                10.6759

                     76                     77                     78
                      A                      A                      A
 Frequencies --   1436.8394              1440.3573              1445.8571
 Red. masses --      1.2577                 1.2245                 1.5810
 Frc consts  --      1.5298                 1.4967                 1.9473
 IR Inten    --      8.9484                 8.5305                11.0442

                     79                     80                     81
                      A                      A                      A
 Frequencies --   1474.1726              1503.0389              1508.2688
 Red. masses --      2.5842                 1.0869                 1.0627
 Frc consts  --      3.3089                 1.4467                 1.4244
 IR Inten    --    177.6282                 1.2974                 4.8131

                     82                     83                     84
                      A                      A                      A
 Frequencies --   1510.6032              1513.9239              1515.9197
 Red. masses --      1.0656                 1.0862                 1.0817
 Frc consts  --      1.4326                 1.4668                 1.4645
 IR Inten    --      1.4560                 8.5737                 2.1103

                     85                     86                     87
                      A                      A                      A
 Frequencies --   1521.1178              1524.2659              1526.5260
 Red. masses --      1.0678                 1.0739                 1.0882
 Frc consts  --      1.4557                 1.4701                 1.4941
 IR Inten    --     11.6224                 4.1634                 7.4317

                     88                     89                     90
                      A                      A                      A
 Frequencies --   1531.7507              1535.8266              1551.4008
 Red. masses --      1.0986                 1.0865                 1.0991
 Frc consts  --      1.5186                 1.5100                 1.5585
 IR Inten    --     10.8629                 1.8360                 2.1553

                     91                     92                     93
                      A                      A                      A
 Frequencies --   1723.6356              2970.3321              3022.5106
 Red. masses --     10.3344                 1.0838                 1.0789
 Frc consts  --     18.0894                 5.6340                 5.8072
 IR Inten    --    287.8231                56.8677                19.0507

                     94                     95                     96
                      A                      A                      A
 Frequencies --   3037.2930              3044.1662              3048.7290
 Red. masses --      1.0632                 1.0506                 1.0567
 Frc consts  --      5.7787                 5.7360                 5.7869
 IR Inten    --     35.5117                34.2982                41.3476

                     97                     98                     99
                      A                      A                      A
 Frequencies --   3054.8376              3062.7270              3073.0538
 Red. masses --      1.0664                 1.0607                 1.0386
 Frc consts  --      5.8633                 5.8624                 5.7787
 IR Inten    --     25.1252                30.3897                16.7485

                    100                    101                    102
                      A                      A                      A
 Frequencies --   3074.6135              3081.6308              3085.5524
 Red. masses --      1.0955                 1.0615                 1.0884
 Frc consts  --      6.1016                 5.9393                 6.1052
 IR Inten    --     12.2874                28.0885                21.8880

                    103                    104                    105
                      A                      A                      A
 Frequencies --   3094.9502              3101.5905              3103.4518
 Red. masses --      1.0762                 1.0823                 1.1022
 Frc consts  --      6.0736                 6.1345                 6.2544
 IR Inten    --     36.4166                46.3638                14.1459

                    106                    107                    108
                      A                      A                      A
 Frequencies --   3107.5752              3127.8311              3134.3992
 Red. masses --      1.0986                 1.0994                 1.1004
 Frc consts  --      6.2507                 6.3372                 6.3695
 IR Inten    --     30.8143                 6.6047                47.8731

                    109                    110                    111
                      A                      A                      A
 Frequencies --   3135.3449              3146.1061              3160.4717
 Red. masses --      1.1015                 1.1034                 1.1022
 Frc consts  --      6.3796                 6.4350                 6.4865
 IR Inten    --     26.8599                25.0257                11.9902

                    112                    113                    114
                      A                      A                      A
 Frequencies --   3181.8088              3234.5955              3741.5800
 Red. masses --      1.0970                 1.0884                 1.0663
 Frc consts  --      6.5436                 6.7094                 8.7947
 IR Inten    --      4.2243                 9.9669                 9.7681

 - Thermochemistry -
 -------------------
 Temperature   298.150 Kelvin.  Pressure   1.00000 Atm.
 Atom     1 has atomic number  6 and mass  12.00000

 Molecular mass:   257.14495 amu.
 Principal axes and moments of inertia in atomic units:
                           1         2         3
     Eigenvalues --  2326.202537126.842158075.32252
           X            0.99997   0.00386   0.00648
           Y           -0.00375   0.99986  -0.01603
           Z           -0.00654   0.01601   0.99985
 This molecule is an asymmetric top.
 Rotational symmetry number  1.
 Warning -- assumption of classical behavior for rotation
           may cause significant error
 Rotational temperatures (Kelvin)      0.03723     0.01215     0.01073
 Rotational constants (GHZ):           0.77583     0.25323     0.22349
 Zero-point vibrational energy     932858.5 (Joules/Mol)
                                  222.95853 (Kcal/Mol)
 Warning -- explicit consideration of  28 degrees of freedom as
           vibrations may cause significant error
 Vibrational temperatures:     42.18    73.46    85.87    95.30   123.05
          (Kelvin)            185.56   196.70   265.82   309.66   347.86
                              383.27   400.35   406.39   415.39   434.68
                              451.23   488.70   499.25   539.51   561.23
                              593.00   632.23   649.82   683.30   737.23
                              759.50   793.24   822.98   936.27   979.03
                             1008.28  1026.79  1124.06  1135.84  1177.61
                             1220.53  1257.92  1270.84  1310.91  1314.23
                             1352.80  1385.12  1400.54  1439.80  1470.94
                             1482.38  1493.48  1499.28  1534.64  1544.07
                             1550.72  1584.48  1625.79  1645.66  1677.73
                             1694.16  1706.62  1715.73  1745.86  1770.28
                             1794.03  1824.36  1851.21  1864.51  1886.48
                             1891.00  1940.64  1950.01  1980.04  1984.46
                             1993.02  2016.11  2018.64  2026.78  2063.61
                             2067.29  2072.35  2080.27  2121.01  2162.54
                             2170.06  2173.42  2178.20  2181.07  2188.55
                             2193.08  2196.33  2203.85  2209.71  2232.12
                             2479.93  4273.65  4348.72  4369.99  4379.88
                             4386.44  4395.23  4406.58  4421.44  4423.68
                             4433.78  4439.42  4452.94  4462.50  4465.17
                             4471.11  4500.25  4509.70  4511.06  4526.55
                             4547.21  4577.91  4653.86  5383.30

 Zero-point correction=                           0.355307 (Hartree/Particle)
 Thermal correction to Energy=                    0.372826
 Thermal correction to Enthalpy=                  0.373770
 Thermal correction to Gibbs Free Energy=         0.309968
 Sum of electronic and zero-point Energies=          -1112.357478
 Sum of electronic and thermal Energies=             -1112.339959
 Sum of electronic and thermal Enthalpies=           -1112.339015
 Sum of electronic and thermal Free Energies=        -1112.402817

                     E (Thermal)             CV                S
                      KCal/Mol        Cal/Mol-Kelvin    Cal/Mol-Kelvin
 Total                  233.952             68.656            134.283
 Electronic               0.000              0.000              0.000
 Translational            0.889              2.981             42.533
 Rotational               0.889              2.981             33.259
 Vibrational            232.175             62.695             58.490
 Vibration     1          0.593              1.984              5.875
 Vibration     2          0.595              1.977              4.776
 Vibration     3          0.597              1.974              4.468
 Vibration     4          0.598              1.970              4.262
 Vibration     5          0.601              1.959              3.760
 Vibration     6          0.611              1.924              2.961
 Vibration     7          0.614              1.917              2.849
 Vibration     8          0.631              1.861              2.280
 Vibration     9          0.645              1.818              1.999
 Vibration    10          0.658              1.776              1.790
 Vibration    11          0.672              1.735              1.620
 Vibration    12          0.679              1.714              1.544
 Vibration    13          0.681              1.706              1.519
 Vibration    14          0.685              1.695              1.481
 Vibration    15          0.694              1.670              1.405
 Vibration    16          0.701              1.648              1.343
 Vibration    17          0.720              1.596              1.214
 Vibration    18          0.725              1.581              1.180
 Vibration    19          0.746              1.523              1.059
 Vibration    20          0.758              1.491              1.000
 Vibration    21          0.776              1.444              0.919
 Vibration    22          0.799              1.384              0.828
 Vibration    23          0.810              1.357              0.791
 Vibration    24          0.832              1.306              0.724
 Vibration    25          0.867              1.223              0.628
 Vibration    26          0.883              1.188              0.592
 Vibration    27          0.907              1.137              0.541
 Vibration    28          0.928              1.092              0.500

                           ! Non-Optimized Parameters !
 Normal termination of Gaussian 16 at Mon Dec 14 17:12:06 2020.

 ----------------------------------------------------------------------
 # B3LYP/6-311++G(d,p) empiricaldispersion=gd3bj scf=xqc pop=npa geom=c
 heck
 ----------------------------------------------------------------------

 ---------------------------------------
 CID_103773558_JID_7072_Energie_neutraal
 ---------------------------------------
 Structure from the checkpoint file:  "JID_7072.chk"
 Charge =  0 Multiplicity = 1

 SCF Done:  E(RB3LYP) =  -1112.94713051     A.U. after   15 cycles
 Normal termination of Gaussian 16 at Mon Dec 14 17:21:57 2020.

 ----------------------------------------------------------------------
 # B3LYP/6-311++G(d,p) empiricaldispersion=gd3bj scf=xqc pop=npa geom=c
 heck
 ----------------------------------------------------------------------

 -------------------------------------
 CID_103773558_JID_7072_Energie_kation
 -------------------------------------
 Structure from the checkpoint file:  "JID_7072.chk"
 Charge =  1 Multiplicity = 2

 SCF Done:  E(UB3LYP) =  -1112.66287114     A.U. after   27 cycles
 Normal termination of Gaussian 16 at Mon Dec 14 17:48:30 2020.
 Gaussian 16:  ES64L-G16RevA.03 25-Dec-2016

 ----------------------------------------------------------------------
 # B3LYP/6-311++G(d,p) empiricaldispersion=gd3bj scf=xqc pop=npa geom=c
 heck
 ----------------------------------------------------------------------

 ------------------------------------
 CID_103773558_JID_7072_Energie_anion
 ------------------------------------
 Structure from the checkpoint file:  "JID_7072.chk"
 Charge = -1 Multiplicity = 2

                         Standard orientation:
 ---------------------------------------------------------------------
 Center     Atomic      Atomic             Coordinates (Angstroms)
 Number     Number       Type             X           Y           Z
 ---------------------------------------------------------------------
      1          6           0       -4.578066   -1.612514    0.178887
      2          6           0       -3.922955   -0.254696   -0.077763
      3          6           0       -2.785184    0.074802    0.905726
      4          6           0       -2.302230    1.537173    0.798029
      5          6           0       -1.313827    1.773559   -0.349142
      6          7           0       -0.180857    0.847796   -0.241842
      7          6           0       -0.596995   -0.551789   -0.302073
      8          6           0       -1.570722   -0.875708    0.840406
      9          6           0        1.073887    1.375138   -0.083086
     10          8           0        1.246076    2.593574   -0.045643
     11          6           0        2.318366    0.461359    0.088954
     12          6           0        2.244848   -0.429412    1.355958
     13          6           0        3.107673   -1.674248    1.119228
     14          6           0        2.739666   -2.210508   -0.266302
     15         16           0        2.544793   -0.730788   -1.348805
     16          6           0        3.562894    1.357940    0.147907
     17          8           0       -3.419284   -0.187992   -1.417363
     18          1           0       -3.870551   -2.430064    0.010649
     19          1           0       -5.428153   -1.761361   -0.499014
     20          1           0       -4.957658   -1.682582    1.204374
     21          1           0       -4.689997    0.526736    0.059178
     22          1           0       -3.244212   -0.044456    1.897152
     23          1           0       -3.162080    2.209443    0.682128
     24          1           0       -1.804688    1.812061    1.737048
     25          1           0       -1.807663    1.608753   -1.311701
     26          1           0       -0.914388    2.785293   -0.317603
     27          1           0        0.266884   -1.204205   -0.260609
     28          1           0       -1.086946   -0.724607   -1.264984
     29          1           0       -1.027169   -0.794797    1.791396
     30          1           0       -1.891602   -1.919535    0.749772
     31          1           0        2.590765    0.148291    2.220001
     32          1           0        1.215917   -0.730506    1.566878
     33          1           0        2.942122   -2.432490    1.893758
     34          1           0        4.169204   -1.406793    1.139902
     35          1           0        1.802285   -2.778021   -0.233812
     36          1           0        3.514163   -2.854712   -0.689928
     37          1           0        3.686742    1.914726   -0.782895
     38          1           0        3.467974    2.084107    0.959447
     39          1           0        4.454078    0.744082    0.305531
     40          1           0       -4.154181   -0.382560   -2.019226
 ---------------------------------------------------------------------

 SCF Done:  E(UB3LYP) =  -1112.94048335     A.U. after   32 cycles

 The electronic state is 2-A.
 Alpha  occ. eigenvalues --  -88.74789 -19.02445 -18.98838 -14.24330 -10.17751
 Alpha  occ. eigenvalues --  -10.13332 -10.12467 -10.11369 -10.10135 -10.09415
 Alpha  occ. eigenvalues --  -10.09393 -10.09365 -10.08041 -10.07341 -10.07295
 Alpha  occ. eigenvalues --  -10.07273 -10.06195  -7.83430  -5.79823  -5.79477
 Alpha  occ. eigenvalues --   -5.78775  -0.94298  -0.92705  -0.83999  -0.76715
 Alpha  occ. eigenvalues --   -0.71703  -0.68031  -0.66385  -0.64834  -0.63991
 Alpha  occ. eigenvalues --   -0.59658  -0.57648  -0.54206  -0.53295  -0.50320
 Alpha  occ. eigenvalues --   -0.49410  -0.46781  -0.43308  -0.42180  -0.41035
 Alpha  occ. eigenvalues --   -0.39757  -0.37391  -0.36740  -0.36074  -0.35366
 Alpha  occ. eigenvalues --   -0.34617  -0.34176  -0.33858  -0.33064  -0.31848
 Alpha  occ. eigenvalues --   -0.31327  -0.30326  -0.29402  -0.28635  -0.28507
 Alpha  occ. eigenvalues --   -0.27605  -0.27469  -0.26808  -0.26298  -0.25830
 Alpha  occ. eigenvalues --   -0.25518  -0.24714  -0.23773  -0.22594  -0.22066
 Alpha  occ. eigenvalues --   -0.21150  -0.17941  -0.16499  -0.14303  -0.13316
 Alpha  occ. eigenvalues --    0.03693
 Alpha virt. eigenvalues --    0.05342   0.06902   0.07134   0.07804   0.08182
 Alpha virt. eigenvalues --    0.08215   0.08912   0.09368   0.09749   0.10188
 Alpha virt. eigenvalues --    0.10311   0.10900   0.11182   0.11454   0.12016

  Beta  occ. eigenvalues --  -88.74786 -19.02406 -18.98833 -14.24332 -10.17743
  Beta  occ. eigenvalues --  -10.13333 -10.12449 -10.11346 -10.10129 -10.09402
  Beta  occ. eigenvalues --  -10.09375 -10.09362 -10.08033 -10.07333 -10.07271
  Beta  occ. eigenvalues --  -10.07269 -10.06148  -7.83427  -5.79815  -5.79475
  Beta  occ. eigenvalues --   -5.78772  -0.94287  -0.92619  -0.83996  -0.76697
  Beta  occ. eigenvalues --   -0.71665  -0.68010  -0.66368  -0.64781  -0.63959
  Beta  occ. eigenvalues --   -0.59631  -0.57618  -0.54162  -0.53235  -0.50260
  Beta  occ. eigenvalues --   -0.49376  -0.46754  -0.43277  -0.42101  -0.41009
  Beta  occ. eigenvalues --   -0.39730  -0.37376  -0.36701  -0.36047  -0.35322
  Beta  occ. eigenvalues --   -0.34585  -0.34153  -0.33818  -0.33046  -0.31817
  Beta  occ. eigenvalues --   -0.31304  -0.30307  -0.29362  -0.28605  -0.28483
  Beta  occ. eigenvalues --   -0.27572  -0.27433  -0.26786  -0.26258  -0.25807
  Beta  occ. eigenvalues --   -0.25494  -0.24690  -0.23741  -0.22569  -0.22048
  Beta  occ. eigenvalues --   -0.21111  -0.17884  -0.16490  -0.14292  -0.13306
  Beta virt. eigenvalues --    0.05857   0.06500   0.07307   0.07687   0.08177
  Beta virt. eigenvalues --    0.08421   0.08717   0.09036   0.09784   0.09983
  Beta virt. eigenvalues --    0.10425   0.10488   0.11128   0.11368   0.11649

 Mulliken charges and spin densities:
               1          2
     1  C    1.281748  -1.856181
     2  C   -0.081196  -0.254709
     3  C   -0.467362   1.085665
     4  C   -0.012137  -0.461028
     5  C   -0.275030   0.088897
     6  N    0.076069   0.002206
     7  C   -0.403041   0.009722
     8  C    0.539122  -1.118407
     9  C   -0.670481  -0.085873
    10  O   -0.297603   0.000402
    11  C    0.653690   0.048762
    12  C   -1.054418   0.636722
    13  C    0.715288  -1.051079
    14  C   -0.517091  -0.245349
    15  S    0.063770   0.115618
    16  C   -0.095894  -0.100448
    17  O   -0.248469   0.037153
    18  H   -0.095410   0.248094
    19  H   -0.541042   0.682705
    20  H   -0.179627   0.314371
    21  H   -0.311104   0.481266
    22  H   -0.255062   0.481318
    23  H    0.059557   0.094222
    24  H    0.091773   0.067111
    25  H    0.155809   0.035805
    26  H    0.179870   0.035924
    27  H    0.652145  -0.653092
    28  H    0.200399   0.067789
    29  H   -0.327215   0.482536
    30  H   -0.108360   0.257151
    31  H   -0.070114   0.240215
    32  H    0.572676  -0.409561
    33  H   -0.547976   0.737817
    34  H    0.210806  -0.079367
    35  H   -0.124257   0.328261
    36  H   -0.134117   0.369255
    37  H    0.182025   0.001494
    38  H    0.151402   0.020357
    39  H    0.056090   0.052269
    40  H   -0.025231   0.291986
 Sum of Mulliken charges =  -1.00000   1.00000

 Dipole moment (field-independent basis, Debye):
    X=              6.0231    Y=              2.5197    Z=             -0.1967  Tot=              6.5319
 Quadrupole moment (field-independent basis, Debye-Ang):
   XX=           -206.1821   YY=           -162.7743   ZZ=           -150.4182
   XY=             -5.9456   XZ=             -2.8497   YZ=              5.3273

 Summary of Natural Population Analysis:

                                       Natural Population
                Natural  -----------------------------------------------
    Atom  No    Charge         Core      Valence    Rydberg      Total
 -----------------------------------------------------------------------
      C    1   -0.29677      0.99964     2.29151    0.00562     3.29677
      C    2    0.06727      0.99954     1.91838    0.01480     2.93273
      C    3   -0.11611      0.99956     2.10423    0.01232     3.11611
      C    4   -0.19125      0.99961     2.18253    0.00912     3.19125
      C    5   -0.09136      0.99960     2.08268    0.00908     3.09136
      N    6   -0.24919      0.99963     2.73975    0.00980     3.74919
      C    7   -0.09084      0.99959     2.08112    0.01013     3.09084
      C    8   -0.19468      0.99960     2.18499    0.01008     3.19468
      C    9    0.34282      0.99955     1.63362    0.02400     2.65718
      O   10   -0.33266      0.99988     3.32772    0.00506     4.33266
      C   11   -0.11569      0.99953     2.10200    0.01417     3.11569
      C   12   -0.19510      0.99957     2.18531    0.01022     3.19510
      C   13   -0.19609      0.99962     2.18665    0.00983     3.19609
      C   14   -0.24619      0.99960     2.23658    0.01000     3.24619
      S   15    0.08989      4.99961     2.89557    0.01493     7.91011
      C   16   -0.28545      0.99962     2.27817    0.00767     3.28545
      O   17   -0.38093      0.99989     3.37401    0.00703     4.38093
      H   18    0.09981      0.00000     0.39880    0.00139     0.40019
      H   19    0.10122      0.00000     0.39684    0.00195     0.39878
      H   20    0.10262      0.00000     0.39587    0.00151     0.39738
      H   21    0.07717      0.00000     0.42081    0.00202     0.42283
      H   22    0.10467      0.00000     0.39390    0.00143     0.39533
      H   23    0.10079      0.00000     0.39832    0.00089     0.39921
      H   24    0.09794      0.00000     0.40092    0.00114     0.40206
      H   25    0.10391      0.00000     0.39477    0.00132     0.39609
      H   26    0.11424      0.00000     0.38456    0.00120     0.38576
      H   27    0.10326      0.00000     0.39449    0.00226     0.39674
      H   28    0.10811      0.00000     0.39028    0.00161     0.39189
      H   29    0.09696      0.00000     0.40157    0.00147     0.40304
      H   30    0.10501      0.00000     0.39387    0.00112     0.39499
      H   31    0.10630      0.00000     0.39251    0.00118     0.39370
      H   32    0.10615      0.00000     0.39191    0.00195     0.39385
      H   33    0.10821      0.00000     0.39010    0.00169     0.39179
      H   34    0.09722      0.00000     0.40162    0.00116     0.40278
      H   35    0.09868      0.00000     0.39957    0.00175     0.40132
      H   36    0.10699      0.00000     0.39184    0.00117     0.39301
      H   37    0.10711      0.00000     0.39200    0.00089     0.39289
      H   38    0.10570      0.00000     0.39331    0.00099     0.39430
      H   39    0.09676      0.00000     0.40216    0.00108     0.40324
      H   40    0.23351      0.00000     0.26183    0.00466     0.26649
 =======================================================================
   * Total *    0.00000     20.99366    48.78666    0.21968    70.00000

 Normal termination of Gaussian 16 at Mon Dec 14 18:17:41 2020.
