 Gaussian 16, Revision A.03,

 -----------------------------------------------------------
 # opt freq B3LYP/6-31G(d) empiricaldispersion=gd3bj scf=xqc
 -----------------------------------------------------------

 -------------------------------
 CID_131151472_JID_2506_neutraal
 -------------------------------
 Symbolic Z-matrix:
 Charge =  0 Multiplicity = 1

 SCF Done:  E(RB3LYP) =  -536.073422203     A.U. after   14 cycles
 SCF Done:  E(RB3LYP) =  -536.076386923     A.U. after   12 cycles
 SCF Done:  E(RB3LYP) =  -536.076536522     A.U. after   12 cycles
 SCF Done:  E(RB3LYP) =  -536.076923761     A.U. after   11 cycles
 SCF Done:  E(RB3LYP) =  -536.076949764     A.U. after   10 cycles
 SCF Done:  E(RB3LYP) =  -536.076956763     A.U. after    9 cycles
 SCF Done:  E(RB3LYP) =  -536.076959165     A.U. after    8 cycles
 SCF Done:  E(RB3LYP) =  -536.076959869     A.U. after    8 cycles
 SCF Done:  E(RB3LYP) =  -536.076960059     A.U. after    7 cycles
 SCF Done:  E(RB3LYP) =  -536.076960141     A.U. after    7 cycles
 Optimization completed.
    -- Stationary point found.
 Normal termination of Gaussian 16 at Wed Dec  9 17:27:06 2020.

 --------------------------------------------------------------------
 #N Geom=AllCheck Guess=TCheck SCRF=Check GenChk RB3LYP/6-31G(d) Freq
 --------------------------------------------------------------------

 Structure from the checkpoint file:  "JID_2506.chk"
 -------------------------------
 CID_131151472_JID_2506_neutraal
 -------------------------------
 Charge =  0 Multiplicity = 1

 SCF Done:  E(RB3LYP) =  -536.076960141     A.U. after    1 cycles

  Exact polarizability: 106.689  -2.827  97.624  -0.745  -4.082  93.526
 Approx polarizability: 141.341  -2.379 140.348  -0.299 -14.180 151.095

                      1                      2                      3
                      A                      A                      A
 Frequencies --     74.1470                87.4877               104.6526
 Red. masses --      5.4431                 4.5479                 3.8549
 Frc consts  --      0.0176                 0.0205                 0.0249
 IR Inten    --      4.8618                 0.7181                 3.4964

                      4                      5                      6
                      A                      A                      A
 Frequencies --    135.7587               191.5589               218.0754
 Red. masses --      3.4122                 3.4522                 3.8243
 Frc consts  --      0.0371                 0.0746                 0.1072
 IR Inten    --      4.6862                 5.4151                 3.5225

                      7                      8                      9
                      A                      A                      A
 Frequencies --    271.2396               293.3440               318.5653
 Red. masses --      2.2489                 3.2817                 4.1224
 Frc consts  --      0.0975                 0.1664                 0.2465
 IR Inten    --      1.9265                 0.1960                 2.7887

                     10                     11                     12
                      A                      A                      A
 Frequencies --    344.3801               379.9120               402.8171
 Red. masses --      3.6722                 2.6334                 2.0315
 Frc consts  --      0.2566                 0.2239                 0.1942
 IR Inten    --      2.1054                 0.3527                 2.7336

                     13                     14                     15
                      A                      A                      A
 Frequencies --    455.1390               458.3705               527.4300
 Red. masses --      2.8788                 1.8078                 3.6141
 Frc consts  --      0.3514                 0.2238                 0.5924
 IR Inten    --      4.3272                 1.4031                 4.8850

                     16                     17                     18
                      A                      A                      A
 Frequencies --    572.6981               635.4588               770.8603
 Red. masses --      3.8865                 3.4212                 3.3342
 Frc consts  --      0.7510                 0.8140                 1.1673
 IR Inten    --      0.4915                22.1592                 6.0445

                     19                     20                     21
                      A                      A                      A
 Frequencies --    786.5652               811.5041               839.8019
 Red. masses --      1.0863                 2.2932                 2.4274
 Frc consts  --      0.3960                 0.8897                 1.0087
 IR Inten    --      0.9427                 3.1946                16.1657

                     22                     23                     24
                      A                      A                      A
 Frequencies --    885.9771               897.0184               941.4083
 Red. masses --      5.7498                 1.7475                 2.7258
 Frc consts  --      2.6592                 0.8285                 1.4233
 IR Inten    --     21.1287                 5.8752                10.2817

                     25                     26                     27
                      A                      A                      A
 Frequencies --    950.8781               954.6268               972.9007
 Red. masses --      1.7708                 2.0331                 2.3822
 Frc consts  --      0.9434                 1.0916                 1.3285
 IR Inten    --      2.4210                 8.3149                10.6113

                     28                     29                     30
                      A                      A                      A
 Frequencies --    985.4053               999.7106              1026.2863
 Red. masses --      1.8610                 3.1112                 1.9498
 Frc consts  --      1.0647                 1.8320                 1.2100
 IR Inten    --      6.7356                13.7875                 5.1149

                     31                     32                     33
                      A                      A                      A
 Frequencies --   1060.8765              1078.0240              1089.0170
 Red. masses --      1.4405                 2.1924                 1.4669
 Frc consts  --      0.9552                 1.5012                 1.0250
 IR Inten    --      2.4344                14.0153                 5.6778

                     34                     35                     36
                      A                      A                      A
 Frequencies --   1107.4050              1159.1231              1194.1549
 Red. masses --      2.1198                 2.9317                 1.3342
 Frc consts  --      1.5316                 2.3207                 1.1210
 IR Inten    --     23.8701               106.2230                 1.4012

                     37                     38                     39
                      A                      A                      A
 Frequencies --   1199.4659              1209.4482              1274.9612
 Red. masses --      2.5274                 2.2896                 1.3860
 Frc consts  --      2.1424                 1.9733                 1.3275
 IR Inten    --     72.4783                 6.6036                41.0539

                     40                     41                     42
                      A                      A                      A
 Frequencies --   1281.9294              1312.7537              1350.9726
 Red. masses --      1.1955                 1.3872                 2.1423
 Frc consts  --      1.1575                 1.4085                 2.3037
 IR Inten    --      1.3246                 4.4282                 8.5872

                     43                     44                     45
                      A                      A                      A
 Frequencies --   1372.5202              1385.8343              1390.2707
 Red. masses --      1.6640                 1.2832                 1.3588
 Frc consts  --      1.8469                 1.4520                 1.5474
 IR Inten    --     11.4754                 1.5145                13.8373

                     46                     47                     48
                      A                      A                      A
 Frequencies --   1403.4181              1405.6329              1429.3554
 Red. masses --      1.3671                 1.3484                 1.3019
 Frc consts  --      1.5864                 1.5697                 1.5671
 IR Inten    --      8.6538                26.4158                 6.2950

                     49                     50                     51
                      A                      A                      A
 Frequencies --   1440.1313              1443.9055              1472.7247
 Red. masses --      1.3788                 1.4046                 1.0790
 Frc consts  --      1.6848                 1.7254                 1.3789
 IR Inten    --     23.1806                13.0287                18.4175

                     52                     53                     54
                      A                      A                      A
 Frequencies --   1493.5934              1500.1480              1508.4496
 Red. masses --      1.0871                 1.0835                 1.0987
 Frc consts  --      1.4288                 1.4366                 1.4730
 IR Inten    --      6.0290                 3.8792                 9.1755

                     55                     56                     57
                      A                      A                      A
 Frequencies --   1524.1550              1534.9035              1539.3556
 Red. masses --      1.1378                 1.1188                 1.2487
 Frc consts  --      1.5573                 1.5529                 1.7434
 IR Inten    --      2.4238                 2.2460                 0.6741

                     58                     59                     60
                      A                      A                      A
 Frequencies --   2357.9789              2974.9745              2994.1688
 Red. masses --     12.5721                 1.0729                 1.0691
 Frc consts  --     41.1847                 5.5947                 5.6472
 IR Inten    --      0.4512                77.7000                55.6748

                     61                     62                     63
                      A                      A                      A
 Frequencies --   3017.3004              3027.1145              3038.9768
 Red. masses --      1.0628                 1.0680                 1.0594
 Frc consts  --      5.7006                 5.7662                 5.7648
 IR Inten    --     45.1943                74.2588                25.2066

                     64                     65                     66
                      A                      A                      A
 Frequencies --   3069.2762              3078.2299              3081.0369
 Red. masses --      1.1006                 1.0945                 1.1034
 Frc consts  --      6.1088                 6.1104                 6.1713
 IR Inten    --     21.1363                14.3105                 8.9941

                     67                     68                     69
                      A                      A                      A
 Frequencies --   3088.2400              3104.5419              3139.4711
 Red. masses --      1.0950                 1.0941                 1.0537
 Frc consts  --      6.1529                 6.2129                 6.1192
 IR Inten    --     33.6506                49.2606                21.7997

                     70                     71                     72
                      A                      A                      A
 Frequencies --   3154.9355              3213.8225              3235.8195
 Red. masses --      1.0568                 1.1183                 1.1161
 Frc consts  --      6.1975                 6.8054                 6.8853
 IR Inten    --     10.1320                 6.5453                11.9217

 - Thermochemistry -
 -------------------
 Temperature   298.150 Kelvin.  Pressure   1.00000 Atm.
 Atom     1 has atomic number  6 and mass  12.00000

 Molecular mass:   166.11061 amu.
 Principal axes and moments of inertia in atomic units:
                           1         2         3
     Eigenvalues --  1502.197851944.202272200.26181
           X            0.99762  -0.06717   0.01562
           Y            0.06595   0.99544   0.06888
           Z           -0.02017  -0.06769   0.99750
 This molecule is an asymmetric top.
 Rotational symmetry number  1.
 Warning -- assumption of classical behavior for rotation
           may cause significant error
 Rotational temperatures (Kelvin)      0.05766     0.04455     0.03937
 Rotational constants (GHZ):           1.20140     0.92827     0.82024
 Zero-point vibrational energy     592345.3 (Joules/Mol)
                                  141.57392 (Kcal/Mol)
 Warning -- explicit consideration of  16 degrees of freedom as
           vibrations may cause significant error
 Vibrational temperatures:    106.68   125.88   150.57   195.33   275.61
          (Kelvin)            313.76   390.25   422.06   458.34   495.49
                              546.61   579.56   654.84   659.49   758.85
                              823.98   914.28  1109.10  1131.69  1167.57
                             1208.29  1274.72  1290.61  1354.48  1368.10
                             1373.49  1399.79  1417.78  1438.36  1476.60
                             1526.36  1551.04  1566.85  1593.31  1667.72
                             1718.12  1725.76  1740.13  1834.38  1844.41
                             1888.76  1943.75  1974.75  1993.91  2000.29
                             2019.21  2022.39  2056.52  2072.03  2077.46
                             2118.92  2148.95  2158.38  2170.32  2192.92
                             2208.38  2214.79  3392.61  4280.32  4307.94
                             4341.22  4355.34  4372.41  4416.00  4428.89
                             4432.92  4443.29  4466.74  4517.00  4539.25
                             4623.97  4655.62

 Zero-point correction=                           0.225612 (Hartree/Particle)
 Thermal correction to Energy=                    0.236835
 Thermal correction to Enthalpy=                  0.237779
 Thermal correction to Gibbs Free Energy=         0.188921
 Sum of electronic and zero-point Energies=           -535.851348
 Sum of electronic and thermal Energies=              -535.840125
 Sum of electronic and thermal Enthalpies=            -535.839181
 Sum of electronic and thermal Free Energies=         -535.888039

                     E (Thermal)             CV                S
                      KCal/Mol        Cal/Mol-Kelvin    Cal/Mol-Kelvin
 Total                  148.616             43.355            102.831
 Electronic               0.000              0.000              0.000
 Translational            0.889              2.981             41.231
 Rotational               0.889              2.981             30.242
 Vibrational            146.839             37.394             31.359
 Vibration     1          0.599              1.966              4.040
 Vibration     2          0.601              1.958              3.715
 Vibration     3          0.605              1.946              3.366
 Vibration     4          0.614              1.918              2.863
 Vibration     5          0.634              1.852              2.213
 Vibration     6          0.646              1.814              1.975
 Vibration     7          0.675              1.726              1.588
 Vibration     8          0.688              1.686              1.455
 Vibration     9          0.705              1.638              1.317
 Vibration    10          0.723              1.587              1.192
 Vibration    11          0.750              1.513              1.040
 Vibration    12          0.768              1.464              0.952
 Vibration    13          0.813              1.350              0.780
 Vibration    14          0.816              1.342              0.771
 Vibration    15          0.882              1.189              0.593
 Vibration    16          0.929              1.090              0.499

 Optimization completed.
    -- Stationary point found.
 Normal termination of Gaussian 16 at Wed Dec  9 17:34:14 2020.

 ----------------------------------------------------------------------
 # B3LYP/6-311++G(d,p) empiricaldispersion=gd3bj scf=xqc pop=npa geom=c
 heck
 ----------------------------------------------------------------------

 ---------------------------------------
 CID_131151472_JID_2506_Energie_neutraal
 ---------------------------------------
 Structure from the checkpoint file:  "JID_2506.chk"
 Charge =  0 Multiplicity = 1

 SCF Done:  E(RB3LYP) =  -536.224976984     A.U. after   14 cycles
 Normal termination of Gaussian 16 at Wed Dec  9 17:37:41 2020.

 ----------------------------------------------------------------------
 # B3LYP/6-311++G(d,p) empiricaldispersion=gd3bj scf=xqc pop=npa geom=c
 heck
 ----------------------------------------------------------------------

 -------------------------------------
 CID_131151472_JID_2506_Energie_kation
 -------------------------------------
 Structure from the checkpoint file:  "JID_2506.chk"
 Charge =  1 Multiplicity = 2

 SCF Done:  E(UB3LYP) =  -535.922014197     A.U. after   22 cycles
 Normal termination of Gaussian 16 at Wed Dec  9 17:44:32 2020.
 Gaussian 16:  ES64L-G16RevA.03 25-Dec-2016

 ----------------------------------------------------------------------
 # B3LYP/6-311++G(d,p) empiricaldispersion=gd3bj scf=xqc pop=npa geom=c
 heck
 ----------------------------------------------------------------------

 ------------------------------------
 CID_131151472_JID_2506_Energie_anion
 ------------------------------------
 Structure from the checkpoint file:  "JID_2506.chk"
 Charge = -1 Multiplicity = 2

                         Standard orientation:
 ---------------------------------------------------------------------
 Center     Atomic      Atomic             Coordinates (Angstroms)
 Number     Number       Type             X           Y           Z
 ---------------------------------------------------------------------
      1          6           0       -1.871852    1.155292   -0.418279
      2          6           0       -2.857830    0.264207    0.293740
      3          6           0       -1.404013   -0.140301    0.192535
      4          6           0       -0.575818   -0.096246    1.468131
      5          7           0        0.876321   -0.122045    1.315054
      6          6           0        1.417419   -1.347384    0.751130
      7          6           0        1.354802   -1.523655   -0.783170
      8          8           0        0.188358   -1.035849   -1.415987
      9          6           0       -1.052635   -1.263675   -0.764964
     10          6           0        1.537044    1.112992    0.966627
     11          6           0        1.371381    1.647212   -0.411485
     12          7           0        1.262713    2.101206   -1.473973
     13          1           0       -1.901560    1.220109   -1.501528
     14          1           0       -1.576974    2.082314    0.065427
     15          1           0       -3.584486   -0.284692   -0.299868
     16          1           0       -3.231977    0.579684    1.264805
     17          1           0       -0.837420    0.798445    2.047114
     18          1           0       -0.837734   -0.963565    2.091569
     19          1           0        0.882437   -2.170000    1.239158
     20          1           0        2.471465   -1.443947    1.049843
     21          1           0        1.501593   -2.596213   -1.000723
     22          1           0        2.174072   -0.977136   -1.260698
     23          1           0       -1.060765   -2.237609   -0.248635
     24          1           0       -1.801859   -1.312381   -1.562252
     25          1           0        1.197209    1.897126    1.654983
     26          1           0        2.614922    0.989885    1.135547
 ---------------------------------------------------------------------

 SCF Done:  E(UB3LYP) =  -536.213129635     A.U. after   31 cycles

 The electronic state is 2-A.
 Alpha  occ. eigenvalues --  -19.01829 -14.21511 -14.20368 -10.13410 -10.11726
 Alpha  occ. eigenvalues --  -10.11169 -10.10077 -10.09699 -10.09506 -10.08184
 Alpha  occ. eigenvalues --  -10.07513 -10.06946  -0.93410  -0.83874  -0.79656
 Alpha  occ. eigenvalues --   -0.76902  -0.66218  -0.64923  -0.60140  -0.56600
 Alpha  occ. eigenvalues --   -0.50622  -0.48812  -0.45714  -0.42860  -0.40084
 Alpha  occ. eigenvalues --   -0.39807  -0.39251  -0.37825  -0.35243  -0.34349
 Alpha  occ. eigenvalues --   -0.33086  -0.30411  -0.29739  -0.29223  -0.27779
 Alpha  occ. eigenvalues --   -0.26692  -0.26048  -0.25799  -0.22957  -0.22080
 Alpha  occ. eigenvalues --   -0.21289  -0.20535  -0.18087  -0.15801  -0.11979
 Alpha  occ. eigenvalues --    0.04466
 Alpha virt. eigenvalues --    0.07098   0.07269   0.08393   0.09104   0.09510
 Alpha virt. eigenvalues --    0.10586   0.10850   0.11198   0.11832   0.12313
 Alpha virt. eigenvalues --    0.12531   0.13583   0.13824   0.13955   0.14550

  Beta  occ. eigenvalues --  -19.01826 -14.21513 -14.20363 -10.13352 -10.11702
  Beta  occ. eigenvalues --  -10.11150 -10.10071 -10.09663 -10.09463 -10.08181
  Beta  occ. eigenvalues --  -10.07496 -10.06933  -0.93399  -0.83854  -0.79638
  Beta  occ. eigenvalues --   -0.76890  -0.66151  -0.64866  -0.60082  -0.56552
  Beta  occ. eigenvalues --   -0.50572  -0.48737  -0.45667  -0.42810  -0.40027
  Beta  occ. eigenvalues --   -0.39767  -0.39204  -0.37787  -0.35187  -0.34296
  Beta  occ. eigenvalues --   -0.33026  -0.30370  -0.29692  -0.29185  -0.27748
  Beta  occ. eigenvalues --   -0.26671  -0.26035  -0.25759  -0.22935  -0.22055
  Beta  occ. eigenvalues --   -0.21265  -0.20509  -0.18060  -0.15772  -0.11934
  Beta virt. eigenvalues --    0.06985   0.07953   0.08344   0.09135   0.09822
  Beta virt. eigenvalues --    0.10013   0.10922   0.11306   0.11493   0.12119
  Beta virt. eigenvalues --    0.12628   0.12925   0.13828   0.14190   0.14444

 Mulliken charges and spin densities:
               1          2
     1  C    0.221988  -0.549835
     2  C   -0.014966  -0.408938
     3  C   -2.552849   3.464283
     4  C    2.699911  -3.712774
     5  N   -0.228618   0.443145
     6  C    0.576577  -0.722026
     7  C   -0.179599  -0.224951
     8  O   -0.072722   0.026745
     9  C    0.670359  -1.297401
    10  C    0.652442  -1.057011
    11  C    0.285586  -0.051760
    12  N   -0.327829   0.004531
    13  H    0.124941   0.049643
    14  H    0.040729   0.113455
    15  H   -0.056654   0.186242
    16  H   -0.256285   0.402815
    17  H   -0.176096   0.358702
    18  H   -0.418964   0.617180
    19  H   -0.042262   0.207439
    20  H   -0.850623   1.038495
    21  H   -0.263833   0.403999
    22  H    0.221953  -0.056889
    23  H   -0.322268   0.486349
    24  H    0.130605   0.027998
    25  H   -0.402715   0.595347
    26  H   -0.458809   0.655216
 Sum of Mulliken charges =  -1.00000   1.00000

 Dipole moment (field-independent basis, Debye):
    X=             -2.7079    Y=             -0.1456    Z=             -3.1004  Tot=              4.1191
 Quadrupole moment (field-independent basis, Debye-Ang):
   XX=           -117.9463   YY=           -117.3791   ZZ=           -117.8318
   XY=              0.2866   XZ=             -0.1320   YZ=              4.0711

 Summary of Natural Population Analysis:

                                       Natural Population
                Natural  -----------------------------------------------
    Atom  No    Charge         Core      Valence    Rydberg      Total
 -----------------------------------------------------------------------
      C    1   -0.18852      0.99958     2.17923    0.00972     3.18852
      C    2   -0.19555      0.99959     2.18734    0.00862     3.19555
      C    3   -0.07200      0.99953     2.05829    0.01417     3.07200
      C    4   -0.07655      0.99954     2.06267    0.01434     3.07655
      N    5   -0.27460      0.99973     2.75524    0.01964     3.77460
      C    6   -0.10067      0.99960     2.08876    0.01231     3.10067
      C    7   -0.01627      0.99957     2.00372    0.01298     3.01627
      O    8   -0.30049      0.99988     3.29047    0.01013     4.30049
      C    9   -0.00509      0.99950     1.99167    0.01392     3.00509
      C   10   -0.13766      0.99951     2.12457    0.01358     3.13766
      C   11    0.15364      0.99964     1.82973    0.01698     2.84636
      N   12   -0.18632      0.99979     2.67526    0.01126     3.68632
      H   13    0.10616      0.00000     0.39294    0.00090     0.39384
      H   14    0.10437      0.00000     0.39457    0.00106     0.39563
      H   15    0.10061      0.00000     0.39846    0.00093     0.39939
      H   16    0.10411      0.00000     0.39476    0.00112     0.39589
      H   17    0.10073      0.00000     0.39672    0.00256     0.39927
      H   18    0.09962      0.00000     0.39824    0.00214     0.40038
      H   19    0.09937      0.00000     0.39825    0.00237     0.40063
      H   20    0.10284      0.00000     0.39472    0.00244     0.39716
      H   21    0.07987      0.00000     0.41876    0.00137     0.42013
      H   22    0.09071      0.00000     0.40796    0.00133     0.40929
      H   23    0.08434      0.00000     0.41419    0.00147     0.41566
      H   24    0.09023      0.00000     0.40836    0.00141     0.40977
      H   25    0.11876      0.00000     0.37888    0.00236     0.38124
      H   26    0.11835      0.00000     0.37949    0.00217     0.38165
 =======================================================================
   * Total *    0.00000     11.99545    32.82327    0.18128    45.00000

 Normal termination of Gaussian 16 at Wed Dec  9 17:53:35 2020.
