 Gaussian 16, Revision A.03,

 -----------------------------------------------------------
 # opt freq B3LYP/6-31G(d) empiricaldispersion=gd3bj scf=xqc
 -----------------------------------------------------------

 -------------------------------
 CID_115266197_JID_8655_neutraal
 -------------------------------
 Symbolic Z-matrix:
 Charge =  0 Multiplicity = 1

 SCF Done:  E(RB3LYP) =  -794.209540474     A.U. after   15 cycles
 SCF Done:  E(RB3LYP) =  -794.238575454     A.U. after   13 cycles
 SCF Done:  E(RB3LYP) =  -794.241819996     A.U. after   15 cycles
 SCF Done:  E(RB3LYP) =  -794.243461594     A.U. after   14 cycles
 SCF Done:  E(RB3LYP) =  -794.244880324     A.U. after   13 cycles
 SCF Done:  E(RB3LYP) =  -794.246558930     A.U. after   15 cycles
 SCF Done:  E(RB3LYP) =  -794.247234290     A.U. after   15 cycles
 SCF Done:  E(RB3LYP) =  -794.247830823     A.U. after   12 cycles
 SCF Done:  E(RB3LYP) =  -794.248067772     A.U. after   12 cycles
 SCF Done:  E(RB3LYP) =  -794.248377114     A.U. after   13 cycles
 SCF Done:  E(RB3LYP) =  -794.248917138     A.U. after   10 cycles
 SCF Done:  E(RB3LYP) =  -794.248918031     A.U. after   10 cycles
 SCF Done:  E(RB3LYP) =  -794.248919222     A.U. after   10 cycles
 SCF Done:  E(RB3LYP) =  -794.248919249     A.U. after    7 cycles
 SCF Done:  E(RB3LYP) =  -794.248919264     A.U. after    7 cycles
 Optimization completed.
    -- Stationary point found.
 Normal termination of Gaussian 16 at Fri Dec 11 20:43:27 2020.

 --------------------------------------------------------------------
 #N Geom=AllCheck Guess=TCheck SCRF=Check GenChk RB3LYP/6-31G(d) Freq
 --------------------------------------------------------------------

 Structure from the checkpoint file:  "JID_8655.chk"
 -------------------------------
 CID_115266197_JID_8655_neutraal
 -------------------------------
 Charge =  0 Multiplicity = 1

 SCF Done:  E(RB3LYP) =  -794.248919265     A.U. after    1 cycles

  Exact polarizability: 195.734   2.887 164.402  -4.564  -0.274 115.105
 Approx polarizability: 267.670   6.439 253.480  -9.701   0.720 195.488

                      1                      2                      3
                      A                      A                      A
 Frequencies --     23.8712                29.6867                32.6315
 Red. masses --      3.3977                 5.3124                 6.2929
 Frc consts  --      0.0011                 0.0028                 0.0039
 IR Inten    --      0.4230                 1.9184                 2.0900

                      4                      5                      6
                      A                      A                      A
 Frequencies --     51.4174                57.5247                71.1710
 Red. masses --      1.5112                 2.8133                 4.1662
 Frc consts  --      0.0024                 0.0055                 0.0124
 IR Inten    --      0.4418                 1.1503                 1.2923

                      7                      8                      9
                      A                      A                      A
 Frequencies --     98.2297               121.2858               160.6984
 Red. masses --      3.2430                 3.6647                 1.8469
 Frc consts  --      0.0184                 0.0318                 0.0281
 IR Inten    --      1.8606                 3.1690                 1.8497

                     10                     11                     12
                      A                      A                      A
 Frequencies --    181.6850               207.2739               220.2179
 Red. masses --      4.2120                 7.6727                 1.8227
 Frc consts  --      0.0819                 0.1942                 0.0521
 IR Inten    --      2.4515                 2.8953                 5.6721

                     13                     14                     15
                      A                      A                      A
 Frequencies --    282.2710               295.8637               324.5711
 Red. masses --      3.7141                 5.4176                 3.5648
 Frc consts  --      0.1744                 0.2794                 0.2213
 IR Inten    --      1.8141                20.9105                 1.5511

                     16                     17                     18
                      A                      A                      A
 Frequencies --    361.3195               383.5308               405.4404
 Red. masses --      3.7054                 4.5338                 2.6462
 Frc consts  --      0.2850                 0.3929                 0.2563
 IR Inten    --      0.0188                 3.4449                 1.8502

                     19                     20                     21
                      A                      A                      A
 Frequencies --    412.7173               455.5256               463.3939
 Red. masses --      3.8697                 2.8657                 1.7559
 Frc consts  --      0.3884                 0.3504                 0.2221
 IR Inten    --      6.8155                18.7129                69.2370

                     22                     23                     24
                      A                      A                      A
 Frequencies --    486.2878               521.9760               564.1600
 Red. masses --      3.0974                 5.7655                 4.2034
 Frc consts  --      0.4316                 0.9255                 0.7882
 IR Inten    --      2.8473                 1.9207                 8.1996

                     25                     26                     27
                      A                      A                      A
 Frequencies --    629.1503               645.2169               678.7405
 Red. masses --      6.1999                 2.5126                 1.3257
 Frc consts  --      1.4459                 0.6163                 0.3598
 IR Inten    --     13.9713                 3.2841                 0.6934

                     28                     29                     30
                      A                      A                      A
 Frequencies --    701.6681               708.9690               725.1033
 Red. masses --      3.1984                 3.7291                 5.3509
 Frc consts  --      0.9278                 1.1044                 1.6576
 IR Inten    --     55.9883                 9.3285                 5.0559

                     31                     32                     33
                      A                      A                      A
 Frequencies --    773.9953               788.4735               821.2184
 Red. masses --      1.8636                 1.6204                 4.4088
 Frc consts  --      0.6578                 0.5935                 1.7518
 IR Inten    --      1.8209                11.2191                 4.5812

                     34                     35                     36
                      A                      A                      A
 Frequencies --    829.0417               846.7529               898.8153
 Red. masses --      2.9692                 1.3515                 5.3108
 Frc consts  --      1.2024                 0.5709                 2.5278
 IR Inten    --     37.3820                 5.4140                11.7347

                     37                     38                     39
                      A                      A                      A
 Frequencies --    907.0139               917.2502               971.3023
 Red. masses --      4.8742                 4.3783                 2.5688
 Frc consts  --      2.3626                 2.1704                 1.4279
 IR Inten    --      0.9076                12.4571                35.6313

                     40                     41                     42
                      A                      A                      A
 Frequencies --    991.7504               999.4303              1004.9791
 Red. masses --      1.4527                 6.0173                 2.5099
 Frc consts  --      0.8418                 3.5412                 1.4935
 IR Inten    --      1.3493                 5.7784                55.3798

                     43                     44                     45
                      A                      A                      A
 Frequencies --   1043.5325              1076.3373              1097.9785
 Red. masses --      1.9900                 1.6391                 1.4715
 Frc consts  --      1.2768                 1.1188                 1.0452
 IR Inten    --     44.6181                15.2297                16.2347

                     46                     47                     48
                      A                      A                      A
 Frequencies --   1144.8355              1151.7546              1158.5661
 Red. masses --      2.4668                 1.3679                 1.3962
 Frc consts  --      1.9049                 1.0691                 1.1042
 IR Inten    --      4.6173                98.6737                14.2862

                     49                     50                     51
                      A                      A                      A
 Frequencies --   1166.6872              1169.6358              1184.9745
 Red. masses --      1.4105                 1.8966                 1.9715
 Frc consts  --      1.1312                 1.5287                 1.6310
 IR Inten    --      5.8217                17.6927                10.4504

                     52                     53                     54
                      A                      A                      A
 Frequencies --   1254.0348              1269.6544              1286.0054
 Red. masses --      2.1637                 1.6588                 1.8425
 Frc consts  --      2.0048                 1.5755                 1.7953
 IR Inten    --     45.1023                11.0207               124.8444

                     55                     56                     57
                      A                      A                      A
 Frequencies --   1312.3268              1337.7570              1367.0269
 Red. masses --      4.6365                 4.1603                 1.9314
 Frc consts  --      4.7046                 4.3866                 2.1266
 IR Inten    --     21.1368                43.3341                71.7345

                     58                     59                     60
                      A                      A                      A
 Frequencies --   1386.2671              1395.9653              1413.1071
 Red. masses --      1.4374                 2.9819                 3.6518
 Frc consts  --      1.6276                 3.4237                 4.2965
 IR Inten    --     15.4804                 1.1080                 5.9512

                     61                     62                     63
                      A                      A                      A
 Frequencies --   1418.0465              1455.5289              1476.2560
 Red. masses --      1.9757                 1.3805                 2.1873
 Frc consts  --      2.3407                 1.7232                 2.8086
 IR Inten    --     16.0286                63.7548                24.3842

                     64                     65                     66
                      A                      A                      A
 Frequencies --   1478.3674              1480.7459              1510.8434
 Red. masses --      1.3255                 1.2538                 1.1351
 Frc consts  --      1.7069                 1.6197                 1.5266
 IR Inten    --     14.3176                36.4885                55.3724

                     67                     68                     69
                      A                      A                      A
 Frequencies --   1515.5212              1525.2400              1533.3271
 Red. masses --      1.1844                 1.2750                 1.3764
 Frc consts  --      1.6027                 1.7475                 1.9066
 IR Inten    --     40.1933                21.0925                11.6834

                     70                     71                     72
                      A                      A                      A
 Frequencies --   1538.8726              1548.5776              1562.5246
 Red. masses --      2.2755                 1.6494                 1.9076
 Frc consts  --      3.1749                 2.3305                 2.7441
 IR Inten    --     57.5529               119.5708                88.5111

                     73                     74                     75
                      A                      A                      A
 Frequencies --   1586.7600              1623.3516              1647.8010
 Red. masses --      8.1148                 4.3758                 6.1316
 Frc consts  --     12.0379                 6.7941                 9.8092
 IR Inten    --    140.1001               197.3308               881.1777

                     76                     77                     78
                      A                      A                      A
 Frequencies --   2363.0191              3027.3988              3038.7253
 Red. masses --     12.5675                 1.0471                 1.0503
 Frc consts  --     41.3462                 5.6543                 5.7140
 IR Inten    --      3.6229                34.3360                67.1109

                     79                     80                     81
                      A                      A                      A
 Frequencies --   3070.7210              3108.3847              3129.4238
 Red. masses --      1.0671                 1.0890                 1.0857
 Frc consts  --      5.9286                 6.1996                 6.2647
 IR Inten    --     30.9677                23.3929                24.8766

                     82                     83                     84
                      A                      A                      A
 Frequencies --   3145.9249              3149.0090              3172.0812
 Red. masses --      1.1036                 1.0956                 1.0904
 Frc consts  --      6.4354                 6.4010                 6.4641
 IR Inten    --     17.3963                14.0113                50.2062

                     85                     86                     87
                      A                      A                      A
 Frequencies --   3183.8565              3266.1090              3275.0431
 Red. masses --      1.1036                 1.0910                 1.0901
 Frc consts  --      6.5916                 6.8567                 6.8887
 IR Inten    --      7.0833                 0.6581                 2.4420

                     88                     89                     90
                      A                      A                      A
 Frequencies --   3286.2553              3288.2556              3672.3319
 Red. masses --      1.0992                 1.1019                 1.0809
 Frc consts  --      6.9944                 7.0200                 8.5886
 IR Inten    --      1.4055                 0.6497                74.9604

 - Thermochemistry -
 -------------------
 Temperature   298.150 Kelvin.  Pressure   1.00000 Atm.
 Atom     1 has atomic number  6 and mass  12.00000

 Molecular mass:   242.12799 amu.
 Principal axes and moments of inertia in atomic units:
                           1         2         3
     Eigenvalues --  2632.043217055.822738663.20742
           X            0.99994  -0.00435   0.00964
           Y            0.00455   0.99976  -0.02131
           Z           -0.00954   0.02136   0.99973
 This molecule is an asymmetric top.
 Rotational symmetry number  1.
 Warning -- assumption of classical behavior for rotation
           may cause significant error
 Rotational temperatures (Kelvin)      0.03291     0.01228     0.01000
 Rotational constants (GHZ):           0.68568     0.25578     0.20832
 Zero-point vibrational energy     677961.9 (Joules/Mol)
                                  162.03677 (Kcal/Mol)
 Warning -- explicit consideration of  24 degrees of freedom as
           vibrations may cause significant error
 Vibrational temperatures:     34.35    42.71    46.95    73.98    82.77
          (Kelvin)            102.40   141.33   174.50   231.21   261.40
                              298.22   316.84   406.12   425.68   466.99
                              519.86   551.82   583.34   593.81   655.40
                              666.72   699.66   751.01   811.70   905.21
                              928.32   976.56  1009.54  1020.05  1043.26
                             1113.61  1134.44  1181.55  1192.81  1218.29
                             1293.19  1304.99  1319.72  1397.49  1426.91
                             1437.96  1445.94  1501.41  1548.61  1579.75
                             1647.16  1657.12  1666.92  1678.60  1682.85
                             1704.91  1804.28  1826.75  1850.27  1888.15
                             1924.73  1966.85  1994.53  2008.48  2033.15
                             2040.25  2094.18  2124.00  2127.04  2130.46
                             2173.77  2180.50  2194.48  2206.12  2214.09
                             2228.06  2248.12  2282.99  2335.64  2370.82
                             3399.86  4355.75  4372.05  4418.08  4472.27
                             4502.54  4526.28  4530.72  4563.92  4580.86
                             4699.20  4712.06  4728.19  4731.07  5283.67

 Zero-point correction=                           0.258222 (Hartree/Particle)
 Thermal correction to Energy=                    0.275305
 Thermal correction to Enthalpy=                  0.276250
 Thermal correction to Gibbs Free Energy=         0.210341
 Sum of electronic and zero-point Energies=           -793.990697
 Sum of electronic and thermal Energies=              -793.973614
 Sum of electronic and thermal Enthalpies=            -793.972670
 Sum of electronic and thermal Free Energies=         -794.038579

                     E (Thermal)             CV                S
                      KCal/Mol        Cal/Mol-Kelvin    Cal/Mol-Kelvin
 Total                  172.757             62.276            138.717
 Electronic               0.000              0.000              0.000
 Translational            0.889              2.981             42.354
 Rotational               0.889              2.981             33.442
 Vibrational            170.979             56.314             62.922
 Vibration     1          0.593              1.985              6.283
 Vibration     2          0.593              1.984              5.850
 Vibration     3          0.594              1.983              5.663
 Vibration     4          0.596              1.977              4.762
 Vibration     5          0.596              1.974              4.540
 Vibration     6          0.598              1.968              4.121
 Vibration     7          0.604              1.950              3.489
 Vibration     8          0.609              1.931              3.080
 Vibration     9          0.622              1.891              2.542
 Vibration    10          0.630              1.865              2.311
 Vibration    11          0.641              1.829              2.068
 Vibration    12          0.647              1.810              1.957
 Vibration    13          0.681              1.706              1.520
 Vibration    14          0.690              1.681              1.440
 Vibration    15          0.709              1.626              1.287
 Vibration    16          0.735              1.552              1.116
 Vibration    17          0.753              1.505              1.025
 Vibration    18          0.770              1.458              0.943
 Vibration    19          0.776              1.443              0.917
 Vibration    20          0.814              1.349              0.779
 Vibration    21          0.821              1.331              0.756
 Vibration    22          0.842              1.280              0.693
 Vibration    23          0.877              1.201              0.605
 Vibration    24          0.920              1.109              0.516

 Optimization completed.
    -- Stationary point found.
 Normal termination of Gaussian 16 at Fri Dec 11 20:54:54 2020.

 ----------------------------------------------------------------------
 # B3LYP/6-311++G(d,p) empiricaldispersion=gd3bj scf=xqc pop=npa geom=c
 heck
 ----------------------------------------------------------------------

 ---------------------------------------
 CID_115266197_JID_8655_Energie_neutraal
 ---------------------------------------
 Structure from the checkpoint file:  "JID_8655.chk"
 Charge =  0 Multiplicity = 1

 SCF Done:  E(RB3LYP) =  -794.463184251     A.U. after   16 cycles
 Normal termination of Gaussian 16 at Fri Dec 11 20:59:55 2020.

 ----------------------------------------------------------------------
 # B3LYP/6-311++G(d,p) empiricaldispersion=gd3bj scf=xqc pop=npa geom=c
 heck
 ----------------------------------------------------------------------

 -------------------------------------
 CID_115266197_JID_8655_Energie_kation
 -------------------------------------
 Structure from the checkpoint file:  "JID_8655.chk"
 Charge =  1 Multiplicity = 2

 SCF Done:  E(UB3LYP) =  -794.182616978     A.U. after   31 cycles
 Normal termination of Gaussian 16 at Fri Dec 11 21:13:46 2020.
 Gaussian 16:  ES64L-G16RevA.03 25-Dec-2016

 ----------------------------------------------------------------------
 # B3LYP/6-311++G(d,p) empiricaldispersion=gd3bj scf=xqc pop=npa geom=c
 heck
 ----------------------------------------------------------------------

 ------------------------------------
 CID_115266197_JID_8655_Energie_anion
 ------------------------------------
 Structure from the checkpoint file:  "JID_8655.chk"
 Charge = -1 Multiplicity = 2

                         Standard orientation:
 ---------------------------------------------------------------------
 Center     Atomic      Atomic             Coordinates (Angstroms)
 Number     Number       Type             X           Y           Z
 ---------------------------------------------------------------------
      1          6           0        1.986628   -1.997699    0.899973
      2          7           0        2.434320   -0.616704    0.833512
      3          6           0        3.844679   -0.401290    0.561600
      4          6           0        4.244027   -0.898333   -0.772387
      5          7           0        4.517348   -1.324464   -1.816828
      6          6           0        1.537191    0.384404    0.489084
      7          6           0        0.167960    0.140153    0.374105
      8          6           0       -0.650848    1.243523    0.066759
      9          7           0       -0.134246    2.479171   -0.118005
     10          6           0        1.186334    2.576866    0.011393
     11          7           0        2.060931    1.617605    0.297148
     12          7           0       -2.013412    1.117860   -0.050409
     13          6           0       -2.816754    2.262610   -0.481366
     14          6           0       -2.614080   -0.165731   -0.094635
     15          6           0       -3.354876   -0.738376    0.921360
     16          7           0       -3.783861   -1.963619    0.475054
     17          6           0       -3.326038   -2.187558   -0.804557
     18          6           0       -2.595945   -1.085692   -1.189295
     19          1           0        2.802641   -2.611818    1.288588
     20          1           0        1.689666   -2.393940   -0.081791
     21          1           0        1.140625   -2.085396    1.587113
     22          1           0        4.037798    0.671510    0.616415
     23          1           0        4.448274   -0.912613    1.319965
     24          1           0       -0.262558   -0.841913    0.492721
     25          1           0        1.606081    3.570179   -0.142327
     26          1           0       -2.774343    2.403014   -1.569999
     27          1           0       -3.852015    2.078549   -0.187989
     28          1           0       -2.445532    3.169807   -0.005469
     29          1           0       -3.598528   -0.367386    1.905440
     30          1           0       -4.354241   -2.603279    1.005504
     31          1           0       -3.559915   -3.102862   -1.327734
     32          1           0       -2.095186   -0.940062   -2.135934
 ---------------------------------------------------------------------

 SCF Done:  E(UB3LYP) =  -794.459435484     A.U. after   33 cycles
 SCF Done:  E(UB3LYP) =  -794.459435484     a.u. after    1 cycles

 The electronic state is 2-A.
 Alpha  occ. eigenvalues --  -14.26670 -14.26480 -14.25692 -14.23575 -14.21545
 Alpha  occ. eigenvalues --  -14.21249 -10.16771 -10.16551 -10.16361 -10.14950
 Alpha  occ. eigenvalues --  -10.13241 -10.11959 -10.11170 -10.10402 -10.10361
 Alpha  occ. eigenvalues --  -10.10314 -10.08124 -10.06981  -0.91641  -0.89455
 Alpha  occ. eigenvalues --   -0.88295  -0.85329  -0.82792  -0.78256  -0.70607
 Alpha  occ. eigenvalues --   -0.68502  -0.67273  -0.63925  -0.62928  -0.60172
 Alpha  occ. eigenvalues --   -0.56938  -0.52935  -0.49921  -0.49177  -0.46161
 Alpha  occ. eigenvalues --   -0.45664  -0.44202  -0.43541  -0.40454  -0.39266
 Alpha  occ. eigenvalues --   -0.37629  -0.37452  -0.35759  -0.35504  -0.34641
 Alpha  occ. eigenvalues --   -0.33897  -0.33776  -0.32770  -0.32470  -0.31728
 Alpha  occ. eigenvalues --   -0.31434  -0.30834  -0.30475  -0.29208  -0.26222
 Alpha  occ. eigenvalues --   -0.25603  -0.25386  -0.22285  -0.21058  -0.17624
 Alpha  occ. eigenvalues --   -0.16243  -0.15191  -0.13383  -0.13000   0.03585
 Alpha virt. eigenvalues --    0.05240   0.06508   0.06855   0.07357   0.07617
 Alpha virt. eigenvalues --    0.07881   0.08312   0.09112   0.09269   0.09701
 Alpha virt. eigenvalues --    0.10020   0.10409   0.10802   0.10937   0.11702

  Beta  occ. eigenvalues --  -14.26669 -14.26410 -14.25690 -14.23569 -14.21546
  Beta  occ. eigenvalues --  -14.21247 -10.16766 -10.16551 -10.16334 -10.14941
  Beta  occ. eigenvalues --  -10.13239 -10.11925 -10.11165 -10.10400 -10.10344
  Beta  occ. eigenvalues --  -10.10298 -10.08116 -10.06979  -0.91631  -0.89421
  Beta  occ. eigenvalues --   -0.88247  -0.85315  -0.82778  -0.78248  -0.70584
  Beta  occ. eigenvalues --   -0.68435  -0.67239  -0.63888  -0.62895  -0.60149
  Beta  occ. eigenvalues --   -0.56903  -0.52898  -0.49837  -0.49154  -0.46087
  Beta  occ. eigenvalues --   -0.45639  -0.44168  -0.43511  -0.40424  -0.39233
  Beta  occ. eigenvalues --   -0.37608  -0.37433  -0.35738  -0.35472  -0.34614
  Beta  occ. eigenvalues --   -0.33861  -0.33716  -0.32743  -0.32445  -0.31690
  Beta  occ. eigenvalues --   -0.31397  -0.30819  -0.30457  -0.29199  -0.26210
  Beta  occ. eigenvalues --   -0.25585  -0.25362  -0.22256  -0.21052  -0.17619
  Beta  occ. eigenvalues --   -0.16215  -0.15174  -0.13365  -0.12986
  Beta virt. eigenvalues --    0.05846   0.06578   0.06607   0.07259   0.07461
  Beta virt. eigenvalues --    0.08123   0.08307   0.08634   0.09239   0.09519
  Beta virt. eigenvalues --    0.10140   0.10280   0.10460   0.10815   0.11150

 Mulliken charges and spin densities:
               1          2
     1  C    0.288108  -0.703607
     2  N    0.193485   0.062230
     3  C   -0.240329  -0.190573
     4  C    0.502885  -0.237011
     5  N   -0.350232   0.011492
     6  C   -0.954051   0.992239
     7  C   -0.306716   0.436059
     8  C    0.649449  -1.298527
     9  N   -0.147336  -0.004639
    10  C    0.103703   0.012605
    11  N   -0.220634  -0.003958
    12  N    0.249147   0.042062
    13  C    0.013262  -0.230483
    14  C    0.658954  -2.315372
    15  C   -0.538488   0.905061
    16  N    0.252246  -0.344075
    17  C    0.669491  -1.253292
    18  C   -0.797814   1.377242
    19  H   -0.375085   0.537909
    20  H    0.123433   0.069895
    21  H   -0.347952   0.508754
    22  H    0.197991   0.032276
    23  H   -0.247691   0.456902
    24  H    0.724559  -0.477471
    25  H    0.156561   0.038216
    26  H    0.131849   0.019405
    27  H    0.095043   0.054284
    28  H    0.163139   0.022441
    29  H   -0.490653   0.658197
    30  H   -0.751658   1.113507
    31  H   -0.408825   0.555290
    32  H    0.004157   0.152941
 Sum of Mulliken charges =  -1.00000   1.00000

 Dipole moment (field-independent basis, Debye):
    X=              3.3130    Y=              7.9307    Z=             -1.8889  Tot=              8.8000
 Quadrupole moment (field-independent basis, Debye-Ang):
   XX=           -204.2828   YY=           -160.3860   ZZ=           -143.1302
   XY=            -17.7441   XZ=             18.8721   YZ=              7.4246

 Summary of Natural Population Analysis:

                                       Natural Population
                Natural  -----------------------------------------------
    Atom  No    Charge         Core      Valence    Rydberg      Total
 -----------------------------------------------------------------------
      C    1   -0.18118      0.99964     2.17298    0.00856     3.18118
      N    2   -0.24321      0.99965     2.73188    0.01168     3.74321
      C    3   -0.14127      0.99952     2.13107    0.01068     3.14127
      C    4    0.15169      0.99965     1.83227    0.01639     2.84831
      N    5   -0.18053      0.99979     2.66963    0.01111     3.68053
      C    6    0.21963      0.99951     1.76611    0.01475     2.78037
      C    7   -0.18750      0.99948     2.18121    0.00682     3.18750
      C    8    0.23077      0.99952     1.75528    0.01442     2.76923
      N    9   -0.28874      0.99968     2.78004    0.00903     3.78874
      C   10    0.15827      0.99967     1.82342    0.01863     2.84173
      N   11   -0.29624      0.99967     2.78679    0.00978     3.79624
      N   12   -0.23910      0.99960     2.72879    0.01071     3.73910
      C   13   -0.17148      0.99964     2.16558    0.00627     3.17148
      C   14    0.02473      0.99947     1.96165    0.01415     2.97527
      C   15   -0.01566      0.99949     2.00210    0.01407     3.01566
      N   16   -0.25675      0.99970     2.74525    0.01180     3.75675
      C   17   -0.01518      0.99957     2.00138    0.01423     3.01518
      C   18   -0.15185      0.99951     2.14343    0.00891     3.15185
      H   19    0.10152      0.00000     0.39697    0.00151     0.39848
      H   20    0.09667      0.00000     0.40200    0.00134     0.40333
      H   21    0.10588      0.00000     0.39282    0.00129     0.39412
      H   22    0.13739      0.00000     0.36066    0.00195     0.36261
      H   23    0.11589      0.00000     0.38257    0.00154     0.38411
      H   24    0.12108      0.00000     0.37705    0.00187     0.37892
      H   25    0.08063      0.00000     0.41840    0.00097     0.41937
      H   26    0.08955      0.00000     0.40900    0.00145     0.41045
      H   27    0.09841      0.00000     0.40071    0.00089     0.40159
      H   28    0.10663      0.00000     0.39210    0.00127     0.39337
      H   29    0.10544      0.00000     0.39297    0.00160     0.39456
      H   30    0.21439      0.00000     0.24087    0.04474     0.28561
      H   31    0.10318      0.00000     0.39542    0.00140     0.39682
      H   32    0.10697      0.00000     0.39216    0.00087     0.39303
 =======================================================================
   * Total *   -0.00000     17.99276    45.73256    0.27468    64.00000

 Normal termination of Gaussian 16 at Fri Dec 11 21:27:50 2020.
