 Gaussian 16, Revision A.03,

 -----------------------------------------------------------
 # opt freq B3LYP/6-31G(d) empiricaldispersion=gd3bj scf=xqc
 -----------------------------------------------------------

 ------------------------------
 CID_80630480_JID_7054_neutraal
 ------------------------------
 Symbolic Z-matrix:
 Charge =  0 Multiplicity = 1

 SCF Done:  E(RB3LYP) =  -747.557744414     A.U. after   14 cycles
 SCF Done:  E(RB3LYP) =  -747.563761363     A.U. after   12 cycles
 SCF Done:  E(RB3LYP) =  -747.564893599     A.U. after   11 cycles
 SCF Done:  E(RB3LYP) =  -747.565600532     A.U. after   12 cycles
 SCF Done:  E(RB3LYP) =  -747.565915425     A.U. after   11 cycles
 SCF Done:  E(RB3LYP) =  -747.566055787     A.U. after   11 cycles
 SCF Done:  E(RB3LYP) =  -747.566107213     A.U. after   10 cycles
 SCF Done:  E(RB3LYP) =  -747.566222702     A.U. after   11 cycles
 SCF Done:  E(RB3LYP) =  -747.566292136     A.U. after   10 cycles
 SCF Done:  E(RB3LYP) =  -747.566305709     A.U. after   11 cycles
 SCF Done:  E(RB3LYP) =  -747.566334722     A.U. after   10 cycles
 SCF Done:  E(RB3LYP) =  -747.566336996     A.U. after    9 cycles
 SCF Done:  E(RB3LYP) =  -747.566337278     A.U. after    7 cycles
 SCF Done:  E(RB3LYP) =  -747.566337338     A.U. after    7 cycles
 Optimization completed.
    -- Stationary point found.
 Normal termination of Gaussian 16 at Fri Dec 11 11:49:28 2020.

 --------------------------------------------------------------------
 #N Geom=AllCheck Guess=TCheck SCRF=Check GenChk RB3LYP/6-31G(d) Freq
 --------------------------------------------------------------------

 Structure from the checkpoint file:  "JID_7054.chk"
 ------------------------------
 CID_80630480_JID_7054_neutraal
 ------------------------------
 Charge =  0 Multiplicity = 1

 SCF Done:  E(RB3LYP) =  -747.566337338     A.U. after    1 cycles

  Exact polarizability: 218.899   0.135 151.301  -9.499  -8.651 116.112
 Approx polarizability: 274.580  -4.289 240.061 -19.575 -23.432 177.073

                      1                      2                      3
                      A                      A                      A
 Frequencies --     30.9938                51.2148                56.8868
 Red. masses --      3.9577                 2.7526                 3.6378
 Frc consts  --      0.0022                 0.0043                 0.0069
 IR Inten    --      0.6669                 2.2646                 0.3259

                      4                      5                      6
                      A                      A                      A
 Frequencies --     74.4627                91.5528               136.1455
 Red. masses --      3.3083                 2.8794                 2.7520
 Frc consts  --      0.0108                 0.0142                 0.0301
 IR Inten    --      0.4251                 0.4350                 1.0687

                      7                      8                      9
                      A                      A                      A
 Frequencies --    151.4083               177.5899               203.9232
 Red. masses --      2.6156                 3.0989                 2.4060
 Frc consts  --      0.0353                 0.0576                 0.0589
 IR Inten    --      1.3452                 0.4696                 9.4317

                     10                     11                     12
                      A                      A                      A
 Frequencies --    219.7579               225.8802               258.3472
 Red. masses --      1.3554                 1.1347                 2.1787
 Frc consts  --      0.0386                 0.0341                 0.0857
 IR Inten    --      3.3496                 1.0396                 4.9474

                     13                     14                     15
                      A                      A                      A
 Frequencies --    273.6666               284.3660               300.1606
 Red. masses --      2.4420                 2.7330                 2.0026
 Frc consts  --      0.1078                 0.1302                 0.1063
 IR Inten    --     27.9462                 1.5550                16.6576

                     16                     17                     18
                      A                      A                      A
 Frequencies --    318.3207               329.1060               370.9645
 Red. masses --      2.8495                 1.9155                 2.5922
 Frc consts  --      0.1701                 0.1222                 0.2102
 IR Inten    --      1.5089                13.6315                 0.5622

                     19                     20                     21
                      A                      A                      A
 Frequencies --    395.5565               427.7119               459.2993
 Red. masses --      3.2381                 4.0243                 2.7618
 Frc consts  --      0.2985                 0.4338                 0.3433
 IR Inten    --     21.1799                 5.1727                 0.4296

                     22                     23                     24
                      A                      A                      A
 Frequencies --    470.6710               522.2969               547.2570
 Red. masses --      3.4705                 3.9846                 3.3191
 Frc consts  --      0.4530                 0.6404                 0.5857
 IR Inten    --      2.5261                 0.3933                 8.5465

                     25                     26                     27
                      A                      A                      A
 Frequencies --    576.8956               589.6571               594.5345
 Red. masses --      3.5295                 3.2061                 2.7403
 Frc consts  --      0.6921                 0.6568                 0.5707
 IR Inten    --      2.1131                 7.1472                 9.8862

                     28                     29                     30
                      A                      A                      A
 Frequencies --    628.3654               729.2441               769.1551
 Red. masses --      3.3074                 5.6587                 2.1810
 Frc consts  --      0.7694                 1.7730                 0.7602
 IR Inten    --      9.3744                 0.7343                 3.7602

                     31                     32                     33
                      A                      A                      A
 Frequencies --    784.0196               792.4721               850.3246
 Red. masses --      3.2544                 1.9835                 2.5852
 Frc consts  --      1.1786                 0.7339                 1.1013
 IR Inten    --      4.3354                 1.7271                 1.5840

                     34                     35                     36
                      A                      A                      A
 Frequencies --    867.2923               905.0102               927.3190
 Red. masses --      1.2558                 2.5946                 1.5149
 Frc consts  --      0.5565                 1.2521                 0.7675
 IR Inten    --    107.6975                 0.1421                25.2460

                     37                     38                     39
                      A                      A                      A
 Frequencies --    932.1926               950.2550               967.3202
 Red. masses --      2.0291                 2.7795                 1.3683
 Frc consts  --      1.0389                 1.4788                 0.7543
 IR Inten    --      4.2130                28.9250                 1.3355

                     40                     41                     42
                      A                      A                      A
 Frequencies --    982.4159               986.0120              1013.3776
 Red. masses --      2.2840                 2.8078                 1.7178
 Frc consts  --      1.2988                 1.6084                 1.0393
 IR Inten    --     21.7151                 8.3951                14.6463

                     43                     44                     45
                      A                      A                      A
 Frequencies --   1026.8755              1029.9041              1037.5209
 Red. masses --      1.7553                 1.5999                 1.8675
 Frc consts  --      1.0905                 0.9999                 1.1844
 IR Inten    --     10.8346                 8.4238                14.5936

                     46                     47                     48
                      A                      A                      A
 Frequencies --   1077.9911              1086.0445              1112.3008
 Red. masses --      1.4888                 2.5862                 2.0463
 Frc consts  --      1.0194                 1.7973                 1.4916
 IR Inten    --      3.6032                 2.7175                 4.2845

                     49                     50                     51
                      A                      A                      A
 Frequencies --   1122.1951              1141.4514              1149.6884
 Red. masses --      2.4658                 2.8101                 2.8901
 Frc consts  --      1.8296                 2.1572                 2.2507
 IR Inten    --     21.5073                79.6381                62.1975

                     52                     53                     54
                      A                      A                      A
 Frequencies --   1168.9250              1182.5780              1188.7304
 Red. masses --      2.6113                 1.9350                 1.3322
 Frc consts  --      2.1022                 1.5944                 1.1091
 IR Inten    --     31.4507                14.8774                 5.8625

                     55                     56                     57
                      A                      A                      A
 Frequencies --   1205.4443              1253.4122              1262.3455
 Red. masses --      2.5357                 1.4442                 1.7798
 Frc consts  --      2.1709                 1.3368                 1.6710
 IR Inten    --      3.2249                 6.9223                14.6054

                     58                     59                     60
                      A                      A                      A
 Frequencies --   1281.8574              1299.6419              1308.4186
 Red. masses --      1.6881                 2.0529                 1.4005
 Frc consts  --      1.6343                 2.0430                 1.4126
 IR Inten    --    136.1114                14.3660                 8.1274

                     61                     62                     63
                      A                      A                      A
 Frequencies --   1315.7702              1322.5855              1338.2328
 Red. masses --      1.2968                 1.4750                 1.7512
 Frc consts  --      1.3227                 1.5202                 1.8477
 IR Inten    --      5.9654                 3.1071                 5.6502

                     64                     65                     66
                      A                      A                      A
 Frequencies --   1348.2704              1380.3867              1395.1363
 Red. masses --      1.4185                 1.5860                 1.4539
 Frc consts  --      1.5192                 1.7805                 1.6674
 IR Inten    --      3.6933                 4.6486                49.3793

                     67                     68                     69
                      A                      A                      A
 Frequencies --   1399.9723              1410.3130              1426.8851
 Red. masses --      1.5510                 1.4925                 1.3904
 Frc consts  --      1.7911                 1.7491                 1.6678
 IR Inten    --      5.0698                39.9519                47.4649

                     70                     71                     72
                      A                      A                      A
 Frequencies --   1433.8761              1438.8435              1443.1490
 Red. masses --      1.5905                 1.2780                 1.4721
 Frc consts  --      1.9267                 1.5588                 1.8064
 IR Inten    --      9.0443                 6.5427                 2.2785

                     73                     74                     75
                      A                      A                      A
 Frequencies --   1446.3927              1473.0304              1492.3915
 Red. masses --      1.3091                 2.7271                 2.0307
 Frc consts  --      1.6137                 3.4864                 2.6648
 IR Inten    --      4.6611               116.8054               131.5367

                     76                     77                     78
                      A                      A                      A
 Frequencies --   1508.2088              1509.2832              1514.6567
 Red. masses --      1.1031                 1.0822                 1.0740
 Frc consts  --      1.4784                 1.4525                 1.4518
 IR Inten    --     12.3939                 7.1104                13.0308

                     79                     80                     81
                      A                      A                      A
 Frequencies --   1519.2011              1526.3174              1532.6294
 Red. masses --      1.1277                 1.1973                 1.0720
 Frc consts  --      1.5334                 1.6435                 1.4837
 IR Inten    --      6.4208                 6.5552                12.3169

                     82                     83                     84
                      A                      A                      A
 Frequencies --   1537.0553              1540.2929              1542.7212
 Red. masses --      1.0889                 1.0896                 1.0918
 Frc consts  --      1.5158                 1.5231                 1.5310
 IR Inten    --      0.3410                30.4493                12.8007

                     85                     86                     87
                      A                      A                      A
 Frequencies --   1614.0891              1664.7850              1692.4051
 Red. masses --      6.2397                 4.9582                 1.1219
 Frc consts  --      9.5779                 8.0964                 1.8933
 IR Inten    --     37.1195                56.5768                23.2335

                     88                     89                     90
                      A                      A                      A
 Frequencies --   2950.8199              2966.4133              2996.4247
 Red. masses --      1.0740                 1.0818                 1.0713
 Frc consts  --      5.5100                 5.6087                 5.6673
 IR Inten    --     81.2317                27.7109                54.3400

                     91                     92                     93
                      A                      A                      A
 Frequencies --   3000.6901              3015.5268              3038.0697
 Red. masses --      1.0734                 1.0704                 1.0637
 Frc consts  --      5.6945                 5.7346                 5.7846
 IR Inten    --     50.6977                62.8714                37.5017

                     94                     95                     96
                      A                      A                      A
 Frequencies --   3038.4508              3045.4509              3059.2186
 Red. masses --      1.0642                 1.0627                 1.0369
 Frc consts  --      5.7886                 5.8073                 5.7175
 IR Inten    --     29.4115                37.0980                27.6898

                     97                     98                     99
                      A                      A                      A
 Frequencies --   3082.8327              3094.9060              3111.4992
 Red. masses --      1.1010                 1.0933                 1.0950
 Frc consts  --      6.1649                 6.1698                 6.2460
 IR Inten    --     16.2366                24.7756                48.1344

                    100                    101                    102
                      A                      A                      A
 Frequencies --   3119.3593              3129.2728              3130.5631
 Red. masses --      1.1018                 1.1027                 1.0919
 Frc consts  --      6.3166                 6.3620                 6.3047
 IR Inten    --     55.9892                12.4493                18.3973

                    103                    104                    105
                      A                      A                      A
 Frequencies --   3142.1683              3147.1051              3161.1345
 Red. masses --      1.1018                 1.0887                 1.0899
 Frc consts  --      6.4094                 6.3528                 6.4172
 IR Inten    --     18.9812                18.6922                23.0395

                    106                    107                    108
                      A                      A                      A
 Frequencies --   3197.6150              3468.5761              3557.7480
 Red. masses --      1.0906                 1.0495                 1.0931
 Frc consts  --      6.5698                 7.4396                 8.1518
 IR Inten    --     12.0271                 3.2562                 1.2266

 - Thermochemistry -
 -------------------
 Temperature   298.150 Kelvin.  Pressure   1.00000 Atm.
 Atom     1 has atomic number  6 and mass  12.00000

 Molecular mass:   235.16846 amu.
 Principal axes and moments of inertia in atomic units:
                           1         2         3
     Eigenvalues --  1648.607738430.414159043.66021
           X            0.99998   0.00370   0.00561
           Y           -0.00368   0.99999  -0.00374
           Z           -0.00562   0.00372   0.99998
 This molecule is an asymmetric top.
 Rotational symmetry number  1.
 Warning -- assumption of classical behavior for rotation
           may cause significant error
 Rotational temperatures (Kelvin)      0.05254     0.01027     0.00958
 Rotational constants (GHZ):           1.09471     0.21408     0.19956
 Zero-point vibrational energy     881524.9 (Joules/Mol)
                                  210.68951 (Kcal/Mol)
 Warning -- explicit consideration of  27 degrees of freedom as
           vibrations may cause significant error
 Vibrational temperatures:     44.59    73.69    81.85   107.14   131.72
          (Kelvin)            195.88   217.84   255.51   293.40   316.18
                              324.99   371.70   393.75   409.14   431.86
                              457.99   473.51   533.74   569.12   615.38
                              660.83   677.19   751.47   787.38   830.02
                              848.38   855.40   904.08  1049.22  1106.64
                             1128.03  1140.19  1223.43  1247.84  1302.11
                             1334.21  1341.22  1367.21  1391.76  1413.48
                             1418.65  1458.02  1477.44  1481.80  1492.76
                             1550.99  1562.58  1600.35  1614.59  1642.29
                             1654.15  1681.82  1701.47  1710.32  1734.37
                             1803.38  1816.23  1844.31  1869.89  1882.52
                             1893.10  1902.91  1925.42  1939.86  1986.07
                             2007.29  2014.25  2029.13  2052.97  2063.03
                             2070.17  2076.37  2081.04  2119.36  2147.22
                             2169.98  2171.52  2179.25  2185.79  2196.03
                             2205.11  2211.48  2216.14  2219.63  2322.31
                             2395.25  2434.99  4245.57  4268.01  4311.19
                             4317.32  4338.67  4371.10  4371.65  4381.72
                             4401.53  4435.51  4452.88  4476.75  4488.06
                             4502.33  4504.18  4520.88  4527.98  4548.17
                             4600.65  4990.51  5118.81

 Zero-point correction=                           0.335755 (Hartree/Particle)
 Thermal correction to Energy=                    0.352579
 Thermal correction to Enthalpy=                  0.353523
 Thermal correction to Gibbs Free Energy=         0.290957
 Sum of electronic and zero-point Energies=           -747.230582
 Sum of electronic and thermal Energies=              -747.213759
 Sum of electronic and thermal Enthalpies=            -747.212814
 Sum of electronic and thermal Free Energies=         -747.275380

                     E (Thermal)             CV                S
                      KCal/Mol        Cal/Mol-Kelvin    Cal/Mol-Kelvin
 Total                  221.246             64.605            131.681
 Electronic               0.000              0.000              0.000
 Translational            0.889              2.981             42.267
 Rotational               0.889              2.981             33.196
 Vibrational            219.469             58.643             56.217
 Vibration     1          0.594              1.984              5.765
 Vibration     2          0.595              1.977              4.770
 Vibration     3          0.596              1.975              4.562
 Vibration     4          0.599              1.966              4.032
 Vibration     5          0.602              1.955              3.627
 Vibration     6          0.614              1.917              2.857
 Vibration     7          0.619              1.901              2.654
 Vibration     8          0.628              1.870              2.354
 Vibration     9          0.640              1.834              2.097
 Vibration    10          0.647              1.811              1.961
 Vibration    11          0.650              1.802              1.911
 Vibration    12          0.667              1.749              1.673
 Vibration    13          0.676              1.722              1.573
 Vibration    14          0.683              1.703              1.507
 Vibration    15          0.693              1.673              1.416
 Vibration    16          0.705              1.639              1.319
 Vibration    17          0.712              1.617              1.264
 Vibration    18          0.743              1.532              1.076
 Vibration    19          0.762              1.480              0.979
 Vibration    20          0.789              1.410              0.866
 Vibration    21          0.817              1.340              0.768
 Vibration    22          0.828              1.315              0.736
 Vibration    23          0.877              1.201              0.605
 Vibration    24          0.902              1.146              0.550
 Vibration    25          0.933              1.081              0.491
 Vibration    26          0.947              1.054              0.468
 Vibration    27          0.952              1.043              0.459

 Optimization completed.
    -- Stationary point found.
 Normal termination of Gaussian 16 at Fri Dec 11 12:03:18 2020.

 ----------------------------------------------------------------------
 # B3LYP/6-311++G(d,p) empiricaldispersion=gd3bj scf=xqc pop=npa geom=c
 heck
 ----------------------------------------------------------------------

 --------------------------------------
 CID_80630480_JID_7054_Energie_neutraal
 --------------------------------------
 Structure from the checkpoint file:  "JID_7054.chk"
 Charge =  0 Multiplicity = 1

 SCF Done:  E(RB3LYP) =  -747.774484863     A.U. after   14 cycles
 Normal termination of Gaussian 16 at Fri Dec 11 12:10:55 2020.

 ----------------------------------------------------------------------
 # B3LYP/6-311++G(d,p) empiricaldispersion=gd3bj scf=xqc pop=npa geom=c
 heck
 ----------------------------------------------------------------------

 ------------------------------------
 CID_80630480_JID_7054_Energie_kation
 ------------------------------------
 Structure from the checkpoint file:  "JID_7054.chk"
 Charge =  1 Multiplicity = 2

 SCF Done:  E(UB3LYP) =  -747.501774188     A.U. after   22 cycles
 Normal termination of Gaussian 16 at Fri Dec 11 12:23:47 2020.
 Gaussian 16:  ES64L-G16RevA.03 25-Dec-2016

 ----------------------------------------------------------------------
 # B3LYP/6-311++G(d,p) empiricaldispersion=gd3bj scf=xqc pop=npa geom=c
 heck
 ----------------------------------------------------------------------

 -----------------------------------
 CID_80630480_JID_7054_Energie_anion
 -----------------------------------
 Structure from the checkpoint file:  "JID_7054.chk"
 Charge = -1 Multiplicity = 2

                         Standard orientation:
 ---------------------------------------------------------------------
 Center     Atomic      Atomic             Coordinates (Angstroms)
 Number     Number       Type             X           Y           Z
 ---------------------------------------------------------------------
      1          6           0        4.401683    0.702895    1.861310
      2          6           0        4.168695    1.120204    0.405580
      3          6           0        3.084760    0.323567   -0.319674
      4          6           0        1.691498    0.463350    0.295949
      5          7           0        0.736556   -0.370840   -0.447537
      6          6           0        1.161894   -1.771426   -0.414513
      7          6           0        2.557725   -1.864868   -1.018607
      8          8           0        3.488165   -1.044061   -0.325027
      9          6           0       -0.630094   -0.130162   -0.198412
     10          7           0       -1.338846   -1.128201    0.343601
     11          6           0       -2.643369   -0.947646    0.574428
     12          6           0       -3.320053    0.240745    0.297823
     13          6           0       -2.575069    1.255639   -0.309249
     14          6           0       -1.219761    1.098655   -0.586411
     15          6           0       -0.461078    2.157743   -1.343307
     16          6           0       -4.785487    0.417358    0.623979
     17          7           0       -5.533543   -0.824284    0.401038
     18          1           0        3.538930    0.930561    2.496540
     19          1           0        5.266152    1.230088    2.279015
     20          1           0        4.592135   -0.372262    1.922883
     21          1           0        3.909320    2.185892    0.349515
     22          1           0        5.098246    0.991994   -0.161609
     23          1           0        3.017014    0.675860   -1.364066
     24          1           0        1.717211    0.153868    1.353251
     25          1           0        1.381771    1.508802    0.261298
     26          1           0        1.169325   -2.166720    0.612963
     27          1           0        0.454405   -2.371459   -0.991409
     28          1           0        2.939295   -2.887842   -0.949081
     29          1           0        2.518012   -1.571725   -2.080469
     30          1           0       -3.184797   -1.790398    0.996350
     31          1           0       -3.070147    2.179496   -0.605525
     32          1           0        0.042095    2.873719   -0.680156
     33          1           0        0.307768    1.699404   -1.973462
     34          1           0       -1.139794    2.734608   -1.980124
     35          1           0       -4.897407    0.672111    1.687241
     36          1           0       -5.167693    1.287939    0.060293
     37          1           0       -6.507895   -0.692970    0.665831
     38          1           0       -5.526489   -1.051538   -0.592151
 ---------------------------------------------------------------------

 SCF Done:  E(UB3LYP) =  -747.762644176     A.U. after   33 cycles
 SCF Done:  E(UB3LYP) =  -747.762644176     a.u. after    1 cycles

 The electronic state is 2-A.
 Alpha  occ. eigenvalues --  -19.04207 -14.23320 -14.20984 -14.19799 -10.14183
 Alpha  occ. eigenvalues --  -10.13643 -10.13457 -10.11187 -10.10869 -10.10289
 Alpha  occ. eigenvalues --  -10.10245 -10.09365 -10.08769 -10.08461 -10.08389
 Alpha  occ. eigenvalues --  -10.07603 -10.07548  -0.96044  -0.87773  -0.81997
 Alpha  occ. eigenvalues --   -0.78948  -0.72240  -0.71706  -0.68474  -0.65785
 Alpha  occ. eigenvalues --   -0.62641  -0.59563  -0.58008  -0.56563  -0.54251
 Alpha  occ. eigenvalues --   -0.51091  -0.48874  -0.47712  -0.44000  -0.41927
 Alpha  occ. eigenvalues --   -0.40607  -0.40250  -0.38819  -0.38324  -0.37043
 Alpha  occ. eigenvalues --   -0.35462  -0.34577  -0.33910  -0.33582  -0.33337
 Alpha  occ. eigenvalues --   -0.32479  -0.31899  -0.31197  -0.30708  -0.30015
 Alpha  occ. eigenvalues --   -0.29702  -0.28515  -0.28333  -0.27053  -0.25928
 Alpha  occ. eigenvalues --   -0.25585  -0.25248  -0.22919  -0.19488  -0.18373
 Alpha  occ. eigenvalues --   -0.17224  -0.16872  -0.14942  -0.12262   0.04004
 Alpha virt. eigenvalues --    0.05266   0.06405   0.06585   0.06933   0.07329
 Alpha virt. eigenvalues --    0.08116   0.08239   0.08647   0.09325   0.09577
 Alpha virt. eigenvalues --    0.09613   0.10151   0.10602   0.11431   0.11699

  Beta  occ. eigenvalues --  -19.04203 -14.23313 -14.20985 -14.19754 -10.14179
  Beta  occ. eigenvalues --  -10.13637 -10.13454 -10.11180 -10.10868 -10.10258
  Beta  occ. eigenvalues --  -10.10235 -10.09365 -10.08754 -10.08441 -10.08391
  Beta  occ. eigenvalues --  -10.07572 -10.07537  -0.96037  -0.87764  -0.81986
  Beta  occ. eigenvalues --   -0.78873  -0.72222  -0.71686  -0.68448  -0.65764
  Beta  occ. eigenvalues --   -0.62615  -0.59520  -0.57980  -0.56510  -0.54215
  Beta  occ. eigenvalues --   -0.51057  -0.48835  -0.47688  -0.43978  -0.41905
  Beta  occ. eigenvalues --   -0.40585  -0.40203  -0.38799  -0.38307  -0.37018
  Beta  occ. eigenvalues --   -0.35433  -0.34542  -0.33881  -0.33532  -0.33289
  Beta  occ. eigenvalues --   -0.32461  -0.31877  -0.31162  -0.30683  -0.29982
  Beta  occ. eigenvalues --   -0.29673  -0.28494  -0.28312  -0.27027  -0.25901
  Beta  occ. eigenvalues --   -0.25560  -0.25228  -0.22905  -0.19467  -0.18356
  Beta  occ. eigenvalues --   -0.17206  -0.16856  -0.14899  -0.12236
  Beta virt. eigenvalues --    0.05877   0.06475   0.06558   0.06922   0.07133
  Beta virt. eigenvalues --    0.07630   0.08417   0.08799   0.08967   0.09458
  Beta virt. eigenvalues --    0.09767   0.09838   0.10467   0.10989   0.11640

 Mulliken charges and spin densities:
               1          2
     1  C   -0.091335  -0.497356
     2  C    0.165082  -0.527184
     3  C   -0.492046   0.652997
     4  C   -0.234179  -0.510672
     5  N    0.397950   0.058182
     6  C   -0.075683   0.099644
     7  C   -0.278716  -0.145959
     8  O   -0.083615   0.011888
     9  C   -1.006287  -0.407371
    10  N   -0.016066   0.031138
    11  C   -0.848743   0.458793
    12  C   -1.127619   1.576515
    13  C    0.023831   0.163715
    14  C    1.028838  -0.376451
    15  C    0.632385  -1.213582
    16  C    2.218055  -2.800906
    17  N   -0.469401   0.118695
    18  H   -0.045788   0.173143
    19  H   -0.063932   0.207643
    20  H    0.158325   0.005797
    21  H   -0.285877   0.421318
    22  H   -0.113616   0.295931
    23  H   -0.045544   0.219811
    24  H    0.208272  -0.031497
    25  H    0.596014  -0.480775
    26  H    0.187245  -0.017455
    27  H    0.097834   0.066198
    28  H    0.138454   0.034687
    29  H    0.074759   0.054145
    30  H    0.186475   0.036458
    31  H   -0.130116   0.301459
    32  H   -0.405928   0.585797
    33  H    0.071775   0.101225
    34  H   -0.326015   0.486621
    35  H   -0.083212   0.247707
    36  H   -0.759821   0.945046
    37  H   -0.188150   0.434500
    38  H   -0.013605   0.220156
 Sum of Mulliken charges =  -1.00000   1.00000

 Dipole moment (field-independent basis, Debye):
    X=              7.1976    Y=             -4.3282    Z=              0.1278  Tot=              8.3997
 Quadrupole moment (field-independent basis, Debye-Ang):
   XX=           -237.7461   YY=           -148.2780   ZZ=           -133.7764
   XY=             -4.9587   XZ=             -0.7199   YZ=              5.8630

 Summary of Natural Population Analysis:

                                       Natural Population
                Natural  -----------------------------------------------
    Atom  No    Charge         Core      Valence    Rydberg      Total
 -----------------------------------------------------------------------
      C    1   -0.29023      0.99966     2.28439    0.00618     3.29023
      C    2   -0.19650      0.99961     2.18734    0.00955     3.19650
      C    3    0.06164      0.99954     1.92264    0.01618     2.93836
      C    4   -0.09661      0.99957     2.08607    0.01097     3.09661
      N    5   -0.27197      0.99966     2.76113    0.01117     3.77197
      C    6   -0.09856      0.99962     2.08924    0.00970     3.09856
      C    7   -0.01110      0.99957     2.00015    0.01138     3.01110
      O    8   -0.30517      0.99988     3.29641    0.00888     4.30517
      C    9    0.20107      0.99946     1.78402    0.01544     2.79893
      N   10   -0.25184      0.99967     2.74311    0.00906     3.75184
      C   11    0.03387      0.99953     1.95384    0.01277     2.96613
      C   12   -0.04678      0.99950     2.03670    0.01058     3.04678
      C   13   -0.07580      0.99948     2.06610    0.01023     3.07580
      C   14   -0.03784      0.99947     2.02891    0.00946     3.03784
      C   15   -0.29733      0.99964     2.29139    0.00630     3.29733
      C   16   -0.09326      0.99960     2.08121    0.01245     3.09326
      N   17   -0.42141      0.99978     2.91098    0.01066     3.92141
      H   18    0.09599      0.00000     0.40322    0.00078     0.40401
      H   19    0.09827      0.00000     0.40097    0.00076     0.40173
      H   20    0.10317      0.00000     0.39581    0.00102     0.39683
      H   21    0.10104      0.00000     0.39756    0.00140     0.39896
      H   22    0.10001      0.00000     0.39875    0.00124     0.39999
      H   23    0.08406      0.00000     0.41402    0.00192     0.41594
      H   24    0.08822      0.00000     0.41039    0.00139     0.41178
      H   25    0.10665      0.00000     0.39184    0.00151     0.39335
      H   26    0.09119      0.00000     0.40732    0.00149     0.40881
      H   27    0.10808      0.00000     0.39074    0.00118     0.39192
      H   28    0.08922      0.00000     0.40978    0.00100     0.41078
      H   29    0.07922      0.00000     0.41920    0.00158     0.42078
      H   30    0.09880      0.00000     0.39968    0.00153     0.40120
      H   31    0.10175      0.00000     0.39678    0.00146     0.39825
      H   32    0.10477      0.00000     0.39382    0.00141     0.39523
      H   33    0.10809      0.00000     0.39010    0.00181     0.39191
      H   34    0.10564      0.00000     0.39323    0.00113     0.39436
      H   35    0.09548      0.00000     0.40322    0.00130     0.40452
      H   36    0.08533      0.00000     0.41133    0.00334     0.41467
      H   37    0.17891      0.00000     0.31756    0.00353     0.32109
      H   38    0.17393      0.00000     0.32389    0.00218     0.32607
 =======================================================================
   * Total *   -0.00000     16.99325    46.79283    0.21392    64.00000

 Normal termination of Gaussian 16 at Fri Dec 11 12:48:01 2020.
