 Gaussian 16, Revision A.03,

 -----------------------------------------------------------
 # opt freq B3LYP/6-31G(d) empiricaldispersion=gd3bj scf=xqc
 -----------------------------------------------------------

 -------------------------------
 CID_11832856_JID_10657_neutraal
 -------------------------------
 Symbolic Z-matrix:
 Charge =  0 Multiplicity = 1

 SCF Done:  E(RB3LYP) =  -1150.36905050     A.U. after   14 cycles
 SCF Done:  E(RB3LYP) =  -1150.37201010     A.U. after   13 cycles
 SCF Done:  E(RB3LYP) =  -1150.37254834     A.U. after   12 cycles
 SCF Done:  E(RB3LYP) =  -1150.37282705     A.U. after   12 cycles
 SCF Done:  E(RB3LYP) =  -1150.37300890     A.U. after   12 cycles
 SCF Done:  E(RB3LYP) =  -1150.37315140     A.U. after   11 cycles
 SCF Done:  E(RB3LYP) =  -1150.37333650     A.U. after   12 cycles
 SCF Done:  E(RB3LYP) =  -1150.37351534     A.U. after   12 cycles
 SCF Done:  E(RB3LYP) =  -1150.37355474     A.U. after   12 cycles
 SCF Done:  E(RB3LYP) =  -1150.37363788     A.U. after   11 cycles
 SCF Done:  E(RB3LYP) =  -1150.37503939     A.U. after   11 cycles
 SCF Done:  E(RB3LYP) =  -1150.37505735     A.U. after   11 cycles
 SCF Done:  E(RB3LYP) =  -1150.37504869     A.U. after   11 cycles
 SCF Done:  E(RB3LYP) =  -1150.37505742     A.U. after   11 cycles
 SCF Done:  E(RB3LYP) =  -1150.37505743     A.U. after    7 cycles
 Optimization completed.
    -- Stationary point found.
 Normal termination of Gaussian 16 at Sat Dec 12 16:51:30 2020.

 --------------------------------------------------------------------
 #N Geom=AllCheck Guess=TCheck SCRF=Check GenChk RB3LYP/6-31G(d) Freq
 --------------------------------------------------------------------

 Structure from the checkpoint file:  "JID_10657.chk"
 -------------------------------
 CID_11832856_JID_10657_neutraal
 -------------------------------
 Charge =  0 Multiplicity = 1

 SCF Done:  E(RB3LYP) =  -1150.37505743     A.U. after    1 cycles

  Exact polarizability: 206.191  36.186 200.877 -14.057  -4.364 222.574
 Approx polarizability: 288.949  76.918 313.550 -30.056 -10.692 377.509

                      1                      2                      3
                      A                      A                      A
 Frequencies --     20.1375                30.2992                34.2285
 Red. masses --      5.2125                 4.1559                 4.8245
 Frc consts  --      0.0012                 0.0022                 0.0033
 IR Inten    --      0.1332                 0.0567                 0.7103

                      4                      5                      6
                      A                      A                      A
 Frequencies --     36.7073                44.0985                65.5918
 Red. masses --      4.5119                 4.0966                 3.8822
 Frc consts  --      0.0036                 0.0047                 0.0098
 IR Inten    --      0.8519                 0.1759                 0.1761

                      7                      8                      9
                      A                      A                      A
 Frequencies --     92.1098               111.8000               145.0518
 Red. masses --      4.3252                 2.0052                 2.5947
 Frc consts  --      0.0216                 0.0148                 0.0322
 IR Inten    --      0.5679                 0.4698                 1.5210

                     10                     11                     12
                      A                      A                      A
 Frequencies --    166.9006               185.2434               211.5947
 Red. masses --      3.7132                 4.6374                 1.4671
 Frc consts  --      0.0609                 0.0938                 0.0387
 IR Inten    --      2.7699                 1.4754                 1.4803

                     13                     14                     15
                      A                      A                      A
 Frequencies --    224.8931               244.2760               267.2868
 Red. masses --      4.7264                 6.0260                 3.8157
 Frc consts  --      0.1408                 0.2119                 0.1606
 IR Inten    --      0.9227                 0.9479                 1.1991

                     16                     17                     18
                      A                      A                      A
 Frequencies --    297.9228               317.6501               350.4893
 Red. masses --      2.2184                 4.2052                 6.3367
 Frc consts  --      0.1160                 0.2500                 0.4586
 IR Inten    --      1.4004                 1.2436                 1.8951

                     19                     20                     21
                      A                      A                      A
 Frequencies --    410.5026               414.5181               419.5494
 Red. masses --      3.5907                 2.9648                 3.1089
 Frc consts  --      0.3565                 0.3001                 0.3224
 IR Inten    --      1.7845                 0.2232                 1.3268

                     22                     23                     24
                      A                      A                      A
 Frequencies --    464.2560               501.7500               528.5313
 Red. masses --      4.0098                 3.7150                 3.8461
 Frc consts  --      0.5092                 0.5510                 0.6330
 IR Inten    --      0.7999                 1.0953                10.4067

                     25                     26                     27
                      A                      A                      A
 Frequencies --    571.0827               599.8140               615.9276
 Red. masses --      2.7968                 3.3676                 4.0285
 Frc consts  --      0.5374                 0.7138                 0.9004
 IR Inten    --      3.0339                39.4142                 4.0968

                     28                     29                     30
                      A                      A                      A
 Frequencies --    627.8684               636.1349               647.7168
 Red. masses --      5.0165                 5.7884                 4.3911
 Frc consts  --      1.1652                 1.3801                 1.0854
 IR Inten    --      0.8210                 1.3960                 2.0469

                     31                     32                     33
                      A                      A                      A
 Frequencies --    691.1849               710.8675               716.6243
 Red. masses --      1.6676                 1.9245                 1.6775
 Frc consts  --      0.4694                 0.5730                 0.5076
 IR Inten    --     55.2804                15.5411                50.3490

                     34                     35                     36
                      A                      A                      A
 Frequencies --    743.6887               771.9953               785.0870
 Red. masses --      3.6955                 1.7964                 2.4842
 Frc consts  --      1.2042                 0.6308                 0.9021
 IR Inten    --     21.9689                 8.1642                15.4739

                     37                     38                     39
                      A                      A                      A
 Frequencies --    790.0265               806.5152               859.0084
 Red. masses --      2.7029                 1.6743                 1.2515
 Frc consts  --      0.9939                 0.6417                 0.5441
 IR Inten    --     18.9238                 0.7287                 0.0501

                     40                     41                     42
                      A                      A                      A
 Frequencies --    864.1941               911.6853               924.1763
 Red. masses --      1.2440                 1.8968                 1.4482
 Frc consts  --      0.5474                 0.9289                 0.7288
 IR Inten    --      4.5314                 1.2878                 1.4681

                     43                     44                     45
                      A                      A                      A
 Frequencies --    942.3741               967.9481               977.6051
 Red. masses --      1.3926                 1.3545                 1.3809
 Frc consts  --      0.7287                 0.7477                 0.7776
 IR Inten    --      8.4032                 0.0525                 6.0799

                     46                     47                     48
                      A                      A                      A
 Frequencies --    979.4252               996.0641               999.3854
 Red. masses --      1.5943                 1.2668                 1.2636
 Frc consts  --      0.9011                 0.7405                 0.7436
 IR Inten    --     17.1723                 0.6618                 1.5722

                     49                     50                     51
                      A                      A                      A
 Frequencies --   1012.3024              1017.5759              1022.6543
 Red. masses --      3.8349                 1.0997                 5.5462
 Frc consts  --      2.3154                 0.6709                 3.4174
 IR Inten    --     18.3330                36.0158                 0.5061

                     52                     53                     54
                      A                      A                      A
 Frequencies --   1023.1658              1050.7950              1059.4809
 Red. masses --      6.1484                 3.6989                 2.4378
 Frc consts  --      3.7923                 2.4064                 1.6122
 IR Inten    --      1.5344                10.8509                 2.3658

                     55                     56                     57
                      A                      A                      A
 Frequencies --   1066.4299              1080.3980              1097.0853
 Red. masses --      2.2620                 1.5385                 2.5852
 Frc consts  --      1.5157                 1.0580                 1.8333
 IR Inten    --      9.6551                 0.3302                15.4164

                     58                     59                     60
                      A                      A                      A
 Frequencies --   1102.2860              1119.4715              1124.6487
 Red. masses --      3.1172                 1.6174                 1.8805
 Frc consts  --      2.2315                 1.1942                 1.4013
 IR Inten    --      6.6019                 4.1402                 8.8463

                     61                     62                     63
                      A                      A                      A
 Frequencies --   1145.2175              1194.8124              1194.8876
 Red. masses --      2.0177                 1.0999                 1.0979
 Frc consts  --      1.5591                 0.9251                 0.9236
 IR Inten    --      2.1626                 0.0694                 0.2351

                     64                     65                     66
                      A                      A                      A
 Frequencies --   1215.8376              1217.3699              1220.3722
 Red. masses --      1.1909                 1.1501                 1.7070
 Frc consts  --      1.0372                 1.0042                 1.4979
 IR Inten    --      3.0793                 4.4163                10.3100

                     67                     68                     69
                      A                      A                      A
 Frequencies --   1231.4096              1241.8554              1315.7913
 Red. masses --      2.1010                 2.0565                 1.4040
 Frc consts  --      1.8770                 1.8687                 1.4321
 IR Inten    --     30.2933                84.9088                40.4467

                     70                     71                     72
                      A                      A                      A
 Frequencies --   1333.8687              1343.9416              1347.3502
 Red. masses --      2.1211                 1.6356                 1.8010
 Frc consts  --      2.2235                 1.7405                 1.9263
 IR Inten    --      5.6386                 1.2017                 5.9658

                     73                     74                     75
                      A                      A                      A
 Frequencies --   1361.4131              1369.0580              1370.1901
 Red. masses --      1.2632                 1.9006                 2.0876
 Frc consts  --      1.3794                 2.0988                 2.3092
 IR Inten    --      4.8123                 3.8267                 1.4864

                     76                     77                     78
                      A                      A                      A
 Frequencies --   1373.7501              1407.9025              1418.5699
 Red. masses --      1.3817                 2.9533                 1.5379
 Frc consts  --      1.5364                 3.4491                 1.8234
 IR Inten    --     17.7556               219.1664                17.0669

                     79                     80                     81
                      A                      A                      A
 Frequencies --   1442.9750              1490.4439              1505.3529
 Red. masses --      1.2637                 2.1493                 2.0974
 Frc consts  --      1.5503                 2.8130                 2.8003
 IR Inten    --      2.6857                 5.2385                 5.8004

                     82                     83                     84
                      A                      A                      A
 Frequencies --   1509.5458              1510.7933              1521.9292
 Red. masses --      1.0477                 1.1170                 1.0553
 Frc consts  --      1.4066                 1.5021                 1.4402
 IR Inten    --      6.3573                 2.6399                12.1944

                     85                     86                     87
                      A                      A                      A
 Frequencies --   1542.4640              1544.0578              1548.7660
 Red. masses --      1.9807                 1.9791                 2.2083
 Frc consts  --      2.7766                 2.7800                 3.1209
 IR Inten    --    254.1232               103.8167                17.3681

                     88                     89                     90
                      A                      A                      A
 Frequencies --   1637.8821              1649.0055              1661.2707
 Red. masses --      5.2920                 5.5305                 5.4956
 Frc consts  --      8.3644                 8.8605                 8.9361
 IR Inten    --      5.9500                 1.4842                 2.4845

                     91                     92                     93
                      A                      A                      A
 Frequencies --   1667.9910              1760.7626              3017.2069
 Red. masses --      5.5348                 5.7625                 1.0657
 Frc consts  --      9.0728                10.5259                 5.7158
 IR Inten    --      2.5301                 3.7759                23.7402

                     94                     95                     96
                      A                      A                      A
 Frequencies --   3033.9468              3081.0398              3085.3970
 Red. masses --      1.0373                 1.1001                 1.0952
 Frc consts  --      5.6256                 6.1526                 6.1426
 IR Inten    --     35.1163                22.3462                13.8178

                     97                     98                     99
                      A                      A                      A
 Frequencies --   3114.1617              3117.4366              3139.9967
 Red. masses --      1.0867                 1.0982                 1.0918
 Frc consts  --      6.2093                 6.2881                 6.3422
 IR Inten    --     11.3552                 6.3197                25.8485

                    100                    101                    102
                      A                      A                      A
 Frequencies --   3165.6604              3182.9041              3187.0435
 Red. masses --      1.0881                 1.0851                 1.0855
 Frc consts  --      6.4244                 6.4767                 6.4961
 IR Inten    --     24.2890                 4.2549                 0.1848

                    103                    104                    105
                      A                      A                      A
 Frequencies --   3188.4409              3196.3781              3198.3728
 Red. masses --      1.0870                 1.0906                 1.0897
 Frc consts  --      6.5110                 6.5652                 6.5678
 IR Inten    --      0.1651                14.5462                13.7899

                    106                    107                    108
                      A                      A                      A
 Frequencies --   3203.8652              3209.4727              3213.5824
 Red. masses --      1.0942                 1.0946                 1.0981
 Frc consts  --      6.6178                 6.6432                 6.6813
 IR Inten    --     30.9036                26.7698                19.5817

                    109                    110                    111
                      A                      A                      A
 Frequencies --   3224.4349              3231.1916              3560.0436
 Red. masses --      1.0938                 1.0927                 1.0757
 Frc consts  --      6.7001                 6.7218                 8.0322
 IR Inten    --      6.4973                 2.8987                22.0297

 - Thermochemistry -
 -------------------
 Temperature   298.150 Kelvin.  Pressure   1.00000 Atm.
 Atom     1 has atomic number  6 and mass  12.00000

 Molecular mass:   281.12382 amu.
 Principal axes and moments of inertia in atomic units:
                           1         2         3
     Eigenvalues --  5274.519728527.842619263.63919
           X            0.99963  -0.02640   0.00591
           Y            0.02602   0.99803   0.05707
           Z           -0.00741  -0.05690   0.99835
 This molecule is an asymmetric top.
 Rotational symmetry number  1.
 Warning -- assumption of classical behavior for rotation
           may cause significant error
 Rotational temperatures (Kelvin)      0.01642     0.01016     0.00935
 Rotational constants (GHZ):           0.34216     0.21163     0.19482
 Zero-point vibrational energy     856200.2 (Joules/Mol)
                                  204.63676 (Kcal/Mol)
 Warning -- explicit consideration of  27 degrees of freedom as
           vibrations may cause significant error
 Vibrational temperatures:     28.97    43.59    49.25    52.81    63.45
          (Kelvin)             94.37   132.53   160.86   208.70   240.13
                              266.52   304.44   323.57   351.46   384.57
                              428.64   457.03   504.28   590.62   596.40
                              603.64   667.96   721.91   760.44   821.66
                              863.00   886.18   903.36   915.26   931.92
                              994.46  1022.78  1031.06  1070.00  1110.73
                             1129.57  1136.67  1160.40  1235.92  1243.38
                             1311.71  1329.68  1355.87  1392.66  1406.56
                             1409.17  1433.11  1437.89  1456.48  1464.06
                             1471.37  1472.11  1511.86  1524.36  1534.35
                             1554.45  1578.46  1585.94  1610.67  1618.12
                             1647.71  1719.07  1719.18  1749.32  1751.52
                             1755.84  1771.72  1786.75  1893.13  1919.14
                             1933.63  1938.54  1958.77  1969.77  1971.40
                             1976.52  2025.66  2041.01  2076.12  2144.42
                             2165.87  2171.90  2173.69  2189.72  2219.26
                             2221.55  2228.33  2356.55  2372.55  2390.20
                             2399.87  2533.34  4341.09  4365.17  4432.93
                             4439.20  4480.58  4485.30  4517.75  4554.68
                             4579.49  4585.44  4587.46  4598.88  4601.75
                             4609.65  4617.72  4623.63  4639.24  4648.96
                             5122.11

 Zero-point correction=                           0.326109 (Hartree/Particle)
 Thermal correction to Energy=                    0.344933
 Thermal correction to Enthalpy=                  0.345877
 Thermal correction to Gibbs Free Energy=         0.275757
 Sum of electronic and zero-point Energies=          -1150.048948
 Sum of electronic and thermal Energies=             -1150.030125
 Sum of electronic and thermal Enthalpies=           -1150.029181
 Sum of electronic and thermal Free Energies=        -1150.099301

                     E (Thermal)             CV                S
                      KCal/Mol        Cal/Mol-Kelvin    Cal/Mol-Kelvin
 Total                  216.448             71.259            147.580
 Electronic               0.000              0.000              0.000
 Translational            0.889              2.981             42.799
 Rotational               0.889              2.981             34.387
 Vibrational            214.671             65.297             70.393
 Vibration     1          0.593              1.986              6.621
 Vibration     2          0.594              1.984              5.810
 Vibration     3          0.594              1.983              5.568
 Vibration     4          0.594              1.982              5.429
 Vibration     5          0.595              1.980              5.066
 Vibration     6          0.597              1.971              4.281
 Vibration     7          0.602              1.955              3.615
 Vibration     8          0.607              1.940              3.237
 Vibration     9          0.616              1.908              2.736
 Vibration    10          0.624              1.883              2.470
 Vibration    11          0.631              1.860              2.275
 Vibration    12          0.643              1.823              2.030
 Vibration    13          0.650              1.803              1.919
 Vibration    14          0.660              1.772              1.772
 Vibration    15          0.672              1.733              1.614
 Vibration    16          0.691              1.678              1.429
 Vibration    17          0.704              1.640              1.322
 Vibration    18          0.727              1.574              1.164
 Vibration    19          0.775              1.447              0.925
 Vibration    20          0.778              1.439              0.911
 Vibration    21          0.782              1.428              0.894
 Vibration    22          0.822              1.329              0.754
 Vibration    23          0.857              1.246              0.654
 Vibration    24          0.883              1.187              0.590
 Vibration    25          0.927              1.094              0.502
 Vibration    26          0.958              1.032              0.450
 Vibration    27          0.976              0.998              0.423

 Optimization completed.
    -- Stationary point found.
 Normal termination of Gaussian 16 at Sat Dec 12 17:12:56 2020.

 ----------------------------------------------------------------------
 # B3LYP/6-311++G(d,p) empiricaldispersion=gd3bj scf=xqc pop=npa geom=c
 heck
 ----------------------------------------------------------------------

 ---------------------------------------
 CID_11832856_JID_10657_Energie_neutraal
 ---------------------------------------
 Structure from the checkpoint file:  "JID_10657.chk"
 Charge =  0 Multiplicity = 1

 SCF Done:  E(RB3LYP) =  -1150.59785197     A.U. after   16 cycles
 Normal termination of Gaussian 16 at Sat Dec 12 17:23:08 2020.

 ----------------------------------------------------------------------
 # B3LYP/6-311++G(d,p) empiricaldispersion=gd3bj scf=xqc pop=npa geom=c
 heck
 ----------------------------------------------------------------------

 -------------------------------------
 CID_11832856_JID_10657_Energie_kation
 -------------------------------------
 Structure from the checkpoint file:  "JID_10657.chk"
 Charge =  1 Multiplicity = 2

 SCF Done:  E(UB3LYP) =  -1150.31986402     A.U. after   31 cycles
 Normal termination of Gaussian 16 at Sat Dec 12 17:51:07 2020.
 Gaussian 16:  ES64L-G16RevA.03 25-Dec-2016

 ----------------------------------------------------------------------
 # B3LYP/6-311++G(d,p) empiricaldispersion=gd3bj scf=xqc pop=npa geom=c
 heck
 ----------------------------------------------------------------------

 ------------------------------------
 CID_11832856_JID_10657_Energie_anion
 ------------------------------------
 Structure from the checkpoint file:  "JID_10657.chk"
 Charge = -1 Multiplicity = 2

                         Standard orientation:
 ---------------------------------------------------------------------
 Center     Atomic      Atomic             Coordinates (Angstroms)
 Number     Number       Type             X           Y           Z
 ---------------------------------------------------------------------
      1          6           0       -4.039486    3.083172    1.606686
      2          6           0       -2.886554    2.877505    0.669116
      3          6           0       -2.718113    1.810043   -0.114888
      4          6           0       -1.547059    1.615010   -1.034807
      5          6           0       -0.577941    0.501114   -0.560779
      6          6           0       -1.282668   -0.836168   -0.410112
      7          6           0       -1.815861   -1.200542    0.831022
      8          6           0       -2.501292   -2.405173    0.983733
      9          6           0       -2.657874   -3.263299   -0.105864
     10          6           0       -2.124394   -2.908977   -1.345837
     11          6           0       -1.441884   -1.701657   -1.496366
     12          7           0        0.548185    0.455484   -1.500244
     13          6           0        1.870853    0.465832   -1.215765
     14         16           0        2.998983    0.858809   -2.385763
     15          6           0        2.273162    0.086518    0.164991
     16          6           0        3.198290    0.874066    0.864636
     17          6           0        3.592527    0.517225    2.151205
     18          6           0        3.089125   -0.643009    2.744611
     19          6           0        2.186782   -1.444464    2.044411
     20          6           0        1.773419   -1.079926    0.764416
     21          1           0       -4.734452    2.237457    1.578555
     22          1           0       -4.599411    3.993450    1.354328
     23          1           0       -3.691970    3.205525    2.641233
     24          1           0       -2.141590    3.674888    0.638128
     25          1           0       -3.453568    1.007108   -0.087597
     26          1           0       -1.901210    1.349476   -2.042419
     27          1           0       -0.974749    2.545827   -1.122453
     28          1           0       -0.178767    0.795145    0.412344
     29          1           0       -1.686541   -0.535652    1.680816
     30          1           0       -2.905190   -2.677011    1.954943
     31          1           0       -3.185708   -4.205240    0.012108
     32          1           0       -2.234725   -3.574931   -2.196958
     33          1           0       -1.012098   -1.442182   -2.459671
     34          1           0        0.343276    0.703669   -2.462495
     35          1           0        3.600026    1.760071    0.385021
     36          1           0        4.299973    1.141498    2.689328
     37          1           0        3.405419   -0.924281    3.745119
     38          1           0        1.803320   -2.357089    2.491576
     39          1           0        1.080739   -1.710674    0.219558
 ---------------------------------------------------------------------

 SCF Done:  E(UB3LYP) =  -1150.60584714     A.U. after   33 cycles
 SCF Done:  E(UB3LYP) =  -1150.60584714     a.u. after    1 cycles

 The electronic state is 2-A.
 Alpha  occ. eigenvalues --  -88.63670 -14.20561 -10.11220 -10.09205 -10.08699
 Alpha  occ. eigenvalues --  -10.08502 -10.08461 -10.08361 -10.08334 -10.08259
 Alpha  occ. eigenvalues --  -10.08143 -10.08097 -10.07734 -10.07526 -10.04759
 Alpha  occ. eigenvalues --  -10.04609 -10.04304 -10.04058 -10.03868 -10.03862
 Alpha  occ. eigenvalues --   -7.72430  -5.68782  -5.68331  -5.68006  -0.82685
 Alpha  occ. eigenvalues --   -0.76377  -0.72883  -0.72194  -0.68707  -0.65371
 Alpha  occ. eigenvalues --   -0.64805  -0.63515  -0.61831  -0.60029  -0.56373
 Alpha  occ. eigenvalues --   -0.53543  -0.51432  -0.49468  -0.48777  -0.47500
 Alpha  occ. eigenvalues --   -0.46559  -0.44238  -0.42399  -0.39813  -0.37937
 Alpha  occ. eigenvalues --   -0.37378  -0.36393  -0.35900  -0.34618  -0.33935
 Alpha  occ. eigenvalues --   -0.33749  -0.33332  -0.32743  -0.32163  -0.30387
 Alpha  occ. eigenvalues --   -0.29891  -0.29451  -0.28844  -0.27684  -0.26991
 Alpha  occ. eigenvalues --   -0.26295  -0.25395  -0.24981  -0.24123  -0.23582
 Alpha  occ. eigenvalues --   -0.22168  -0.20667  -0.20003  -0.16918  -0.16306
 Alpha  occ. eigenvalues --   -0.15439  -0.13062  -0.12884  -0.08480  -0.06132
 Alpha  occ. eigenvalues --    0.04022
 Alpha virt. eigenvalues --    0.05744   0.06461   0.07431   0.07504   0.07816
 Alpha virt. eigenvalues --    0.08345   0.08729   0.08910   0.09048   0.09657
 Alpha virt. eigenvalues --    0.09974   0.10690   0.10941   0.11253   0.11443

  Beta  occ. eigenvalues --  -88.63616 -14.20452 -10.11216 -10.09202 -10.08671
  Beta  occ. eigenvalues --  -10.08502 -10.08363 -10.08343 -10.08253 -10.08106
  Beta  occ. eigenvalues --  -10.08043 -10.07932 -10.07720 -10.07481 -10.04812
  Beta  occ. eigenvalues --  -10.04633 -10.04235 -10.03840 -10.03759 -10.03733
  Beta  occ. eigenvalues --   -7.72382  -5.68764  -5.68158  -5.67969  -0.82318
  Beta  occ. eigenvalues --   -0.76281  -0.72687  -0.72079  -0.68560  -0.65265
  Beta  occ. eigenvalues --   -0.64754  -0.63095  -0.61628  -0.59860  -0.56086
  Beta  occ. eigenvalues --   -0.53453  -0.51326  -0.49104  -0.48654  -0.47325
  Beta  occ. eigenvalues --   -0.46512  -0.43999  -0.42328  -0.39691  -0.37878
  Beta  occ. eigenvalues --   -0.37278  -0.36309  -0.35853  -0.34532  -0.33737
  Beta  occ. eigenvalues --   -0.33678  -0.33218  -0.32688  -0.31967  -0.30250
  Beta  occ. eigenvalues --   -0.29733  -0.29416  -0.28756  -0.27625  -0.26864
  Beta  occ. eigenvalues --   -0.26145  -0.25063  -0.24924  -0.23781  -0.23185
  Beta  occ. eigenvalues --   -0.21849  -0.19885  -0.19421  -0.16681  -0.16047
  Beta  occ. eigenvalues --   -0.15300  -0.12556  -0.11977  -0.07489  -0.05853
  Beta virt. eigenvalues --    0.05676   0.06417   0.07514   0.07598   0.07759
  Beta virt. eigenvalues --    0.08299   0.08726   0.08829   0.08985   0.09583
  Beta virt. eigenvalues --    0.09692   0.09958   0.10615   0.10905   0.11266

 Mulliken charges and spin densities:
               1          2
     1  C   -0.606431  -0.161743
     2  C   -0.390470   0.180449
     3  C    0.182192  -0.092486
     4  C    0.040467  -0.043592
     5  C   -0.785325  -0.167205
     6  C    0.707619   0.020506
     7  C   -0.247272   0.116104
     8  C   -0.414395   0.014830
     9  C   -0.016095  -0.237892
    10  C   -0.478275   0.035794
    11  C    0.020265   0.104497
    12  N    0.278878   0.062130
    13  C   -0.879052   0.194614
    14  S   -1.051751   0.191210
    15  C    1.512405   0.051177
    16  C   -0.490826   0.102185
    17  C   -0.278310  -0.002634
    18  C   -0.405702   0.152328
    19  C   -0.200043  -0.074460
    20  C    0.042593   0.130239
    21  H    0.089296   0.045108
    22  H    0.103774   0.025545
    23  H    0.092836   0.052236
    24  H    0.107832   0.025063
    25  H    0.158896  -0.020687
    26  H    0.129244   0.009612
    27  H    0.205188  -0.013901
    28  H    0.161612  -0.003987
    29  H    0.168733  -0.002232
    30  H    0.063377   0.097380
    31  H    0.079082   0.058649
    32  H    0.091779   0.065917
    33  H    0.102753   0.074246
    34  H    0.247691  -0.008619
    35  H    0.136515  -0.004180
    36  H    0.129503   0.001323
    37  H    0.105489  -0.008744
    38  H    0.112510   0.028212
    39  H    0.173420   0.003011
 Sum of Mulliken charges =  -1.00000   1.00000

 Dipole moment (field-independent basis, Debye):
    X=             -9.1671    Y=             -0.0367    Z=              3.6090  Tot=              9.8520
 Quadrupole moment (field-independent basis, Debye-Ang):
   XX=           -186.0986   YY=           -147.0940   ZZ=           -158.2378
   XY=             -3.8079   XZ=             15.2090   YZ=              5.7201

 Summary of Natural Population Analysis:

                                       Natural Population
                Natural  -----------------------------------------------
    Atom  No    Charge         Core      Valence    Rydberg      Total
 -----------------------------------------------------------------------
      C    1   -0.29875      0.99966     2.29402    0.00507     3.29875
      C    2   -0.08875      0.99953     2.08121    0.00802     3.08875
      C    3   -0.09124      0.99951     2.08221    0.00952     3.09124
      C    4   -0.19845      0.99960     2.19109    0.00776     3.19845
      C    5   -0.01312      0.99953     2.00021    0.01337     3.01312
      C    6   -0.01490      0.99948     2.00349    0.01193     3.01490
      C    7   -0.09775      0.99951     2.09021    0.00804     3.09775
      C    8   -0.09487      0.99957     2.08524    0.01006     3.09487
      C    9   -0.11419      0.99957     2.10450    0.01012     3.11419
      C   10   -0.09618      0.99957     2.08650    0.01010     3.09618
      C   11   -0.09501      0.99950     2.08688    0.00862     3.09501
      N   12   -0.29618      0.99963     2.78268    0.01387     3.79618
      C   13    0.15225      0.99957     1.82843    0.01975     2.84775
      S   14   -0.12855      4.99957     3.11517    0.01381     8.12855
      C   15   -0.04492      0.99945     2.03274    0.01272     3.04492
      C   16   -0.06429      0.99952     2.05660    0.00817     3.06429
      C   17   -0.11826      0.99957     2.10986    0.00883     3.11826
      C   18   -0.06913      0.99957     2.06047    0.00909     3.06913
      C   19   -0.11990      0.99957     2.11189    0.00844     3.11990
      C   20   -0.07516      0.99952     2.06429    0.01135     3.07516
      H   21    0.09946      0.00000     0.39930    0.00124     0.40054
      H   22    0.09802      0.00000     0.40066    0.00132     0.40198
      H   23    0.10032      0.00000     0.39826    0.00142     0.39968
      H   24    0.08839      0.00000     0.41029    0.00132     0.41161
      H   25    0.09497      0.00000     0.40387    0.00116     0.40503
      H   26    0.09878      0.00000     0.40009    0.00113     0.40122
      H   27    0.10561      0.00000     0.39338    0.00102     0.39439
      H   28    0.11104      0.00000     0.38715    0.00182     0.38896
      H   29    0.10302      0.00000     0.39558    0.00140     0.39698
      H   30    0.09736      0.00000     0.40175    0.00089     0.40264
      H   31    0.09726      0.00000     0.40194    0.00080     0.40274
      H   32    0.09757      0.00000     0.40159    0.00084     0.40243
      H   33    0.10484      0.00000     0.39379    0.00138     0.39516
      H   34    0.18921      0.00000     0.30884    0.00195     0.31079
      H   35    0.10494      0.00000     0.39405    0.00101     0.39506
      H   36    0.09205      0.00000     0.40698    0.00097     0.40795
      H   37    0.08876      0.00000     0.41025    0.00099     0.41124
      H   38    0.09399      0.00000     0.40472    0.00129     0.40601
      H   39    0.10178      0.00000     0.39636    0.00186     0.39822
 =======================================================================
   * Total *    0.00000     23.99100    50.77655    0.23246    75.00000

 Normal termination of Gaussian 16 at Sat Dec 12 18:20:53 2020.
