 Gaussian 16, Revision A.03,

 -----------------------------------------------------------
 # opt freq B3LYP/6-31G(d) empiricaldispersion=gd3bj scf=xqc
 -----------------------------------------------------------

 ------------------------------
 CID_55046788_JID_9066_neutraal
 ------------------------------
 Symbolic Z-matrix:
 Charge =  0 Multiplicity = 1

 SCF Done:  E(RB3LYP) =  -857.037128706     A.U. after   16 cycles
 SCF Done:  E(RB3LYP) =  -857.048348966     A.U. after   13 cycles
 SCF Done:  E(RB3LYP) =  -857.050086830     A.U. after   12 cycles
 SCF Done:  E(RB3LYP) =  -857.051460005     A.U. after   14 cycles
 SCF Done:  E(RB3LYP) =  -857.052034571     A.U. after   13 cycles
 SCF Done:  E(RB3LYP) =  -857.052198256     A.U. after   13 cycles
 SCF Done:  E(RB3LYP) =  -857.052473752     A.U. after   12 cycles
 SCF Done:  E(RB3LYP) =  -857.052562828     A.U. after   12 cycles
 SCF Done:  E(RB3LYP) =  -857.052596514     A.U. after   12 cycles
 SCF Done:  E(RB3LYP) =  -857.052611999     A.U. after   11 cycles
 SCF Done:  E(RB3LYP) =  -857.052645492     A.U. after    9 cycles
 SCF Done:  E(RB3LYP) =  -857.052645580     A.U. after    8 cycles
 SCF Done:  E(RB3LYP) =  -857.052645624     A.U. after    8 cycles
 SCF Done:  E(RB3LYP) =  -857.052645644     A.U. after    7 cycles
 Optimization completed.
    -- Stationary point found.
 Normal termination of Gaussian 16 at Sat Dec 12 09:27:55 2020.

 --------------------------------------------------------------------
 #N Geom=AllCheck Guess=TCheck SCRF=Check GenChk RB3LYP/6-31G(d) Freq
 --------------------------------------------------------------------

 Structure from the checkpoint file:  "JID_9066.chk"
 ------------------------------
 CID_55046788_JID_9066_neutraal
 ------------------------------
 Charge =  0 Multiplicity = 1

 SCF Done:  E(RB3LYP) =  -857.052645644     A.U. after    1 cycles

  Exact polarizability: 227.343 -16.576 185.677   9.811   3.286 112.298
 Approx polarizability: 294.178 -21.184 303.806  16.498   9.630 171.328

                      1                      2                      3
                      A                      A                      A
 Frequencies --     14.5842                28.1255                32.6199
 Red. masses --      4.2480                 3.8828                 3.4634
 Frc consts  --      0.0005                 0.0018                 0.0022
 IR Inten    --      3.0038                 0.2910                 0.1514

                      4                      5                      6
                      A                      A                      A
 Frequencies --     43.5131                73.1153                77.5638
 Red. masses --      3.8974                 4.2841                 3.8637
 Frc consts  --      0.0043                 0.0135                 0.0137
 IR Inten    --      1.7915                 1.5267                 4.3401

                      7                      8                      9
                      A                      A                      A
 Frequencies --     86.5419               117.5848               135.7705
 Red. masses --      2.7581                 1.3982                 3.8987
 Frc consts  --      0.0122                 0.0114                 0.0423
 IR Inten    --      4.6850                 7.0830                 4.3091

                     10                     11                     12
                      A                      A                      A
 Frequencies --    153.9176               169.6746               215.2830
 Red. masses --      2.1540                 1.9549                 3.5334
 Frc consts  --      0.0301                 0.0332                 0.0965
 IR Inten    --      4.1952                 0.2334                 2.9758

                     13                     14                     15
                      A                      A                      A
 Frequencies --    247.9923               253.4806               255.9634
 Red. masses --      3.3806                 1.3431                 3.1329
 Frc consts  --      0.1225                 0.0508                 0.1209
 IR Inten    --     19.9667                 0.1724                 8.9732

                     16                     17                     18
                      A                      A                      A
 Frequencies --    278.7080               308.2246               334.3928
 Red. masses --      4.4132                 2.9157                 3.7171
 Frc consts  --      0.2020                 0.1632                 0.2449
 IR Inten    --      0.7364                 6.0048                 1.0536

                     19                     20                     21
                      A                      A                      A
 Frequencies --    345.7143               392.1115               398.7012
 Red. masses --      1.2480                 1.9481                 3.3761
 Frc consts  --      0.0879                 0.1765                 0.3162
 IR Inten    --    113.1417                 4.2910                 1.3642

                     22                     23                     24
                      A                      A                      A
 Frequencies --    407.8193               432.1861               460.8854
 Red. masses --      4.5776                 2.1062                 2.8671
 Frc consts  --      0.4486                 0.2318                 0.3588
 IR Inten    --      2.7829                 1.4770                 5.8277

                     25                     26                     27
                      A                      A                      A
 Frequencies --    505.6278               530.7220               571.0827
 Red. masses --      4.2726                 3.2150                 3.5993
 Frc consts  --      0.6436                 0.5335                 0.6916
 IR Inten    --     20.8105                 4.9137                 3.9183

                     28                     29                     30
                      A                      A                      A
 Frequencies --    601.5423               619.1345               639.9950
 Red. masses --      1.4997                 2.1659                 4.2009
 Frc consts  --      0.3197                 0.4892                 1.0138
 IR Inten    --     58.8799                10.4109                35.2321

                     31                     32                     33
                      A                      A                      A
 Frequencies --    654.3091               718.0433               727.4959
 Red. masses --      7.4610                 4.8282                 4.4671
 Frc consts  --      1.8820                 1.4667                 1.3929
 IR Inten    --      0.1276                18.3041                26.7423

                     34                     35                     36
                      A                      A                      A
 Frequencies --    744.0802               790.3252               795.3117
 Red. masses --      4.4675                 2.6656                 7.7701
 Frc consts  --      1.4573                 0.9810                 2.8957
 IR Inten    --      9.9345                 4.8437                19.1199

                     37                     38                     39
                      A                      A                      A
 Frequencies --    809.3342               822.2313               854.8035
 Red. masses --      2.0438                 1.2645                 3.1699
 Frc consts  --      0.7888                 0.5037                 1.3647
 IR Inten    --      2.4511                 0.5054                 9.4196

                     40                     41                     42
                      A                      A                      A
 Frequencies --    859.8001               880.8815               905.1536
 Red. masses --      2.1639                 2.0415                 1.8339
 Frc consts  --      0.9425                 0.9333                 0.8853
 IR Inten    --     17.7526                 5.5117                18.3800

                     43                     44                     45
                      A                      A                      A
 Frequencies --    953.6928               972.9240               990.8836
 Red. masses --      1.9950                 2.3217                 1.7286
 Frc consts  --      1.0691                 1.2948                 1.0000
 IR Inten    --     12.5809                24.1329                 1.6744

                     46                     47                     48
                      A                      A                      A
 Frequencies --   1006.0863              1010.1542              1044.4978
 Red. masses --      2.8008                 1.2954                 4.2197
 Frc consts  --      1.6703                 0.7788                 2.7124
 IR Inten    --      5.2395                 1.2469                 3.7491

                     49                     50                     51
                      A                      A                      A
 Frequencies --   1063.7273              1077.1576              1087.7644
 Red. masses --      2.4916                 3.0589                 2.3601
 Frc consts  --      1.6611                 2.0911                 1.6454
 IR Inten    --     13.1792                10.0147                15.4610

                     52                     53                     54
                      A                      A                      A
 Frequencies --   1091.3924              1122.8204              1136.5588
 Red. masses --      2.2795                 2.1610                 1.6447
 Frc consts  --      1.5998                 1.6052                 1.2517
 IR Inten    --     32.3882                 5.1454                53.0519

                     55                     56                     57
                      A                      A                      A
 Frequencies --   1145.1674              1153.4459              1161.8366
 Red. masses --      1.5970                 1.9476                 1.2905
 Frc consts  --      1.2340                 1.5267                 1.0264
 IR Inten    --     27.6347                 8.9104                 9.0912

                     58                     59                     60
                      A                      A                      A
 Frequencies --   1180.4295              1207.6560              1214.8699
 Red. masses --      1.7118                 2.6278                 1.9276
 Frc consts  --      1.4053                 2.2580                 1.6762
 IR Inten    --      3.1878                51.8925                 7.4329

                     61                     62                     63
                      A                      A                      A
 Frequencies --   1225.6514              1242.3579              1250.9186
 Red. masses --      1.5036                 4.6549                 1.4197
 Frc consts  --      1.3308                 4.2331                 1.3089
 IR Inten    --      2.6337                46.5219                 5.5728

                     64                     65                     66
                      A                      A                      A
 Frequencies --   1296.4647              1315.4387              1329.9606
 Red. masses --      1.3596                 1.2292                 1.4310
 Frc consts  --      1.3464                 1.2532                 1.4913
 IR Inten    --      9.8274                 3.9179                23.1741

                     67                     68                     69
                      A                      A                      A
 Frequencies --   1345.5338              1349.2116              1352.2733
 Red. masses --      1.2220                 1.8874                 1.3478
 Frc consts  --      1.3035                 2.0243                 1.4521
 IR Inten    --      3.7451                45.3406                13.2972

                     70                     71                     72
                      A                      A                      A
 Frequencies --   1361.2140              1366.4169              1375.6147
 Red. masses --      1.3925                 3.8081                 1.2696
 Frc consts  --      1.5202                 4.1891                 1.4155
 IR Inten    --     31.0258                52.5172                16.7747

                     73                     74                     75
                      A                      A                      A
 Frequencies --   1393.8939              1403.4696              1420.2559
 Red. masses --      1.4643                 1.6962                 1.2942
 Frc consts  --      1.6762                 1.9685                 1.5380
 IR Inten    --     36.3410               171.1608                 0.4799

                     76                     77                     78
                      A                      A                      A
 Frequencies --   1437.0979              1442.0796              1472.8247
 Red. masses --      1.6424                 1.3396                 1.4842
 Frc consts  --      1.9985                 1.6413                 1.8969
 IR Inten    --    123.9717                41.4347                26.9495

                     79                     80                     81
                      A                      A                      A
 Frequencies --   1499.3847              1504.1247              1505.8144
 Red. masses --      1.4272                 1.1225                 1.3369
 Frc consts  --      1.8904                 1.4963                 1.7861
 IR Inten    --     21.9794                32.0729                10.5601

                     82                     83                     84
                      A                      A                      A
 Frequencies --   1514.3964              1515.6349              1520.8369
 Red. masses --      1.0638                 1.5967                 1.0900
 Frc consts  --      1.4374                 2.1611                 1.4854
 IR Inten    --      1.2317                85.1846                10.9461

                     85                     86                     87
                      A                      A                      A
 Frequencies --   1525.1846              1527.5949              1528.8398
 Red. masses --      1.0826                 1.0779                 1.9006
 Frc consts  --      1.4838                 1.4820                 2.6174
 IR Inten    --     15.1159                 4.1718                34.3735

                     88                     89                     90
                      A                      A                      A
 Frequencies --   1536.8915              1545.9865              1551.5257
 Red. masses --      1.0759                 1.0930                 1.4639
 Frc consts  --      1.4973                 1.5391                 2.0763
 IR Inten    --      2.6558                 1.6282                87.5780

                     91                     92                     93
                      A                      A                      A
 Frequencies --   1618.9057              1658.8098              1745.6882
 Red. masses --      3.4782                 6.2236                 7.1899
 Frc consts  --      5.3710                10.0899                12.9094
 IR Inten    --     49.8454               257.2442               374.9957

                     94                     95                     96
                      A                      A                      A
 Frequencies --   2933.2854              3038.3136              3045.7042
 Red. masses --      1.0725                 1.0729                 1.0585
 Frc consts  --      5.4371                 5.8354                 5.7854
 IR Inten    --     67.7545                25.9637                 6.8107

                     97                     98                     99
                      A                      A                      A
 Frequencies --   3045.8417              3048.9325              3053.4624
 Red. masses --      1.0517                 1.0642                 1.0380
 Frc consts  --      5.7484                 5.8288                 5.7023
 IR Inten    --     73.2598                68.9184                30.5546

                    100                    101                    102
                      A                      A                      A
 Frequencies --   3055.4051              3074.0972              3095.5009
 Red. masses --      1.0710                 1.0889                 1.0902
 Frc consts  --      5.8910                 6.0627                 6.1551
 IR Inten    --     27.3581                13.8256                24.0060

                    103                    104                    105
                      A                      A                      A
 Frequencies --   3103.6429              3114.8890              3116.5999
 Red. masses --      1.0977                 1.0948                 1.0981
 Frc consts  --      6.2299                 6.2586                 6.2845
 IR Inten    --      7.4632                 0.2126               109.3525

                    106                    107                    108
                      A                      A                      A
 Frequencies --   3121.8248              3125.3664              3133.7324
 Red. masses --      1.0906                 1.0973                 1.1025
 Frc consts  --      6.2622                 6.3149                 6.3792
 IR Inten    --     30.1573                27.0340                37.6835

                    109                    110                    111
                      A                      A                      A
 Frequencies --   3160.2839              3164.4565              3187.6231
 Red. masses --      1.1056                 1.0936                 1.0913
 Frc consts  --      6.5056                 6.4523                 6.5330
 IR Inten    --     15.8065                 7.8359                16.5575

                    112                    113                    114
                      A                      A                      A
 Frequencies --   3248.5065              3593.8969              3638.3759
 Red. masses --      1.0937                 1.0753                 1.0772
 Frc consts  --      6.7998                 8.1827                 8.4013
 IR Inten    --      1.7238                26.1575                42.5327

 - Thermochemistry -
 -------------------
 Temperature   298.150 Kelvin.  Pressure   1.00000 Atm.
 Atom     1 has atomic number  6 and mass  12.00000

 Molecular mass:   263.17461 amu.
 Principal axes and moments of inertia in atomic units:
                           1         2         3
     Eigenvalues --  2756.28554********************
           X            0.99996  -0.00824   0.00343
           Y            0.00823   0.99996   0.00265
           Z           -0.00345  -0.00262   0.99999
 This molecule is an asymmetric top.
 Rotational symmetry number  1.
 Warning -- assumption of classical behavior for rotation
           may cause significant error
 Rotational temperatures (Kelvin)      0.03142     0.00816     0.00685
 Rotational constants (GHZ):           0.65477     0.16996     0.14274
 Zero-point vibrational energy     907340.3 (Joules/Mol)
                                  216.85953 (Kcal/Mol)
 Warning -- explicit consideration of  29 degrees of freedom as
           vibrations may cause significant error
 Vibrational temperatures:     20.98    40.47    46.93    62.61   105.20
          (Kelvin)            111.60   124.51   169.18   195.34   221.45
                              244.12   309.74   356.81   364.70   368.27
                              401.00   443.47   481.12   497.41   564.16
                              573.64   586.76   621.82   663.11   727.49
                              763.59   821.66   865.49   890.80   920.81
                              941.40  1033.10  1046.70  1070.57  1137.10
                             1144.28  1164.45  1183.01  1229.87  1237.06
                             1267.39  1302.31  1372.15  1399.82  1425.66
                             1447.53  1453.39  1502.80  1530.47  1549.79
                             1565.05  1570.27  1615.49  1635.25  1647.64
                             1659.55  1671.62  1698.37  1737.55  1747.93
                             1763.44  1787.48  1799.79  1865.32  1892.62
                             1913.52  1935.92  1941.21  1945.62  1958.48
                             1965.97  1979.20  2005.50  2019.28  2043.43
                             2067.66  2074.83  2119.07  2157.28  2164.10
                             2166.53  2178.88  2180.66  2188.15  2194.40
                             2197.87  2199.66  2211.24  2224.33  2232.30
                             2329.24  2386.66  2511.66  4220.34  4371.46
                             4382.09  4382.29  4386.73  4393.25  4396.05
                             4422.94  4453.74  4465.45  4481.63  4484.09
                             4491.61  4496.71  4508.74  4546.94  4552.95
                             4586.28  4673.88  5170.82  5234.81

 Zero-point correction=                           0.345588 (Hartree/Particle)
 Thermal correction to Energy=                    0.364676
 Thermal correction to Enthalpy=                  0.365620
 Thermal correction to Gibbs Free Energy=         0.295284
 Sum of electronic and zero-point Energies=           -856.707058
 Sum of electronic and thermal Energies=              -856.687970
 Sum of electronic and thermal Enthalpies=            -856.687026
 Sum of electronic and thermal Free Energies=         -856.757362

                     E (Thermal)             CV                S
                      KCal/Mol        Cal/Mol-Kelvin    Cal/Mol-Kelvin
 Total                  228.837             71.211            148.035
 Electronic               0.000              0.000              0.000
 Translational            0.889              2.981             42.602
 Rotational               0.889              2.981             34.269
 Vibrational            227.060             65.249             71.163
 Vibration     1          0.593              1.986              7.261
 Vibration     2          0.593              1.984              5.957
 Vibration     3          0.594              1.983              5.663
 Vibration     4          0.595              1.980              5.092
 Vibration     5          0.599              1.967              4.068
 Vibration     6          0.599              1.964              3.952
 Vibration     7          0.601              1.959              3.737
 Vibration     8          0.608              1.935              3.140
 Vibration     9          0.614              1.918              2.863
 Vibration    10          0.619              1.898              2.623
 Vibration    11          0.625              1.880              2.439
 Vibration    12          0.645              1.818              1.998
 Vibration    13          0.662              1.766              1.745
 Vibration    14          0.665              1.757              1.706
 Vibration    15          0.666              1.753              1.689
 Vibration    16          0.679              1.713              1.542
 Vibration    17          0.698              1.658              1.372
 Vibration    18          0.716              1.607              1.239
 Vibration    19          0.724              1.584              1.186
 Vibration    20          0.760              1.487              0.992
 Vibration    21          0.765              1.473              0.967
 Vibration    22          0.772              1.453              0.934
 Vibration    23          0.793              1.400              0.852
 Vibration    24          0.819              1.337              0.764
 Vibration    25          0.861              1.238              0.644
 Vibration    26          0.886              1.182              0.586
 Vibration    27          0.927              1.094              0.502
 Vibration    28          0.960              1.029              0.447
 Vibration    29          0.979              0.991              0.418

                           ! Non-Optimized Parameters !
 Normal termination of Gaussian 16 at Sat Dec 12 09:45:22 2020.

 ----------------------------------------------------------------------
 # B3LYP/6-311++G(d,p) empiricaldispersion=gd3bj scf=xqc pop=npa geom=c
 heck
 ----------------------------------------------------------------------

 --------------------------------------
 CID_55046788_JID_9066_Energie_neutraal
 --------------------------------------
 Structure from the checkpoint file:  "JID_9066.chk"
 Charge =  0 Multiplicity = 1

 SCF Done:  E(RB3LYP) =  -857.291045216     A.U. after   17 cycles
 Normal termination of Gaussian 16 at Sat Dec 12 09:53:43 2020.

 ----------------------------------------------------------------------
 # B3LYP/6-311++G(d,p) empiricaldispersion=gd3bj scf=xqc pop=npa geom=c
 heck
 ----------------------------------------------------------------------

 ------------------------------------
 CID_55046788_JID_9066_Energie_kation
 ------------------------------------
 Structure from the checkpoint file:  "JID_9066.chk"
 Charge =  1 Multiplicity = 2

 SCF Done:  E(UB3LYP) =  -857.014596255     A.U. after   33 cycles
 SCF Done:  E(UB3LYP) =  -857.014596255     a.u. after    1 cycles
 Normal termination of Gaussian 16 at Sat Dec 12 10:16:26 2020.
 Gaussian 16:  ES64L-G16RevA.03 25-Dec-2016

 ----------------------------------------------------------------------
 # B3LYP/6-311++G(d,p) empiricaldispersion=gd3bj scf=xqc pop=npa geom=c
 heck
 ----------------------------------------------------------------------

 -----------------------------------
 CID_55046788_JID_9066_Energie_anion
 -----------------------------------
 Structure from the checkpoint file:  "JID_9066.chk"
 Charge = -1 Multiplicity = 2

                         Standard orientation:
 ---------------------------------------------------------------------
 Center     Atomic      Atomic             Coordinates (Angstroms)
 Number     Number       Type             X           Y           Z
 ---------------------------------------------------------------------
      1          6           0       -6.030989   -0.833568   -0.669975
      2          6           0       -4.525013   -0.666478   -0.862599
      3          7           0       -3.765846   -1.230312    0.259437
      4          6           0       -3.755719   -0.361520    1.445278
      5          6           0       -2.627396    0.669344    1.214693
      6          6           0       -1.582318   -0.108960    0.377067
      7          6           0       -2.335111   -1.416457   -0.025036
      8          6           0       -1.078002    0.665112   -0.845256
      9          7           0       -0.420630    1.926625   -0.510313
     10          6           0        0.858448    2.226826   -0.145089
     11          8           0        1.166481    3.383861    0.152165
     12          6           0        1.927572    1.170051   -0.122734
     13          7           0        1.616094   -0.121483   -0.197726
     14          7           0        2.557281   -1.059542   -0.140180
     15          6           0        3.849152   -0.696836   -0.018330
     16          6           0        4.248175    0.660089    0.077079
     17          6           0        3.262015    1.608009    0.029053
     18          7           0        4.767383   -1.705277   -0.009771
     19          6           0        4.377320   -3.104353    0.048094
     20          1           0       -6.275168   -1.889520   -0.517635
     21          1           0       -6.573840   -0.466742   -1.548687
     22          1           0       -6.394867   -0.275111    0.199392
     23          1           0       -4.221884   -1.210912   -1.763843
     24          1           0       -4.294709    0.400105   -1.050773
     25          1           0       -3.525543   -0.978710    2.323730
     26          1           0       -4.736243    0.091707    1.612166
     27          1           0       -3.013157    1.528065    0.649781
     28          1           0       -2.218057    1.062008    2.149958
     29          1           0       -0.704804   -0.357589    0.979672
     30          1           0       -2.186143   -1.690437   -1.074619
     31          1           0       -1.964817   -2.250500    0.583107
     32          1           0       -0.385504    0.045709   -1.413366
     33          1           0       -1.922304    0.919131   -1.498186
     34          1           0       -1.016625    2.739540   -0.413446
     35          1           0        5.297225    0.924162    0.183146
     36          1           0        3.456607    2.670889    0.105425
     37          1           0        5.700517   -1.465453    0.289252
     38          1           0        5.279139   -3.716277   -0.027542
     39          1           0        3.847252   -3.349802    0.977545
     40          1           0        3.712298   -3.338797   -0.785992
 ---------------------------------------------------------------------

 SCF Done:  E(UB3LYP) =  -857.294022110     A.U. after   33 cycles
 SCF Done:  E(UB3LYP) =  -857.294022112     a.u. after    2 cycles

 The electronic state is 2-A.
 Alpha  occ. eigenvalues --  -18.95412 -14.21679 -14.21605 -14.21294 -14.18465
 Alpha  occ. eigenvalues --  -14.17734 -10.14273 -10.11347 -10.11016 -10.10307
 Alpha  occ. eigenvalues --  -10.09528 -10.09482 -10.09335 -10.07983 -10.07304
 Alpha  occ. eigenvalues --  -10.06712 -10.06296 -10.05319 -10.04503  -0.90950
 Alpha  occ. eigenvalues --   -0.87540  -0.84420  -0.81912  -0.80089  -0.69971
 Alpha  occ. eigenvalues --   -0.68087  -0.67282  -0.65296  -0.63894  -0.59037
 Alpha  occ. eigenvalues --   -0.57714  -0.54830  -0.54103  -0.50351  -0.48062
 Alpha  occ. eigenvalues --   -0.47690  -0.45675  -0.41896  -0.40932  -0.40634
 Alpha  occ. eigenvalues --   -0.39902  -0.38083  -0.36953  -0.35269  -0.34726
 Alpha  occ. eigenvalues --   -0.34495  -0.33716  -0.33603  -0.31928  -0.30232
 Alpha  occ. eigenvalues --   -0.30121  -0.29700  -0.29220  -0.28886  -0.28297
 Alpha  occ. eigenvalues --   -0.28011  -0.27203  -0.27009  -0.25970  -0.25827
 Alpha  occ. eigenvalues --   -0.24471  -0.23566  -0.22384  -0.20192  -0.18811
 Alpha  occ. eigenvalues --   -0.16689  -0.14109  -0.13256  -0.12600  -0.10126
 Alpha  occ. eigenvalues --   -0.09213   0.04091
 Alpha virt. eigenvalues --    0.05233   0.06173   0.07443   0.07652   0.07984
 Alpha virt. eigenvalues --    0.08387   0.09258   0.09730   0.10031   0.10276
 Alpha virt. eigenvalues --    0.10681   0.10974   0.11573   0.11919   0.12457

  Beta  occ. eigenvalues --  -18.95304 -14.21664 -14.21597 -14.21293 -14.18321
  Beta  occ. eigenvalues --  -14.17096 -10.14219 -10.11337 -10.11010 -10.10303
  Beta  occ. eigenvalues --  -10.09527 -10.09481 -10.09324 -10.07967 -10.07301
  Beta  occ. eigenvalues --  -10.06707 -10.06273 -10.05307 -10.04270  -0.90772
  Beta  occ. eigenvalues --   -0.86996  -0.84416  -0.81645  -0.80029  -0.69957
  Beta  occ. eigenvalues --   -0.67771  -0.66815  -0.65273  -0.63884  -0.58937
  Beta  occ. eigenvalues --   -0.57666  -0.54795  -0.53634  -0.50132  -0.48011
  Beta  occ. eigenvalues --   -0.47658  -0.45566  -0.41735  -0.40912  -0.40606
  Beta  occ. eigenvalues --   -0.39774  -0.38052  -0.36795  -0.35229  -0.34612
  Beta  occ. eigenvalues --   -0.34435  -0.33675  -0.33483  -0.31899  -0.30062
  Beta  occ. eigenvalues --   -0.29705  -0.29640  -0.29150  -0.28523  -0.28245
  Beta  occ. eigenvalues --   -0.27878  -0.26980  -0.26622  -0.25916  -0.25793
  Beta  occ. eigenvalues --   -0.24427  -0.23491  -0.22319  -0.19244  -0.18374
  Beta  occ. eigenvalues --   -0.15512  -0.13899  -0.13122  -0.12490  -0.09259
  Beta  occ. eigenvalues --   -0.08639
  Beta virt. eigenvalues --    0.05483   0.06746   0.07471   0.07600   0.07997
  Beta virt. eigenvalues --    0.08590   0.09469   0.09709   0.09959   0.10114
  Beta virt. eigenvalues --    0.10224   0.10596   0.10901   0.11551   0.11799

 Mulliken charges and spin densities:
               1          2
     1  C    0.121676  -0.643748
     2  C   -0.484010   0.232980
     3  N    0.167670   0.014214
     4  C   -0.335125  -0.141933
     5  C   -0.243598  -0.136131
     6  C    0.594334   0.173503
     7  C   -0.733387   0.008301
     8  C   -0.781121  -0.131065
     9  N   -0.162598   0.022731
    10  C    0.035456  -0.053712
    11  O   -0.392916   0.034955
    12  C    0.116395  -0.024660
    13  N    0.003972   0.283740
    14  N   -0.089636   0.033417
    15  C    0.089837  -0.200970
    16  C   -0.407636   0.209641
    17  C   -0.211087   0.006329
    18  N   -0.154998   0.009774
    19  C   -0.086845  -0.277318
    20  H    0.087846   0.063800
    21  H   -0.099710   0.215349
    22  H   -0.057168   0.183778
    23  H    0.077138   0.082626
    24  H    0.098861  -0.015963
    25  H    0.138465   0.018724
    26  H    0.090777   0.030505
    27  H    0.063833   0.059703
    28  H    0.164941   0.010690
    29  H    0.233795   0.034382
    30  H    0.146151   0.005639
    31  H    0.176781   0.005612
    32  H    0.253144  -0.018727
    33  H    0.088176   0.057976
    34  H    0.306041   0.003057
    35  H   -0.044775   0.157042
    36  H    0.190189  -0.000609
    37  H   -0.107106   0.380430
    38  H   -0.114435   0.240926
    39  H    0.142210   0.013503
    40  H    0.118465   0.051508
 Sum of Mulliken charges =  -1.00000   1.00000

 Dipole moment (field-independent basis, Debye):
    X=             -5.3705    Y=             -1.4096    Z=             -0.3484  Tot=              5.5633
 Quadrupole moment (field-independent basis, Debye-Ang):
   XX=           -205.2115   YY=           -155.8754   ZZ=           -129.2731
   XY=             -2.7920   XZ=             -4.8950   YZ=             -1.1942

 Summary of Natural Population Analysis:

                                       Natural Population
                Natural  -----------------------------------------------
    Atom  No    Charge         Core      Valence    Rydberg      Total
 -----------------------------------------------------------------------
      C    1   -0.28773      0.99966     2.28292    0.00514     3.28773
      C    2   -0.08919      0.99962     2.07604    0.01353     3.08919
      N    3   -0.28283      0.99973     2.76986    0.01324     3.78283
      C    4   -0.08724      0.99963     2.07807    0.00954     3.08724
      C    5   -0.20129      0.99963     2.19465    0.00701     3.20129
      C    6   -0.13130      0.99959     2.12180    0.00991     3.13130
      C    7   -0.08307      0.99962     2.07310    0.01035     3.08307
      C    8   -0.08538      0.99958     2.07457    0.01123     3.08538
      N    9   -0.31704      0.99967     2.80728    0.01008     3.81704
      C   10    0.33655      0.99963     1.64182    0.02200     2.66345
      O   11   -0.33251      0.99988     3.32702    0.00561     4.33251
      C   12    0.01701      0.99950     1.97064    0.01285     2.98299
      N   13   -0.04220      0.99968     2.52728    0.01524     3.54220
      N   14   -0.15329      0.99969     2.64078    0.01282     3.65329
      C   15    0.19026      0.99955     1.79403    0.01616     2.80974
      C   16   -0.09405      0.99952     2.08487    0.00966     3.09405
      C   17   -0.08095      0.99954     2.07229    0.00913     3.08095
      N   18   -0.30967      0.99967     2.79935    0.01066     3.80967
      C   19   -0.17873      0.99965     2.16939    0.00968     3.17873
      H   20    0.09875      0.00000     0.39937    0.00188     0.40125
      H   21    0.09693      0.00000     0.40202    0.00106     0.40307
      H   22    0.09425      0.00000     0.40402    0.00173     0.40575
      H   23    0.09313      0.00000     0.40554    0.00133     0.40687
      H   24    0.07870      0.00000     0.41959    0.00171     0.42130
      H   25    0.09155      0.00000     0.40737    0.00108     0.40845
      H   26    0.09455      0.00000     0.40428    0.00118     0.40545
      H   27    0.09102      0.00000     0.40750    0.00147     0.40898
      H   28    0.10371      0.00000     0.39519    0.00111     0.39629
      H   29    0.11640      0.00000     0.38204    0.00156     0.38360
      H   30    0.09550      0.00000     0.40337    0.00114     0.40450
      H   31    0.09628      0.00000     0.40270    0.00101     0.40372
      H   32    0.11708      0.00000     0.38158    0.00135     0.38292
      H   33    0.08524      0.00000     0.41355    0.00120     0.41476
      H   34    0.18587      0.00000     0.31087    0.00326     0.31413
      H   35    0.09442      0.00000     0.40455    0.00103     0.40558
      H   36    0.11103      0.00000     0.38780    0.00117     0.38897
      H   37    0.18752      0.00000     0.30835    0.00413     0.31248
      H   38    0.08965      0.00000     0.40953    0.00082     0.41035
      H   39    0.08948      0.00000     0.40911    0.00141     0.41052
      H   40    0.10160      0.00000     0.39705    0.00135     0.39840
 =======================================================================
   * Total *    0.00000     18.99305    51.76113    0.24581    71.00000

 Normal termination of Gaussian 16 at Sat Dec 12 10:54:52 2020.
