 Gaussian 16, Revision A.03,

 -----------------------------------------------------------
 # opt freq B3LYP/6-31G(d) empiricaldispersion=gd3bj scf=xqc
 -----------------------------------------------------------

 ------------------------------
 CID_11687095_JID_4169_neutraal
 ------------------------------
 Symbolic Z-matrix:
 Charge =  0 Multiplicity = 1

 SCF Done:  E(RB3LYP) =  -708.927216789     A.U. after   14 cycles
 SCF Done:  E(RB3LYP) =  -708.931801104     A.U. after   12 cycles
 SCF Done:  E(RB3LYP) =  -708.932375903     A.U. after   12 cycles
 SCF Done:  E(RB3LYP) =  -708.933064868     A.U. after   12 cycles
 SCF Done:  E(RB3LYP) =  -708.933634574     A.U. after   12 cycles
 SCF Done:  E(RB3LYP) =  -708.933868955     A.U. after   11 cycles
 SCF Done:  E(RB3LYP) =  -708.933881849     A.U. after   12 cycles
 SCF Done:  E(RB3LYP) =  -708.934174145     A.U. after   11 cycles
 SCF Done:  E(RB3LYP) =  -708.934288502     A.U. after   11 cycles
 SCF Done:  E(RB3LYP) =  -708.934312898     A.U. after   12 cycles
 SCF Done:  E(RB3LYP) =  -708.935332935     A.U. after   10 cycles
 SCF Done:  E(RB3LYP) =  -708.935334965     A.U. after   10 cycles
 SCF Done:  E(RB3LYP) =  -708.935333800     A.U. after   10 cycles
 SCF Done:  E(RB3LYP) =  -708.935335861     A.U. after   10 cycles
 SCF Done:  E(RB3LYP) =  -708.935335933     A.U. after    7 cycles
 SCF Done:  E(RB3LYP) =  -708.935335974     A.U. after    7 cycles
 Optimization completed.
    -- Stationary point found.
 Normal termination of Gaussian 16 at Thu Dec 10 09:29:14 2020.

 --------------------------------------------------------------------
 #N Geom=AllCheck Guess=TCheck SCRF=Check GenChk RB3LYP/6-31G(d) Freq
 --------------------------------------------------------------------

 Structure from the checkpoint file:  "JID_4169.chk"
 ------------------------------
 CID_11687095_JID_4169_neutraal
 ------------------------------
 Charge =  0 Multiplicity = 1

 SCF Done:  E(RB3LYP) =  -708.935335974     A.U. after    1 cycles

  Exact polarizability: 129.540  -5.849 104.561  -3.021  -2.197  99.508
 Approx polarizability: 153.551  -5.281 155.472  -7.036  -2.538 150.603

                      1                      2                      3
                      A                      A                      A
 Frequencies --     19.6932                31.5851                37.8788
 Red. masses --      5.3465                 5.2968                 3.3757
 Frc consts  --      0.0012                 0.0031                 0.0029
 IR Inten    --      0.7773                 2.0088                 0.3714

                      4                      5                      6
                      A                      A                      A
 Frequencies --     56.7820               104.5474               125.9190
 Red. masses --      4.1154                 3.8802                 3.4828
 Frc consts  --      0.0078                 0.0250                 0.0325
 IR Inten    --      1.1582                 0.8737                 0.1689

                      7                      8                      9
                      A                      A                      A
 Frequencies --    129.9767               139.7632               195.7128
 Red. masses --      2.6035                 1.3489                 3.6099
 Frc consts  --      0.0259                 0.0155                 0.0815
 IR Inten    --      0.1934                 0.2916                 9.8735

                     10                     11                     12
                      A                      A                      A
 Frequencies --    206.5363               211.3790               256.0441
 Red. masses --      2.9045                 1.1346                 1.0880
 Frc consts  --      0.0730                 0.0299                 0.0420
 IR Inten    --      5.2868                 0.5429                 0.0907

                     13                     14                     15
                      A                      A                      A
 Frequencies --    265.8318               275.0807               312.7840
 Red. masses --      2.6258                 1.0689                 2.9375
 Frc consts  --      0.1093                 0.0477                 0.1693
 IR Inten    --      1.7167                 0.0210                 3.6590

                     16                     17                     18
                      A                      A                      A
 Frequencies --    326.5340               351.7118               369.3466
 Red. masses --      3.2133                 2.4983                 3.6974
 Frc consts  --      0.2019                 0.1821                 0.2972
 IR Inten    --      8.2245                 2.4487                 6.7803

                     19                     20                     21
                      A                      A                      A
 Frequencies --    409.7096               432.2222               462.2815
 Red. masses --      2.3652                 2.7231                 2.9272
 Frc consts  --      0.2339                 0.2997                 0.3686
 IR Inten    --      1.9803                 3.2176                 4.0851

                     22                     23                     24
                      A                      A                      A
 Frequencies --    518.5830               553.9899               573.5111
 Red. masses --      2.0152                 2.6502                 2.9569
 Frc consts  --      0.3193                 0.4792                 0.5730
 IR Inten    --     41.9952                70.2867                18.0151

                     25                     26                     27
                      A                      A                      A
 Frequencies --    612.1542               627.1041               650.6998
 Red. masses --      2.0946                 4.2854                 2.5333
 Frc consts  --      0.4625                 0.9929                 0.6320
 IR Inten    --     17.3653                 1.4436                16.1457

                     28                     29                     30
                      A                      A                      A
 Frequencies --    767.5723               787.4486               849.0225
 Red. masses --     11.1516                 3.8148                 4.6120
 Frc consts  --      3.8710                 1.3937                 1.9588
 IR Inten    --     34.1132                 1.2365                 8.1210

                     31                     32                     33
                      A                      A                      A
 Frequencies --    860.3234               894.3175               937.5934
 Red. masses --      4.0763                 2.3133                 1.6357
 Frc consts  --      1.7776                 1.0901                 0.8472
 IR Inten    --     13.5208                 6.8763                 0.0762

                     34                     35                     36
                      A                      A                      A
 Frequencies --    938.1652               959.1967               982.5411
 Red. masses --      1.6275                 2.1575                 1.1983
 Frc consts  --      0.8440                 1.1695                 0.6816
 IR Inten    --      0.7581                 7.0403                 0.2991

                     37                     38                     39
                      A                      A                      A
 Frequencies --   1012.8268              1052.3558              1067.4157
 Red. masses --      3.3764                 4.6987                 1.4019
 Frc consts  --      2.0407                 3.0659                 0.9411
 IR Inten    --     59.9961                21.7826                 0.3567

                     40                     41                     42
                      A                      A                      A
 Frequencies --   1072.4693              1093.9413              1162.0415
 Red. masses --      1.4808                 2.9341                 3.0581
 Frc consts  --      1.0035                 2.0688                 2.4331
 IR Inten    --      3.0478               161.5417                13.7825

                     43                     44                     45
                      A                      A                      A
 Frequencies --   1186.9944              1218.7980              1223.1340
 Red. masses --      1.2768                 1.4733                 2.0868
 Frc consts  --      1.0599                 1.2895                 1.8395
 IR Inten    --      1.0377                 2.3188               190.6409

                     46                     47                     48
                      A                      A                      A
 Frequencies --   1229.1621              1277.5061              1286.9022
 Red. masses --      1.5657                 2.7539                 2.6952
 Frc consts  --      1.3937                 2.6481                 2.6298
 IR Inten    --    111.7635               270.7241                15.0141

                     49                     50                     51
                      A                      A                      A
 Frequencies --   1293.1209              1304.0726              1377.6151
 Red. masses --      1.9773                 1.8933                 2.2092
 Frc consts  --      1.9480                 1.8971                 2.4702
 IR Inten    --    103.5455                19.1317               177.9675

                     52                     53                     54
                      A                      A                      A
 Frequencies --   1386.5076              1423.5957              1425.8440
 Red. masses --      1.4990                 1.2860                 1.2901
 Frc consts  --      1.6978                 1.5355                 1.5453
 IR Inten    --     39.0271                18.0716                25.2802

                     55                     56                     57
                      A                      A                      A
 Frequencies --   1439.1817              1451.9139              1484.1696
 Red. masses --      1.5645                 1.2392                 1.3496
 Frc consts  --      1.9092                 1.5392                 1.7516
 IR Inten    --    104.3131                28.1227                31.8232

                     58                     59                     60
                      A                      A                      A
 Frequencies --   1486.7372              1495.3022              1499.9336
 Red. masses --      1.1610                 1.2185                 1.0475
 Frc consts  --      1.5120                 1.6052                 1.3885
 IR Inten    --      8.5459                23.7564                 0.2095

                     61                     62                     63
                      A                      A                      A
 Frequencies --   1512.5019              1516.2151              1520.0060
 Red. masses --      1.0478                 1.1550                 1.0545
 Frc consts  --      1.4123                 1.5644                 1.4354
 IR Inten    --      6.6129                30.2702                 1.2597

                     64                     65                     66
                      A                      A                      A
 Frequencies --   1520.5570              1524.8502              1525.1975
 Red. masses --      1.0515                 1.0641                 1.0492
 Frc consts  --      1.4325                 1.4577                 1.4380
 IR Inten    --      0.6974                23.0753                 8.5223

                     67                     68                     69
                      A                      A                      A
 Frequencies --   1535.4192              1557.8334              1811.1173
 Red. masses --      1.0523                 1.0572                 9.0925
 Frc consts  --      1.4616                 1.5117                17.5722
 IR Inten    --      1.0893                16.9143               413.4245

                     70                     71                     72
                      A                      A                      A
 Frequencies --   1836.8473              3054.8047              3056.9967
 Red. masses --     11.1827                 1.0692                 1.0356
 Frc consts  --     22.2301                 5.8787                 5.7019
 IR Inten    --    208.9102                11.2502                 9.5650

                     73                     74                     75
                      A                      A                      A
 Frequencies --   3058.8221              3065.9626              3079.4444
 Red. masses --      1.0384                 1.0386                 1.0291
 Frc consts  --      5.7243                 5.7523                 5.7498
 IR Inten    --     25.2696                18.5466                29.5345

                     76                     77                     78
                      A                      A                      A
 Frequencies --   3100.5415              3120.2823              3122.9131
 Red. masses --      1.0616                 1.1026                 1.1023
 Frc consts  --      6.0127                 6.3250                 6.3339
 IR Inten    --     23.7487                 7.5893                18.9060

                     79                     80                     81
                      A                      A                      A
 Frequencies --   3126.9352              3132.3297              3137.0182
 Red. masses --      1.0925                 1.1031                 1.1024
 Frc consts  --      6.2939                 6.3768                 6.3918
 IR Inten    --      6.8886                34.3702                49.4295

                     82                     83                     84
                      A                      A                      A
 Frequencies --   3150.4530              3156.3821              3175.4163
 Red. masses --      1.1061                 1.1077                 1.0994
 Frc consts  --      6.4682                 6.5021                 6.5315
 IR Inten    --     15.4872                18.5712                 0.5803

                     85                     86                     87
                      A                      A                      A
 Frequencies --   3178.3937              3184.8594              3640.0137
 Red. masses --      1.0988                 1.1077                 1.0763
 Frc consts  --      6.5403                 6.6200                 8.4023
 IR Inten    --      9.1339                15.2133                39.5081

 - Thermochemistry -
 -------------------
 Temperature   298.150 Kelvin.  Pressure   1.00000 Atm.
 Atom     1 has atomic number  6 and mass  12.00000

 Molecular mass:   203.11576 amu.
 Principal axes and moments of inertia in atomic units:
                           1         2         3
     Eigenvalues --  1383.361135386.944905635.91103
           X            0.99984  -0.01776  -0.00282
           Y            0.01759   0.99845  -0.05275
           Z            0.00375   0.05269   0.99860
 This molecule is an asymmetric top.
 Rotational symmetry number  1.
 Warning -- assumption of classical behavior for rotation
           may cause significant error
 Rotational temperatures (Kelvin)      0.06261     0.01608     0.01537
 Rotational constants (GHZ):           1.30461     0.33502     0.32022
 Zero-point vibrational energy     697346.3 (Joules/Mol)
                                  166.66977 (Kcal/Mol)
 Warning -- explicit consideration of  25 degrees of freedom as
           vibrations may cause significant error
 Vibrational temperatures:     28.33    45.44    54.50    81.70   150.42
          (Kelvin)            181.17   187.01   201.09   281.59   297.16
                              304.13   368.39   382.47   395.78   450.03
                              469.81   506.03   531.41   589.48   621.87
                              665.12   746.13   797.07   825.15   880.75
                              902.26   936.21  1104.37  1132.96  1221.55
                             1237.81  1286.72  1348.99  1349.81  1380.07
                             1413.66  1457.23  1514.11  1535.77  1543.04
                             1573.94  1671.92  1707.82  1753.58  1759.82
                             1768.49  1838.05  1851.57  1860.51  1876.27
                             1982.08  1994.88  2048.24  2051.47  2070.66
                             2088.98  2135.39  2139.08  2151.41  2158.07
                             2176.15  2181.50  2186.95  2187.74  2193.92
                             2194.42  2209.13  2241.37  2605.79  2642.81
                             4395.18  4398.34  4400.96  4411.24  4430.63
                             4460.99  4489.39  4493.18  4498.96  4506.72
                             4513.47  4532.80  4541.33  4568.72  4573.00
                             4582.30  5237.17

 Zero-point correction=                           0.265605 (Hartree/Particle)
 Thermal correction to Energy=                    0.281938
 Thermal correction to Enthalpy=                  0.282883
 Thermal correction to Gibbs Free Energy=         0.220113
 Sum of electronic and zero-point Energies=           -708.669731
 Sum of electronic and thermal Energies=              -708.653397
 Sum of electronic and thermal Enthalpies=            -708.652453
 Sum of electronic and thermal Free Energies=         -708.715223

                     E (Thermal)             CV                S
                      KCal/Mol        Cal/Mol-Kelvin    Cal/Mol-Kelvin
 Total                  176.919             58.654            132.110
 Electronic               0.000              0.000              0.000
 Translational            0.889              2.981             41.830
 Rotational               0.889              2.981             32.107
 Vibrational            175.142             52.692             58.173
 Vibration     1          0.593              1.986              6.665
 Vibration     2          0.594              1.983              5.727
 Vibration     3          0.594              1.982              5.367
 Vibration     4          0.596              1.975              4.566
 Vibration     5          0.605              1.946              3.368
 Vibration     6          0.611              1.927              3.007
 Vibration     7          0.612              1.923              2.946
 Vibration     8          0.615              1.914              2.807
 Vibration     9          0.636              1.846              2.173
 Vibration    10          0.641              1.831              2.074
 Vibration    11          0.643              1.824              2.032
 Vibration    12          0.666              1.753              1.689
 Vibration    13          0.672              1.736              1.623
 Vibration    14          0.677              1.719              1.564
 Vibration    15          0.701              1.649              1.348
 Vibration    16          0.710              1.622              1.277
 Vibration    17          0.728              1.572              1.159
 Vibration    18          0.742              1.535              1.083
 Vibration    19          0.774              1.449              0.928
 Vibration    20          0.793              1.400              0.851
 Vibration    21          0.820              1.334              0.759
 Vibration    22          0.874              1.209              0.613
 Vibration    23          0.909              1.131              0.536
 Vibration    24          0.930              1.089              0.498
 Vibration    25          0.971              1.006              0.429

 Optimization completed.
    -- Stationary point found.
 Normal termination of Gaussian 16 at Thu Dec 10 09:36:53 2020.

 ----------------------------------------------------------------------
 # B3LYP/6-311++G(d,p) empiricaldispersion=gd3bj scf=xqc pop=npa geom=c
 heck
 ----------------------------------------------------------------------

 --------------------------------------
 CID_11687095_JID_4169_Energie_neutraal
 --------------------------------------
 Structure from the checkpoint file:  "JID_4169.chk"
 Charge =  0 Multiplicity = 1

 SCF Done:  E(RB3LYP) =  -709.150761266     A.U. after   14 cycles
 Normal termination of Gaussian 16 at Thu Dec 10 09:39:49 2020.

 ----------------------------------------------------------------------
 # B3LYP/6-311++G(d,p) empiricaldispersion=gd3bj scf=xqc pop=npa geom=c
 heck
 ----------------------------------------------------------------------

 ------------------------------------
 CID_11687095_JID_4169_Energie_kation
 ------------------------------------
 Structure from the checkpoint file:  "JID_4169.chk"
 Charge =  1 Multiplicity = 2

 SCF Done:  E(UB3LYP) =  -708.815533507     A.U. after   25 cycles
 Normal termination of Gaussian 16 at Thu Dec 10 09:46:51 2020.
 Gaussian 16:  ES64L-G16RevA.03 25-Dec-2016

 ----------------------------------------------------------------------
 # B3LYP/6-311++G(d,p) empiricaldispersion=gd3bj scf=xqc pop=npa geom=c
 heck
 ----------------------------------------------------------------------

 -----------------------------------
 CID_11687095_JID_4169_Energie_anion
 -----------------------------------
 Structure from the checkpoint file:  "JID_4169.chk"
 Charge = -1 Multiplicity = 2

                         Standard orientation:
 ---------------------------------------------------------------------
 Center     Atomic      Atomic             Coordinates (Angstroms)
 Number     Number       Type             X           Y           Z
 ---------------------------------------------------------------------
      1          6           0       -3.226406    1.601251   -0.446187
      2          6           0       -2.768666    0.292318    0.196606
      3          6           0       -2.577591    0.465403    1.704678
      4          6           0       -3.733480   -0.845869   -0.140989
      5          8           0       -1.470540    0.058038   -0.448447
      6          6           0       -0.732432   -1.035314   -0.136475
      7          8           0       -1.028771   -1.901360    0.669590
      8          7           0        0.418650   -1.059320   -0.879999
      9          6           0        0.936831    0.064886   -1.644807
     10          6           0        1.501510    1.191687   -0.772576
     11          6           0        2.619054    0.789656    0.170536
     12          8           0        2.961226    1.425787    1.141161
     13          8           0        3.220731   -0.365371   -0.208899
     14          6           0        4.304212   -0.792039    0.634755
     15          1           0       -4.202424    1.894368   -0.046559
     16          1           0       -3.314516    1.487380   -1.531326
     17          1           0       -2.511176    2.403660   -0.238311
     18          1           0       -3.528875    0.755848    2.163780
     19          1           0       -2.231088   -0.461780    2.162019
     20          1           0       -1.846738    1.256455    1.905420
     21          1           0       -3.806096   -0.969925   -1.226828
     22          1           0       -3.397852   -1.784136    0.301718
     23          1           0       -4.731074   -0.606619    0.243343
     24          1           0        1.089013   -1.740059   -0.552014
     25          1           0        1.711312   -0.324072   -2.309990
     26          1           0        0.130357    0.462369   -2.264114
     27          1           0        1.889277    1.998546   -1.409502
     28          1           0        0.708415    1.630692   -0.161017
     29          1           0        5.093452   -0.036542    0.652501
     30          1           0        3.949217   -0.958811    1.654715
     31          1           0        4.668886   -1.720764    0.195673
 ---------------------------------------------------------------------

 SCF Done:  E(UB3LYP) =  -709.138285796     A.U. after   32 cycles

 The electronic state is 2-A.
 Alpha  occ. eigenvalues --  -19.07986 -19.06281 -19.02040 -18.99685 -14.23823
 Alpha  occ. eigenvalues --  -10.22244 -10.21025 -10.15235 -10.13105 -10.11533
 Alpha  occ. eigenvalues --  -10.09075 -10.07016 -10.06792 -10.06761  -1.01798
 Alpha  occ. eigenvalues --   -1.00784  -0.93056  -0.91932  -0.83411  -0.71991
 Alpha  occ. eigenvalues --   -0.69280  -0.62979  -0.60496  -0.60448  -0.57442
 Alpha  occ. eigenvalues --   -0.54289  -0.47947  -0.45417  -0.42139  -0.41459
 Alpha  occ. eigenvalues --   -0.40389  -0.39556  -0.38650  -0.37693  -0.37106
 Alpha  occ. eigenvalues --   -0.35587  -0.34781  -0.33732  -0.32755  -0.32319
 Alpha  occ. eigenvalues --   -0.31601  -0.30048  -0.29554  -0.28615  -0.27887
 Alpha  occ. eigenvalues --   -0.27355  -0.27001  -0.26742  -0.26191  -0.24657
 Alpha  occ. eigenvalues --   -0.22093  -0.20655  -0.19115  -0.18077  -0.16396
 Alpha  occ. eigenvalues --    0.04160
 Alpha virt. eigenvalues --    0.05693   0.06776   0.08059   0.08398   0.08720
 Alpha virt. eigenvalues --    0.09064   0.09216   0.10044   0.10481   0.10798
 Alpha virt. eigenvalues --    0.11540   0.11824   0.12010   0.12470   0.13330

  Beta  occ. eigenvalues --  -19.07974 -19.06272 -19.02028 -18.99681 -14.23814
  Beta  occ. eigenvalues --  -10.22243 -10.21015 -10.15233 -10.13061 -10.11510
  Beta  occ. eigenvalues --  -10.09051 -10.06982 -10.06772 -10.06743  -1.01776
  Beta  occ. eigenvalues --   -1.00773  -0.93036  -0.91923  -0.83391  -0.71972
  Beta  occ. eigenvalues --   -0.69237  -0.62914  -0.60449  -0.60412  -0.57386
  Beta  occ. eigenvalues --   -0.54246  -0.47888  -0.45386  -0.42112  -0.41416
  Beta  occ. eigenvalues --   -0.40356  -0.39506  -0.38617  -0.37666  -0.37079
  Beta  occ. eigenvalues --   -0.35558  -0.34755  -0.33695  -0.32705  -0.32291
  Beta  occ. eigenvalues --   -0.31564  -0.30008  -0.29525  -0.28569  -0.27859
  Beta  occ. eigenvalues --   -0.27316  -0.26964  -0.26716  -0.26168  -0.24634
  Beta  occ. eigenvalues --   -0.22062  -0.20642  -0.19094  -0.18066  -0.16375
  Beta virt. eigenvalues --    0.06294   0.06812   0.07679   0.08415   0.08847
  Beta virt. eigenvalues --    0.09070   0.09433   0.09624   0.10395   0.10983
  Beta virt. eigenvalues --    0.11217   0.11718   0.11826   0.12369   0.12851

 Mulliken charges and spin densities:
               1          2
     1  C    0.519833  -0.924184
     2  C   -1.200099   1.065508
     3  C    0.364958  -0.756738
     4  C    0.255594  -0.675070
     5  O    0.031694   0.007819
     6  C    0.317965  -0.313956
     7  O   -0.296683   0.018532
     8  N   -0.233200   0.066096
     9  C    0.126086  -0.697686
    10  C    0.684245  -0.746938
    11  C   -0.485303   0.316256
    12  O   -0.238776   0.005697
    13  O   -0.139425   0.077443
    14  C    0.829893  -1.065963
    15  H   -0.126787   0.269955
    16  H   -0.223584   0.379025
    17  H   -0.229494   0.377106
    18  H   -0.086611   0.239910
    19  H    0.097687   0.083048
    20  H    0.111892   0.025217
    21  H   -0.001394   0.148759
    22  H    0.130060   0.044288
    23  H   -0.113980   0.267391
    24  H    0.257221   0.072582
    25  H   -0.452466   0.678235
    26  H    0.120917   0.084713
    27  H   -0.524057   0.716065
    28  H    0.331012  -0.093511
    29  H   -0.240473   0.413087
    30  H   -0.073562   0.250710
    31  H   -0.513162   0.666602
 Sum of Mulliken charges =  -1.00000   1.00000

 Dipole moment (field-independent basis, Debye):
    X=             -2.3593    Y=             -0.6770    Z=              1.2126  Tot=              2.7377
 Quadrupole moment (field-independent basis, Debye-Ang):
   XX=           -171.1980   YY=           -127.7479   ZZ=           -122.0806
   XY=              5.2437   XZ=              3.3684   YZ=              2.3360

 Summary of Natural Population Analysis:

                                       Natural Population
                Natural  -----------------------------------------------
    Atom  No    Charge         Core      Valence    Rydberg      Total
 -----------------------------------------------------------------------
      C    1   -0.28913      0.99960     2.28226    0.00727     3.28913
      C    2    0.13473      0.99954     1.85130    0.01444     2.86527
      C    3   -0.30118      0.99960     2.29607    0.00551     3.30118
      C    4   -0.30241      0.99960     2.29632    0.00649     3.30241
      O    5   -0.30442      0.99985     3.29459    0.00998     4.30442
      C    6    0.46580      0.99968     1.50986    0.02466     2.53420
      O    7   -0.33698      0.99987     3.33191    0.00519     4.33698
      N    8   -0.32636      0.99968     2.81662    0.01006     3.82636
      C    9   -0.09129      0.99961     2.07940    0.01228     3.09129
      C   10   -0.24326      0.99958     2.23492    0.00877     3.24326
      C   11    0.41390      0.99968     1.56165    0.02477     2.58610
      O   12   -0.30414      0.99987     3.29848    0.00579     4.30414
      O   13   -0.28560      0.99987     3.27532    0.01042     4.28560
      C   14   -0.10408      0.99959     2.09528    0.00921     3.10408
      H   15    0.10255      0.00000     0.39611    0.00134     0.39745
      H   16    0.10438      0.00000     0.39440    0.00121     0.39562
      H   17    0.10360      0.00000     0.39519    0.00121     0.39640
      H   18    0.10214      0.00000     0.39698    0.00088     0.39786
      H   19    0.11518      0.00000     0.38392    0.00090     0.38482
      H   20    0.10231      0.00000     0.39670    0.00099     0.39769
      H   21    0.10220      0.00000     0.39693    0.00087     0.39780
      H   22    0.11469      0.00000     0.38442    0.00089     0.38531
      H   23    0.10225      0.00000     0.39686    0.00089     0.39775
      H   24    0.19993      0.00000     0.29774    0.00232     0.30007
      H   25    0.10447      0.00000     0.39347    0.00206     0.39553
      H   26    0.10713      0.00000     0.39135    0.00152     0.39287
      H   27    0.11855      0.00000     0.37922    0.00223     0.38145
      H   28    0.11570      0.00000     0.38285    0.00145     0.38430
      H   29    0.09254      0.00000     0.40619    0.00127     0.40746
      H   30    0.09190      0.00000     0.40697    0.00114     0.40810
      H   31    0.09490      0.00000     0.40312    0.00198     0.40510
 =======================================================================
   * Total *    0.00000     13.99562    40.82639    0.17799    55.00000

 Normal termination of Gaussian 16 at Thu Dec 10 09:55:39 2020.
