 Gaussian 16, Revision A.03,

 -----------------------------------------------------------
 # opt freq B3LYP/6-31G(d) empiricaldispersion=gd3bj scf=xqc
 -----------------------------------------------------------

 --------------------------------
 CID_103767435_JID_10850_neutraal
 --------------------------------
 Symbolic Z-matrix:
 Charge =  0 Multiplicity = 1

 SCF Done:  E(RB3LYP) =  -1227.04867626     A.U. after   14 cycles
 SCF Done:  E(RB3LYP) =  -1226.90467234     A.U. after   15 cycles
 SCF Done:  E(RB3LYP) =  -1227.04562261     A.U. after   13 cycles
 SCF Done:  E(RB3LYP) =  -1227.05102680     A.U. after   10 cycles
 SCF Done:  E(RB3LYP) =  -1227.05354474     A.U. after   11 cycles
 SCF Done:  E(RB3LYP) =  -1227.05167376     A.U. after   12 cycles
 SCF Done:  E(RB3LYP) =  -1227.05544143     A.U. after   12 cycles
 SCF Done:  E(RB3LYP) =  -1227.05461169     A.U. after   12 cycles
 SCF Done:  E(RB3LYP) =  -1227.05609144     A.U. after   12 cycles
 SCF Done:  E(RB3LYP) =  -1227.05622286     A.U. after   12 cycles
 SCF Done:  E(RB3LYP) =  -1227.05674362     A.U. after    7 cycles
 SCF Done:  E(RB3LYP) =  -1227.05674381     A.U. after    7 cycles
 SCF Done:  E(RB3LYP) =  -1227.05674388     A.U. after    7 cycles
 SCF Done:  E(RB3LYP) =  -1227.05674394     A.U. after    7 cycles
 Optimization completed.
    -- Stationary point found.
 Normal termination of Gaussian 16 at Sun Dec 13 13:39:53 2020.

 --------------------------------------------------------------------
 #N Geom=AllCheck Guess=TCheck SCRF=Check GenChk RB3LYP/6-31G(d) Freq
 --------------------------------------------------------------------

 Structure from the checkpoint file:  "JID_10850.chk"
 --------------------------------
 CID_103767435_JID_10850_neutraal
 --------------------------------
 Charge =  0 Multiplicity = 1

 SCF Done:  E(RB3LYP) =  -1227.05674394     A.U. after    1 cycles

  Exact polarizability: 275.213  -3.933 187.430   1.043  -9.048 132.651
 Approx polarizability: 337.771  -8.735 309.195   6.416 -24.480 213.773

                      1                      2                      3
                      A                      A                      A
 Frequencies --     23.5811                33.9658                53.1410
 Red. masses --      4.5175                 4.0688                 5.3343
 Frc consts  --      0.0015                 0.0028                 0.0089
 IR Inten    --      0.0570                 0.3743                 0.0977

                      4                      5                      6
                      A                      A                      A
 Frequencies --     72.5007                94.5453               102.3137
 Red. masses --      3.5871                 5.6717                 2.8146
 Frc consts  --      0.0111                 0.0299                 0.0174
 IR Inten    --      1.5767                 2.5234                 0.6792

                      7                      8                      9
                      A                      A                      A
 Frequencies --    125.0459               138.7819               162.1357
 Red. masses --      4.5136                 4.1169                 3.0927
 Frc consts  --      0.0416                 0.0467                 0.0479
 IR Inten    --      4.0746                 0.1344                 2.1470

                     10                     11                     12
                      A                      A                      A
 Frequencies --    171.7680               180.7366               187.0116
 Red. masses --      4.5679                 4.0531                 4.8948
 Frc consts  --      0.0794                 0.0780                 0.1009
 IR Inten    --      2.3814                 0.3046                 3.8775

                     13                     14                     15
                      A                      A                      A
 Frequencies --    211.8274               246.6866               267.8646
 Red. masses --      4.8440                 2.6886                 2.8368
 Frc consts  --      0.1281                 0.0964                 0.1199
 IR Inten    --     21.3983                 6.4627                 1.6925

                     16                     17                     18
                      A                      A                      A
 Frequencies --    297.7924               311.1685               342.0548
 Red. masses --      2.9262                 2.3096                 3.7341
 Frc consts  --      0.1529                 0.1318                 0.2574
 IR Inten    --      2.2817                 0.4995                 1.7037

                     19                     20                     21
                      A                      A                      A
 Frequencies --    359.0148               394.2146               402.3425
 Red. masses --      3.9259                 2.1940                 2.7777
 Frc consts  --      0.2981                 0.2009                 0.2649
 IR Inten    --      2.4852                 3.2603                 1.6554

                     22                     23                     24
                      A                      A                      A
 Frequencies --    438.8705               441.7182               461.6359
 Red. masses --      2.8275                 3.0890                 2.5823
 Frc consts  --      0.3209                 0.3551                 0.3242
 IR Inten    --      9.5371                 1.5088                 1.8476

                     25                     26                     27
                      A                      A                      A
 Frequencies --    483.4489               496.8288               508.0544
 Red. masses --      3.3476                 2.4064                 3.0628
 Frc consts  --      0.4610                 0.3500                 0.4658
 IR Inten    --      7.0976                17.2635                 0.5877

                     28                     29                     30
                      A                      A                      A
 Frequencies --    586.5563               606.6571               611.7988
 Red. masses --      4.4379                 2.8111                 3.9038
 Frc consts  --      0.8996                 0.6096                 0.8609
 IR Inten    --     24.0022                 6.5214                 6.3300

                     31                     32                     33
                      A                      A                      A
 Frequencies --    636.1894               681.7473               690.0276
 Red. masses --      3.9874                 4.1540                 4.2571
 Frc consts  --      0.9509                 1.1375                 1.1943
 IR Inten    --      7.7265                 2.2815                 8.0646

                     34                     35                     36
                      A                      A                      A
 Frequencies --    719.3877               736.9433               768.4895
 Red. masses --      4.0137                 3.6644                 3.6509
 Frc consts  --      1.2238                 1.1725                 1.2704
 IR Inten    --      0.9693                 0.6331                 4.0555

                     37                     38                     39
                      A                      A                      A
 Frequencies --    789.8300               816.2388               831.5165
 Red. masses --      1.5332                 1.1377                 1.4729
 Frc consts  --      0.5635                 0.4466                 0.6000
 IR Inten    --     23.1113               335.6265                 7.4650

                     40                     41                     42
                      A                      A                      A
 Frequencies --    849.3880               857.8692               869.7247
 Red. masses --      1.5952                 1.3187                 2.1479
 Frc consts  --      0.6781                 0.5718                 0.9573
 IR Inten    --     26.0875                63.0241                19.2528

                     43                     44                     45
                      A                      A                      A
 Frequencies --    881.5067               889.8053               904.1727
 Red. masses --      2.2359                 2.2637                 2.1381
 Frc consts  --      1.0237                 1.0560                 1.0299
 IR Inten    --     15.8337                19.7630                 6.1709

                     46                     47                     48
                      A                      A                      A
 Frequencies --    916.2107               942.2141               944.1668
 Red. masses --      1.5998                 1.9444                 1.4957
 Frc consts  --      0.7912                 1.0170                 0.7856
 IR Inten    --      9.6207                21.5294                 9.3379

                     49                     50                     51
                      A                      A                      A
 Frequencies --    960.2376               962.9274               981.8333
 Red. masses --      1.4450                 2.4784                 1.9022
 Frc consts  --      0.7850                 1.3540                 1.0804
 IR Inten    --      8.7711                 1.6929                24.1774

                     52                     53                     54
                      A                      A                      A
 Frequencies --   1009.2859              1021.9634              1073.2809
 Red. masses --      2.2926                 2.3613                 2.2412
 Frc consts  --      1.3760                 1.4530                 1.5211
 IR Inten    --      3.7031                10.1769                12.2934

                     55                     56                     57
                      A                      A                      A
 Frequencies --   1081.9090              1084.7523              1099.5857
 Red. masses --      1.8028                 1.8829                 2.7226
 Frc consts  --      1.2433                 1.3054                 1.9395
 IR Inten    --      8.3236                 0.7662                29.9362

                     58                     59                     60
                      A                      A                      A
 Frequencies --   1115.4122              1122.7242              1158.7511
 Red. masses --      1.8835                 2.4315                 2.1540
 Frc consts  --      1.3807                 1.8058                 1.7040
 IR Inten    --      1.3745                 3.4919                12.1390

                     61                     62                     63
                      A                      A                      A
 Frequencies --   1169.8377              1183.9445              1192.2063
 Red. masses --      1.1692                 1.4116                 1.4356
 Frc consts  --      0.9428                 1.1658                 1.2023
 IR Inten    --      2.0715                 0.4607                 3.5480

                     64                     65                     66
                      A                      A                      A
 Frequencies --   1201.1451              1211.7590              1236.6668
 Red. masses --      1.3702                 1.3349                 1.8119
 Frc consts  --      1.1647                 1.1549                 1.6327
 IR Inten    --      0.1837                19.4951                 1.8709

                     67                     68                     69
                      A                      A                      A
 Frequencies --   1247.7757              1252.2233              1279.4154
 Red. masses --      1.5070                 1.6385                 1.4021
 Frc consts  --      1.3824                 1.5138                 1.3523
 IR Inten    --      5.5614                10.3057                22.2040

                     70                     71                     72
                      A                      A                      A
 Frequencies --   1288.5811              1290.6093              1314.1754
 Red. masses --      1.3108                 1.2648                 1.1185
 Frc consts  --      1.2824                 1.2412                 1.1381
 IR Inten    --     40.6414                 6.0489                 8.7857

                     73                     74                     75
                      A                      A                      A
 Frequencies --   1324.2085              1327.7009              1343.7264
 Red. masses --      1.2216                 1.2042                 1.2954
 Frc consts  --      1.2621                 1.2507                 1.3781
 IR Inten    --     23.4088                 4.2851                 6.4307

                     76                     77                     78
                      A                      A                      A
 Frequencies --   1351.2667              1376.4988              1377.7473
 Red. masses --      4.4472                 1.4225                 1.1495
 Frc consts  --      4.7843                 1.5880                 1.2855
 IR Inten    --      2.2945                 4.5516                42.8448

                     79                     80                     81
                      A                      A                      A
 Frequencies --   1388.5338              1394.2333              1395.2356
 Red. masses --      1.4717                 1.4323                 1.4751
 Frc consts  --      1.6718                 1.6405                 1.6919
 IR Inten    --      3.1422                84.0723                11.6140

                     82                     83                     84
                      A                      A                      A
 Frequencies --   1407.8561              1408.6041              1436.9764
 Red. masses --      1.4460                 1.5793                 2.6133
 Frc consts  --      1.6886                 1.8463                 3.1793
 IR Inten    --      5.9664                11.4236               167.6481

                     85                     86                     87
                      A                      A                      A
 Frequencies --   1468.9513              1485.7666              1490.7670
 Red. masses --      3.3940                 1.2714                 1.1240
 Frc consts  --      4.3149                 1.6536                 1.4718
 IR Inten    --    115.9820                 9.5423                 7.7025

                     88                     89                     90
                      A                      A                      A
 Frequencies --   1496.0782              1501.9735              1502.2147
 Red. masses --      1.0884                 1.1656                 1.1261
 Frc consts  --      1.4353                 1.5493                 1.4972
 IR Inten    --      4.5330                31.4901                 1.2130

                     91                     92                     93
                      A                      A                      A
 Frequencies --   1509.0712              1521.6201              1524.7426
 Red. masses --      1.0855                 1.0872                 1.1542
 Frc consts  --      1.4564                 1.4831                 1.5809
 IR Inten    --      5.2918                 4.0466                46.0564

                     94                     95                     96
                      A                      A                      A
 Frequencies --   1531.6808              1552.0959              1553.6316
 Red. masses --      1.1034                 1.2657                 2.1337
 Frc consts  --      1.5251                 1.7965                 3.0345
 IR Inten    --      1.4640                 8.7303                11.0867

                     97                     98                     99
                      A                      A                      A
 Frequencies --   1558.0842              1623.4494              1670.7261
 Red. masses --      1.5918                 6.0750                 5.9928
 Frc consts  --      2.2768                 9.4335                 9.8557
 IR Inten    --     23.0000                12.0277                15.2731

                    100                    101                    102
                      A                      A                      A
 Frequencies --   1727.5264              3014.2962              3017.1235
 Red. masses --      3.5748                 1.0567                 1.0693
 Frc consts  --      6.2857                 5.6571                 5.7352
 IR Inten    --    261.9319                47.3337                31.0670

                    103                    104                    105
                      A                      A                      A
 Frequencies --   3018.1713              3033.7270              3035.6588
 Red. masses --      1.0700                 1.0677                 1.0851
 Frc consts  --      5.7427                 5.7896                 5.8916
 IR Inten    --      7.2784                20.2145                 7.0440

                    106                    107                    108
                      A                      A                      A
 Frequencies --   3040.2950              3052.6843              3065.6371
 Red. masses --      1.0615                 1.0841                 1.0601
 Frc consts  --      5.7811                 5.9520                 5.8699
 IR Inten    --     32.2691                90.6462                19.7502

                    109                    110                    111
                      A                      A                      A
 Frequencies --   3068.9247              3074.5198              3078.3092
 Red. masses --      1.0924                 1.0923                 1.0633
 Frc consts  --      6.0620                 6.0836                 5.9363
 IR Inten    --     36.8154                26.5547                10.1989

                    112                    113                    114
                      A                      A                      A
 Frequencies --   3078.9958              3087.2847              3089.7612
 Red. masses --      1.0651                 1.0958                 1.1048
 Frc consts  --      5.9492                 6.1538                 6.2145
 IR Inten    --     22.0820                72.3991                49.3910

                    115                    116                    117
                      A                      A                      A
 Frequencies --   3098.5623              3117.3223              3125.6501
 Red. masses --      1.0996                 1.1049                 1.1014
 Frc consts  --      6.2203                 6.3262                 6.3397
 IR Inten    --     19.9344                25.1534                16.6070

                    118                    119                    120
                      A                      A                      A
 Frequencies --   3135.6062              3176.7590              3201.4613
 Red. masses --      1.1008                 1.0890                 1.0902
 Frc consts  --      6.3770                 6.4749                 6.5835
 IR Inten    --     14.5580                14.9977                 3.2269

                    121                    122                    123
                      A                      A                      A
 Frequencies --   3221.7181              3424.0948              3485.1866
 Red. masses --      1.0913                 1.0770                 1.0693
 Frc consts  --      6.6738                 7.4395                 7.6527
 IR Inten    --     10.3667                44.7041               713.3473

 - Thermochemistry -
 -------------------
 Temperature   298.150 Kelvin.  Pressure   1.00000 Atm.
 Atom     1 has atomic number  6 and mass  12.00000

 Molecular mass:   293.14495 amu.
 Principal axes and moments of inertia in atomic units:
                           1         2         3
     Eigenvalues --  2383.34026********************
           X            0.99998  -0.00531  -0.00221
           Y            0.00530   0.99998  -0.00419
           Z            0.00223   0.00418   0.99999
 This molecule is an asymmetric top.
 Rotational symmetry number  1.
 Warning -- assumption of classical behavior for rotation
           may cause significant error
 Rotational temperatures (Kelvin)      0.03634     0.00620     0.00558
 Rotational constants (GHZ):           0.75723     0.12927     0.11634
 Zero-point vibrational energy     981375.7 (Joules/Mol)
                                  234.55443 (Kcal/Mol)
 Warning -- explicit consideration of  30 degrees of freedom as
           vibrations may cause significant error
 Vibrational temperatures:     33.93    48.87    76.46   104.31   136.03
          (Kelvin)            147.21   179.91   199.68   233.28   247.14
                              260.04   269.07   304.77   354.93   385.40
                              428.46   447.70   492.14   516.54   567.19
                              578.88   631.44   635.53   664.19   695.58
                              714.83   730.98   843.92   872.84   880.24
                              915.33   980.88   992.80  1035.04  1060.30
                             1105.68  1136.39  1174.39  1196.37  1222.08
                             1234.28  1251.34  1268.29  1280.23  1300.90
                             1318.22  1355.64  1358.45  1381.57  1385.44
                             1412.64  1452.14  1470.38  1544.21  1556.63
                             1560.72  1582.06  1604.83  1615.35  1667.18
                             1683.14  1703.43  1715.32  1728.18  1743.45
                             1779.29  1795.27  1801.67  1840.79  1853.98
                             1856.90  1890.81  1905.24  1910.27  1933.32
                             1944.17  1980.47  1982.27  1997.79  2005.99
                             2007.43  2025.59  2026.67  2067.49  2113.49
                             2137.69  2144.88  2152.52  2161.00  2161.35
                             2171.22  2189.27  2193.76  2203.75  2233.12
                             2235.33  2241.74  2335.78  2403.80  2485.53
                             4336.90  4340.97  4342.48  4364.86  4367.64
                             4374.31  4392.13  4410.77  4415.50  4423.55
                             4429.00  4429.99  4441.91  4445.48  4458.14
                             4485.13  4497.11  4511.44  4570.65  4606.19
                             4635.33  4926.51  5014.41

 Zero-point correction=                           0.373786 (Hartree/Particle)
 Thermal correction to Energy=                    0.392950
 Thermal correction to Enthalpy=                  0.393895
 Thermal correction to Gibbs Free Energy=         0.325383
 Sum of electronic and zero-point Energies=          -1226.682958
 Sum of electronic and thermal Energies=             -1226.663794
 Sum of electronic and thermal Enthalpies=           -1226.662849
 Sum of electronic and thermal Free Energies=        -1226.731361

                     E (Thermal)             CV                S
                      KCal/Mol        Cal/Mol-Kelvin    Cal/Mol-Kelvin
 Total                  246.580             74.724            144.195
 Electronic               0.000              0.000              0.000
 Translational            0.889              2.981             42.924
 Rotational               0.889              2.981             34.600
 Vibrational            244.803             68.763             66.671
 Vibration     1          0.593              1.985              6.307
 Vibration     2          0.594              1.983              5.583
 Vibration     3          0.596              1.976              4.697
 Vibration     4          0.599              1.967              4.084
 Vibration     5          0.603              1.953              3.564
 Vibration     6          0.604              1.947              3.410
 Vibration     7          0.610              1.928              3.021
 Vibration     8          0.614              1.915              2.821
 Vibration     9          0.622              1.889              2.525
 Vibration    10          0.626              1.877              2.416
 Vibration    11          0.630              1.866              2.321
 Vibration    12          0.632              1.858              2.257
 Vibration    13          0.643              1.823              2.028
 Vibration    14          0.661              1.768              1.754
 Vibration    15          0.673              1.732              1.610
 Vibration    16          0.691              1.678              1.429
 Vibration    17          0.700              1.652              1.356
 Vibration    18          0.721              1.591              1.203
 Vibration    19          0.734              1.557              1.126
 Vibration    20          0.761              1.483              0.984
 Vibration    21          0.768              1.465              0.954
 Vibration    22          0.799              1.385              0.830
 Vibration    23          0.801              1.379              0.821
 Vibration    24          0.819              1.335              0.761
 Vibration    25          0.840              1.287              0.701
 Vibration    26          0.852              1.257              0.666
 Vibration    27          0.863              1.232              0.638
 Vibration    28          0.944              1.060              0.473
 Vibration    29          0.965              1.018              0.438
 Vibration    30          0.971              1.007              0.430

                           ! Non-Optimized Parameters !
 Normal termination of Gaussian 16 at Sun Dec 13 14:02:37 2020.

 ----------------------------------------------------------------------
 # B3LYP/6-311++G(d,p) empiricaldispersion=gd3bj scf=xqc pop=npa geom=c
 heck
 ----------------------------------------------------------------------

 ----------------------------------------
 CID_103767435_JID_10850_Energie_neutraal
 ----------------------------------------
 Structure from the checkpoint file:  "JID_10850.chk"
 Charge =  0 Multiplicity = 1

 SCF Done:  E(RB3LYP) =  -1227.31657058     A.U. after   16 cycles
 Normal termination of Gaussian 16 at Sun Dec 13 14:14:58 2020.

 ----------------------------------------------------------------------
 # B3LYP/6-311++G(d,p) empiricaldispersion=gd3bj scf=xqc pop=npa geom=c
 heck
 ----------------------------------------------------------------------

 --------------------------------------
 CID_103767435_JID_10850_Energie_kation
 --------------------------------------
 Structure from the checkpoint file:  "JID_10850.chk"
 Charge =  1 Multiplicity = 2

 SCF Done:  E(UB3LYP) =  -1227.02263665     A.U. after   33 cycles
 SCF Done:  E(UB3LYP) =  -1227.02263739     a.u. after    2 cycles
 Normal termination of Gaussian 16 at Sun Dec 13 15:20:09 2020.
 Gaussian 16:  ES64L-G16RevA.03 25-Dec-2016

 ----------------------------------------------------------------------
 # B3LYP/6-311++G(d,p) empiricaldispersion=gd3bj scf=xqc pop=npa geom=c
 heck
 ----------------------------------------------------------------------

 -------------------------------------
 CID_103767435_JID_10850_Energie_anion
 -------------------------------------
 Structure from the checkpoint file:  "JID_10850.chk"
 Charge = -1 Multiplicity = 2

                         Standard orientation:
 ---------------------------------------------------------------------
 Center     Atomic      Atomic             Coordinates (Angstroms)
 Number     Number       Type             X           Y           Z
 ---------------------------------------------------------------------
      1          6           0        5.947173   -0.732045   -0.089061
      2          6           0        5.844728    0.792502    0.008714
      3          6           0        4.544131    1.275293   -0.640876
      4          6           0        3.326691    0.487192   -0.195091
      5          6           0        3.450782   -0.778070    0.407064
      6          6           0        4.808437   -1.388071    0.698361
      7          6           0        2.290001   -1.465561    0.780007
      8          6           0        1.024072   -0.937425    0.551002
      9          6           0        0.893499    0.318334   -0.057069
     10          6           0        2.052008    1.020394   -0.399728
     11          6           0       -0.413932    1.015865   -0.281021
     12          8           0       -0.530839    2.207905    0.049515
     13          7           0       -1.444342    0.372645   -0.895566
     14          6           0       -1.607327   -1.041107   -1.178346
     15          6           0       -2.365593   -1.791507   -0.065455
     16         16           0       -4.193638   -1.892108   -0.213193
     17          6           0       -4.841965   -0.178952   -0.403387
     18          6           0       -4.918371    0.712401    0.842593
     19          6           0       -3.633595    1.458848    1.185720
     20          8           0       -3.289137    2.282340    0.076552
     21          1           0        5.888840   -1.031562   -1.144689
     22          1           0        6.912763   -1.086080    0.289589
     23          1           0        5.863655    1.089622    1.066399
     24          1           0        6.702807    1.274657   -0.473205
     25          1           0        4.382830    2.340951   -0.438572
     26          1           0        4.638707    1.186883   -1.733578
     27          1           0        4.775238   -2.467095    0.503100
     28          1           0        5.014114   -1.283666    1.774340
     29          1           0        2.383933   -2.434413    1.265390
     30          1           0        0.150786   -1.489164    0.880248
     31          1           0        1.946902    2.010891   -0.832874
     32          1           0       -2.283141    0.954823   -0.928437
     33          1           0       -2.141225   -1.149549   -2.128043
     34          1           0       -0.616805   -1.481261   -1.311283
     35          1           0       -2.077587   -2.848832   -0.076193
     36          1           0       -2.083270   -1.386270    0.910573
     37          1           0       -4.329138    0.335496   -1.220470
     38          1           0       -5.856615   -0.379089   -0.763560
     39          1           0       -5.694410    1.467585    0.659047
     40          1           0       -5.239867    0.119003    1.706053
     41          1           0       -3.797351    2.069062    2.086082
     42          1           0       -2.823904    0.751309    1.416958
     43          1           0       -2.353289    2.571409    0.184081
 ---------------------------------------------------------------------

 SCF Done:  E(UB3LYP) =  -1227.31017238     A.U. after   33 cycles
 SCF Done:  E(UB3LYP) =  -1227.31017238     a.u. after    1 cycles

 The electronic state is 2-A.
 Alpha  occ. eigenvalues --  -88.75606 -19.02528 -18.97867 -14.22953 -10.15907
 Alpha  occ. eigenvalues --  -10.12968 -10.12492 -10.11862 -10.11831 -10.09141
 Alpha  occ. eigenvalues --  -10.06992 -10.06787 -10.06635 -10.06624 -10.06566
 Alpha  occ. eigenvalues --  -10.06434 -10.06128 -10.05941 -10.05861 -10.05450
 Alpha  occ. eigenvalues --   -7.84200  -5.80611  -5.80214  -5.79565  -0.93638
 Alpha  occ. eigenvalues --   -0.92103  -0.82426  -0.75717  -0.72983  -0.71042
 Alpha  occ. eigenvalues --   -0.68911  -0.66289  -0.64054  -0.63405  -0.61302
 Alpha  occ. eigenvalues --   -0.58391  -0.54359  -0.52798  -0.51698  -0.49628
 Alpha  occ. eigenvalues --   -0.48624  -0.47811  -0.44557  -0.43397  -0.41575
 Alpha  occ. eigenvalues --   -0.40276  -0.39079  -0.37646  -0.36798  -0.36465
 Alpha  occ. eigenvalues --   -0.35853  -0.34578  -0.34037  -0.33159  -0.32934
 Alpha  occ. eigenvalues --   -0.32226  -0.31783  -0.31492  -0.30352  -0.29842
 Alpha  occ. eigenvalues --   -0.28811  -0.28547  -0.28342  -0.27804  -0.27182
 Alpha  occ. eigenvalues --   -0.26523  -0.24783  -0.23966  -0.23592  -0.23425
 Alpha  occ. eigenvalues --   -0.22236  -0.21394  -0.20942  -0.19253  -0.16100
 Alpha  occ. eigenvalues --   -0.16013  -0.14329  -0.13825  -0.13163   0.04231
 Alpha virt. eigenvalues --    0.05599   0.06426   0.06901   0.07261   0.07841
 Alpha virt. eigenvalues --    0.08507   0.08673   0.08894   0.09296   0.09640
 Alpha virt. eigenvalues --    0.09814   0.10454   0.10547   0.10965   0.11127

  Beta  occ. eigenvalues --  -88.75603 -19.02528 -18.97751 -14.22918 -10.15760
  Beta  occ. eigenvalues --  -10.12962 -10.12493 -10.11853 -10.11824 -10.09132
  Beta  occ. eigenvalues --  -10.06986 -10.06773 -10.06651 -10.06613 -10.06571
  Beta  occ. eigenvalues --  -10.06385 -10.06002 -10.05945 -10.05644 -10.05358
  Beta  occ. eigenvalues --   -7.84197  -5.80609  -5.80212  -5.79563  -0.93524
  Beta  occ. eigenvalues --   -0.91976  -0.82318  -0.75528  -0.72962  -0.70929
  Beta  occ. eigenvalues --   -0.68880  -0.66125  -0.63832  -0.63379  -0.61157
  Beta  occ. eigenvalues --   -0.58347  -0.54175  -0.52767  -0.51505  -0.49544
  Beta  occ. eigenvalues --   -0.48585  -0.47696  -0.44422  -0.43372  -0.41531
  Beta  occ. eigenvalues --   -0.40187  -0.39037  -0.37511  -0.36683  -0.36413
  Beta  occ. eigenvalues --   -0.35798  -0.34490  -0.33950  -0.33070  -0.32856
  Beta  occ. eigenvalues --   -0.32140  -0.31740  -0.31326  -0.30273  -0.29722
  Beta  occ. eigenvalues --   -0.28609  -0.28504  -0.28231  -0.27520  -0.27043
  Beta  occ. eigenvalues --   -0.26497  -0.24710  -0.23929  -0.23495  -0.23077
  Beta  occ. eigenvalues --   -0.22208  -0.21319  -0.20875  -0.19234  -0.15813
  Beta  occ. eigenvalues --   -0.15738  -0.14265  -0.13395  -0.12316
  Beta virt. eigenvalues --    0.05897   0.06580   0.07059   0.07274   0.07934
  Beta virt. eigenvalues --    0.08266   0.08676   0.08759   0.09114   0.09346
  Beta virt. eigenvalues --    0.09672   0.09967   0.10453   0.10617   0.11035

 Mulliken charges and spin densities:
               1          2
     1  C   -0.003982  -0.344412
     2  C   -0.367901   0.084099
     3  C   -0.125561  -0.522980
     4  C    0.257492  -0.117905
     5  C   -0.222035   0.027759
     6  C    0.120322  -0.499984
     7  C   -0.252851  -0.001038
     8  C   -0.727182   0.326506
     9  C    0.926808   0.046120
    10  C    0.171853   0.035134
    11  C   -0.427931   0.000500
    12  O   -0.327983   0.041884
    13  N   -0.027963   0.012088
    14  C   -0.624734  -0.039875
    15  C    0.006914  -0.080706
    16  S    0.079833  -0.227480
    17  C   -0.132104   0.033567
    18  C   -0.145522  -0.332752
    19  C   -0.214807  -0.060656
    20  O   -0.276762   0.011129
    21  H    0.092982   0.027428
    22  H   -0.471145   0.649125
    23  H    0.040306   0.092116
    24  H   -0.138512   0.296188
    25  H    0.127069   0.008657
    26  H    0.100500   0.060728
    27  H    0.163490  -0.038886
    28  H   -0.160214   0.346437
    29  H   -0.067460   0.238608
    30  H   -0.018433   0.053330
    31  H    0.176189   0.002269
    32  H    0.354627  -0.009944
    33  H    0.121529   0.065105
    34  H    0.189193  -0.015770
    35  H    0.077904   0.145013
    36  H    0.078990   0.065742
    37  H    0.176340  -0.028948
    38  H   -0.078769   0.328866
    39  H    0.067055   0.094379
    40  H   -0.008573   0.149955
    41  H    0.069017   0.091198
    42  H    0.139176  -0.015790
    43  H    0.282834   0.003195
 Sum of Mulliken charges =  -1.00000   1.00000

 Dipole moment (field-independent basis, Debye):
    X=             -5.0409    Y=             -1.0390    Z=             -2.1828  Tot=              5.5906
 Quadrupole moment (field-independent basis, Debye-Ang):
   XX=           -256.5459   YY=           -164.5573   ZZ=           -151.2322
   XY=              3.4972   XZ=            -10.0188   YZ=              1.9069

 Summary of Natural Population Analysis:

                                       Natural Population
                Natural  -----------------------------------------------
    Atom  No    Charge         Core      Valence    Rydberg      Total
 -----------------------------------------------------------------------
      C    1   -0.18728      0.99964     2.17898    0.00867     3.18728
      C    2   -0.18899      0.99964     2.18061    0.00874     3.18899
      C    3   -0.19373      0.99960     2.18451    0.00961     3.19373
      C    4   -0.02353      0.99947     2.01558    0.00848     3.02353
      C    5    0.02540      0.99947     1.96633    0.00880     2.97460
      C    6   -0.19758      0.99960     2.18931    0.00867     3.19758
      C    7   -0.10419      0.99952     2.09577    0.00890     3.10419
      C    8   -0.09219      0.99953     2.08418    0.00848     3.09219
      C    9   -0.05092      0.99946     2.04062    0.01084     3.05092
      C   10   -0.06005      0.99949     2.05256    0.00800     3.06005
      C   11    0.36382      0.99957     1.61402    0.02259     2.63618
      O   12   -0.33836      0.99987     3.33339    0.00510     4.33836
      N   13   -0.32393      0.99966     2.81529    0.00898     3.82393
      C   14   -0.09907      0.99961     2.08807    0.01139     3.09907
      C   15   -0.26112      0.99958     2.25134    0.01020     3.26112
      S   16    0.08120      4.99963     2.90130    0.01787     7.91880
      C   17   -0.25640      0.99957     2.24503    0.01180     3.25640
      C   18   -0.20792      0.99961     2.19812    0.01019     3.20792
      C   19   -0.01616      0.99959     2.00304    0.01353     3.01616
      O   20   -0.39288      0.99989     3.38714    0.00585     4.39288
      H   21    0.09140      0.00000     0.40746    0.00114     0.40860
      H   22    0.09934      0.00000     0.39919    0.00148     0.40066
      H   23    0.09508      0.00000     0.40369    0.00123     0.40492
      H   24    0.09620      0.00000     0.40293    0.00086     0.40380
      H   25    0.10088      0.00000     0.39816    0.00096     0.39912
      H   26    0.09729      0.00000     0.40155    0.00116     0.40271
      H   27    0.09914      0.00000     0.39988    0.00098     0.40086
      H   28    0.10456      0.00000     0.39332    0.00212     0.39544
      H   29    0.09448      0.00000     0.40421    0.00131     0.40552
      H   30    0.09363      0.00000     0.40464    0.00173     0.40637
      H   31    0.10132      0.00000     0.39758    0.00110     0.39868
      H   32    0.20227      0.00000     0.29465    0.00308     0.29773
      H   33    0.09727      0.00000     0.40165    0.00108     0.40273
      H   34    0.11180      0.00000     0.38715    0.00105     0.38820
      H   35    0.10867      0.00000     0.39017    0.00116     0.39133
      H   36    0.10270      0.00000     0.39571    0.00159     0.39730
      H   37    0.10476      0.00000     0.39383    0.00141     0.39524
      H   38    0.10817      0.00000     0.39075    0.00108     0.39183
      H   39    0.10062      0.00000     0.39813    0.00125     0.39938
      H   40    0.10221      0.00000     0.39637    0.00141     0.39779
      H   41    0.07984      0.00000     0.41906    0.00109     0.42016
      H   42    0.08037      0.00000     0.41809    0.00154     0.41963
      H   43    0.25190      0.00000     0.24518    0.00292     0.24810
 =======================================================================
   * Total *    0.00001     23.99202    54.76856    0.23941    78.99999

 Normal termination of Gaussian 16 at Sun Dec 13 15:53:58 2020.
