 Gaussian 16, Revision A.03,

 -----------------------------------------------------------
 # opt freq B3LYP/6-31G(d) empiricaldispersion=gd3bj scf=xqc
 -----------------------------------------------------------

 -------------------------------
 CID_152014689_JID_4793_neutraal
 -------------------------------
 Symbolic Z-matrix:
 Charge =  0 Multiplicity = 1

 SCF Done:  E(RB3LYP) =  -1035.33189316     A.U. after   16 cycles
 SCF Done:  E(RB3LYP) =  -1035.33580543     A.U. after   15 cycles
 SCF Done:  E(RB3LYP) =  -1035.33395434     A.U. after   15 cycles
 SCF Done:  E(RB3LYP) =  -1035.33607679     A.U. after   15 cycles
 SCF Done:  E(RB3LYP) =  -1035.33809819     A.U. after   12 cycles
 SCF Done:  E(RB3LYP) =  -1035.33885011     A.U. after   14 cycles
 SCF Done:  E(RB3LYP) =  -1035.33921675     A.U. after   15 cycles
 SCF Done:  E(RB3LYP) =  -1035.33913417     A.U. after   15 cycles
 SCF Done:  E(RB3LYP) =  -1035.33957235     A.U. after   13 cycles
 SCF Done:  E(RB3LYP) =  -1035.33967681     A.U. after   14 cycles
 SCF Done:  E(RB3LYP) =  -1035.33979063     A.U. after    8 cycles
 SCF Done:  E(RB3LYP) =  -1035.33979088     A.U. after    8 cycles
 SCF Done:  E(RB3LYP) =  -1035.33979105     A.U. after    8 cycles
 SCF Done:  E(RB3LYP) =  -1035.33979117     A.U. after    8 cycles
 SCF Done:  E(RB3LYP) =  -1035.33979120     A.U. after    8 cycles
 SCF Done:  E(RB3LYP) =  -1035.33979119     A.U. after    8 cycles
 Optimization completed.
    -- Stationary point found.
 Normal termination of Gaussian 16 at Thu Dec 10 10:00:29 2020.

 --------------------------------------------------------------------
 #N Geom=AllCheck Guess=TCheck SCRF=Check GenChk RB3LYP/6-31G(d) Freq
 --------------------------------------------------------------------

 Structure from the checkpoint file:  "JID_4793.chk"
 -------------------------------
 CID_152014689_JID_4793_neutraal
 -------------------------------
 Charge =  0 Multiplicity = 1

 SCF Done:  E(RB3LYP) =  -1035.33979119     A.U. after    1 cycles

  Exact polarizability: 149.335   6.199  99.508  21.268 -16.997  98.349
 Approx polarizability: 230.424   0.210 165.958  58.088 -54.283 191.697

                      1                      2                      3
                      A                      A                      A
 Frequencies --     31.6282                34.7075                57.8255
 Red. masses --      8.1359                 5.2734                 5.6815
 Frc consts  --      0.0048                 0.0037                 0.0112
 IR Inten    --      1.0696                 0.1063                 0.5196

                      4                      5                      6
                      A                      A                      A
 Frequencies --     76.5800                92.2164               111.4075
 Red. masses --      2.1449                 8.0477                 1.6554
 Frc consts  --      0.0074                 0.0403                 0.0121
 IR Inten    --      5.9868                 0.2693                 0.7625

                      7                      8                      9
                      A                      A                      A
 Frequencies --    119.3784               151.5716               193.3095
 Red. masses --      4.5303                 7.5947                 4.2070
 Frc consts  --      0.0380                 0.1028                 0.0926
 IR Inten    --      1.5919                 0.4517                10.4939

                     10                     11                     12
                      A                      A                      A
 Frequencies --    229.5490               293.6972               302.7105
 Red. masses --      8.9507                 3.2545                 4.1943
 Frc consts  --      0.2779                 0.1654                 0.2264
 IR Inten    --      7.8450                 2.6212                 4.5562

                     13                     14                     15
                      A                      A                      A
 Frequencies --    340.9330               360.1961               438.4259
 Red. masses --      5.0952                 7.9780                 2.9771
 Frc consts  --      0.3489                 0.6098                 0.3372
 IR Inten    --      2.1296                14.1830                 2.5666

                     16                     17                     18
                      A                      A                      A
 Frequencies --    460.1425               547.6061               569.0271
 Red. masses --      4.1348                 3.5883                13.4551
 Frc consts  --      0.5158                 0.6340                 2.5669
 IR Inten    --      3.0188                10.3262                15.6762

                     19                     20                     21
                      A                      A                      A
 Frequencies --    577.1921               634.6575               644.7846
 Red. masses --      7.9399                 1.5020                 4.6107
 Frc consts  --      1.5585                 0.3564                 1.1294
 IR Inten    --      1.9887                56.2003                13.9340

                     22                     23                     24
                      A                      A                      A
 Frequencies --    650.4518               664.4571               720.6233
 Red. masses --      4.3551                 5.1376                 2.5223
 Frc consts  --      1.0856                 1.3364                 0.7717
 IR Inten    --     19.4265                 8.3787                27.4954

                     25                     26                     27
                      A                      A                      A
 Frequencies --    741.6886               832.0998               937.2823
 Red. masses --     10.4239                 3.1013                 2.1985
 Frc consts  --      3.3785                 1.2651                 1.1379
 IR Inten    --      7.0254                 4.3082                20.9128

                     28                     29                     30
                      A                      A                      A
 Frequencies --    970.2595               998.2653              1006.6614
 Red. masses --      2.4762                 2.7543                 7.4182
 Frc consts  --      1.3735                 1.6171                 4.4291
 IR Inten    --     33.7894                10.4169                23.0316

                     31                     32                     33
                      A                      A                      A
 Frequencies --   1049.7976              1055.2876              1057.1235
 Red. masses --      2.4014                 1.7935                 3.9277
 Frc consts  --      1.5593                 1.1767                 2.5861
 IR Inten    --      8.1152                 4.2901                14.9397

                     34                     35                     36
                      A                      A                      A
 Frequencies --   1165.2645              1185.5532              1227.0343
 Red. masses --      2.3597                 3.7967                 1.1407
 Frc consts  --      1.8878                 3.1441                 1.0119
 IR Inten    --     22.4232                53.8732                 3.6225

                     37                     38                     39
                      A                      A                      A
 Frequencies --   1269.9713              1289.0786              1330.1734
 Red. masses --      1.4558                 3.5438                 1.8839
 Frc consts  --      1.3834                 3.4696                 1.9639
 IR Inten    --     11.0072                52.2494                20.6261

                     40                     41                     42
                      A                      A                      A
 Frequencies --   1360.5293              1373.9799              1389.5779
 Red. masses --      4.1404                 1.8868                 3.5236
 Frc consts  --      4.5156                 2.0986                 4.0087
 IR Inten    --     36.0140                82.6637               178.7496

                     43                     44                     45
                      A                      A                      A
 Frequencies --   1405.2510              1423.0935              1470.8046
 Red. masses --      1.4293                 1.4844                 1.3701
 Frc consts  --      1.6630                 1.7713                 1.7463
 IR Inten    --      8.5681                73.7254                49.8498

                     46                     47                     48
                      A                      A                      A
 Frequencies --   1475.5842              1487.5469              1492.0217
 Red. masses --      2.9154                 1.0790                 1.0477
 Frc consts  --      3.7400                 1.4068                 1.3742
 IR Inten    --     46.9117                21.4698                 9.8228

                     49                     50                     51
                      A                      A                      A
 Frequencies --   1512.5782              1563.1026              1786.0264
 Red. masses --      1.0866                 4.7010                10.7282
 Frc consts  --      1.4648                 6.7674                20.1629
 IR Inten    --      4.8641                15.2983               177.1909

                     52                     53                     54
                      A                      A                      A
 Frequencies --   2262.5999              3056.4629              3064.0439
 Red. masses --     13.6303                 1.0630                 1.0366
 Frc consts  --     41.1122                 5.8510                 5.7342
 IR Inten    --    340.5227                34.0770                 0.1600

                     55                     56                     57
                      A                      A                      A
 Frequencies --   3088.2675              3117.7699              3123.8515
 Red. masses --      1.0640                 1.1020                 1.0990
 Frc consts  --      5.9791                 6.3115                 6.3188
 IR Inten    --     13.6007                18.0410                 2.5137

                     58                     59                     60
                      A                      A                      A
 Frequencies --   3159.9827              3178.2051              3646.7641
 Red. masses --      1.1028                 1.1041                 1.0819
 Frc consts  --      6.4883                 6.5707                 8.4776
 IR Inten    --      0.4346                10.2995               120.3149

 - Thermochemistry -
 -------------------
 Temperature   298.150 Kelvin.  Pressure   1.00000 Atm.
 Atom     1 has atomic number  6 and mass  12.00000

 Molecular mass:   212.04803 amu.
 Principal axes and moments of inertia in atomic units:
                           1         2         3
     Eigenvalues --  1843.210374063.822484558.90086
           X            1.00000   0.00223   0.00089
           Y           -0.00214   0.99606  -0.08862
           Z           -0.00109   0.08862   0.99606
 This molecule is an asymmetric top.
 Rotational symmetry number  1.
 Warning -- assumption of classical behavior for rotation
           may cause significant error
 Rotational temperatures (Kelvin)      0.04699     0.02131     0.01900
 Rotational constants (GHZ):           0.97913     0.44410     0.39587
 Zero-point vibrational energy     417835.6 (Joules/Mol)
                                   99.86511 (Kcal/Mol)
 Warning -- explicit consideration of  19 degrees of freedom as
           vibrations may cause significant error
 Vibrational temperatures:     45.51    49.94    83.20   110.18   132.68
          (Kelvin)            160.29   171.76   218.08   278.13   330.27
                              422.56   435.53   490.53   518.24   630.80
                              662.04   787.88   818.70   830.45   913.13
                              927.70   935.86   956.01  1036.82  1067.12
                             1197.21  1348.54  1395.99  1436.28  1448.36
                             1510.42  1518.32  1520.96  1676.56  1705.75
                             1765.43  1827.21  1854.70  1913.82  1957.50
                             1976.85  1999.29  2021.84  2047.51  2116.16
                             2123.04  2140.25  2146.69  2176.26  2248.96
                             2569.69  3255.38  4397.57  4408.48  4443.33
                             4485.78  4494.53  4546.51  4572.73  5246.88

 Zero-point correction=                           0.159145 (Hartree/Particle)
 Thermal correction to Energy=                    0.173063
 Thermal correction to Enthalpy=                  0.174008
 Thermal correction to Gibbs Free Energy=         0.116092
 Sum of electronic and zero-point Energies=          -1035.180646
 Sum of electronic and thermal Energies=             -1035.166728
 Sum of electronic and thermal Enthalpies=           -1035.165784
 Sum of electronic and thermal Free Energies=        -1035.223699

                     E (Thermal)             CV                S
                      KCal/Mol        Cal/Mol-Kelvin    Cal/Mol-Kelvin
 Total                  108.599             48.345            121.894
 Electronic               0.000              0.000              0.000
 Translational            0.889              2.981             41.959
 Rotational               0.889              2.981             31.902
 Vibrational            106.822             42.383             48.034
 Vibration     1          0.594              1.983              5.725
 Vibration     2          0.594              1.983              5.540
 Vibration     3          0.596              1.974              4.530
 Vibration     4          0.599              1.965              3.977
 Vibration     5          0.602              1.955              3.612
 Vibration     6          0.607              1.940              3.244
 Vibration     7          0.609              1.933              3.110
 Vibration     8          0.619              1.901              2.652
 Vibration     9          0.635              1.849              2.196
 Vibration    10          0.652              1.796              1.882
 Vibration    11          0.688              1.685              1.453
 Vibration    12          0.694              1.669              1.402
 Vibration    13          0.720              1.594              1.208
 Vibration    14          0.735              1.554              1.121
 Vibration    15          0.799              1.386              0.832
 Vibration    16          0.818              1.338              0.766
 Vibration    17          0.903              1.145              0.549
 Vibration    18          0.925              1.098              0.506
 Vibration    19          0.934              1.081              0.491

 Optimization completed.
    -- Stationary point found.
 Normal termination of Gaussian 16 at Thu Dec 10 10:06:22 2020.

 ----------------------------------------------------------------------
 # B3LYP/6-311++G(d,p) empiricaldispersion=gd3bj scf=xqc pop=npa geom=c
 heck
 ----------------------------------------------------------------------

 ---------------------------------------
 CID_152014689_JID_4793_Energie_neutraal
 ---------------------------------------
 Structure from the checkpoint file:  "JID_4793.chk"
 Charge =  0 Multiplicity = 1

 SCF Done:  E(RB3LYP) =  -1035.54479034     A.U. after   17 cycles
 Normal termination of Gaussian 16 at Thu Dec 10 10:09:09 2020.

 ----------------------------------------------------------------------
 # B3LYP/6-311++G(d,p) empiricaldispersion=gd3bj scf=xqc pop=npa geom=c
 heck
 ----------------------------------------------------------------------

 -------------------------------------
 CID_152014689_JID_4793_Energie_kation
 -------------------------------------
 Structure from the checkpoint file:  "JID_4793.chk"
 Charge =  1 Multiplicity = 2

 SCF Done:  E(UB3LYP) =  -1035.23324872     A.U. after   24 cycles
 Normal termination of Gaussian 16 at Thu Dec 10 10:14:41 2020.
 Gaussian 16:  ES64L-G16RevA.03 25-Dec-2016

 ----------------------------------------------------------------------
 # B3LYP/6-311++G(d,p) empiricaldispersion=gd3bj scf=xqc pop=npa geom=c
 heck
 ----------------------------------------------------------------------

 ------------------------------------
 CID_152014689_JID_4793_Energie_anion
 ------------------------------------
 Structure from the checkpoint file:  "JID_4793.chk"
 Charge = -1 Multiplicity = 2

                         Standard orientation:
 ---------------------------------------------------------------------
 Center     Atomic      Atomic             Coordinates (Angstroms)
 Number     Number       Type             X           Y           Z
 ---------------------------------------------------------------------
      1          6           0        2.809707    1.556179   -1.322266
      2          6           0        2.892248    0.413566   -0.344847
      3          8           0        3.898648    0.105751    0.275147
      4          6           0        1.654082   -0.370942   -0.131950
      5          7           0        0.465272   -0.217223   -0.711677
      6          6           0       -0.290876   -1.175529   -0.112751
      7          7           0        0.354565   -1.917370    0.794168
      8          7           0        1.593958   -1.391259    0.749953
      9         16           0       -1.995663   -1.473622   -0.455431
     10          6           0       -2.458021    0.112581   -1.256658
     11          6           0       -2.872237    1.227829   -0.290680
     12          7           0       -1.740387    1.915096    0.355365
     13          7           0       -1.227777    1.366194    1.335014
     14          7           0       -0.649886    0.991258    2.246219
     15          1           0        3.772073    2.068074   -1.367162
     16          1           0        2.018673    2.251865   -1.020687
     17          1           0        2.532758    1.181199   -2.314154
     18          1           0        2.333016   -1.726497    1.353695
     19          1           0       -1.628668    0.435247   -1.888870
     20          1           0       -3.309656   -0.141670   -1.895536
     21          1           0       -3.377384    2.009370   -0.865826
     22          1           0       -3.579017    0.845388    0.455859
 ---------------------------------------------------------------------

 SCF Done:  E(UB3LYP) =  -1035.56663218     A.U. after   30 cycles

 The electronic state is 2-A.
 Alpha  occ. eigenvalues --  -88.73894 -18.92311 -14.35819 -14.25900 -14.24135
 Alpha  occ. eigenvalues --  -14.22985 -14.18958 -14.15401 -10.12156 -10.10560
 Alpha  occ. eigenvalues --  -10.10139 -10.07134 -10.06596 -10.02308  -7.82531
 Alpha  occ. eigenvalues --   -5.78924  -5.78542  -5.77916  -1.01936  -0.93044
 Alpha  occ. eigenvalues --   -0.86488  -0.86329  -0.75489  -0.71229  -0.68352
 Alpha  occ. eigenvalues --   -0.62349  -0.59427  -0.53896  -0.50366  -0.44060
 Alpha  occ. eigenvalues --   -0.43424  -0.43285  -0.40468  -0.39046  -0.36362
 Alpha  occ. eigenvalues --   -0.34618  -0.33601  -0.32572  -0.32095  -0.31119
 Alpha  occ. eigenvalues --   -0.29653  -0.28461  -0.26823  -0.26457  -0.24314
 Alpha  occ. eigenvalues --   -0.22129  -0.20862  -0.19253  -0.18867  -0.17811
 Alpha  occ. eigenvalues --   -0.15152  -0.14544  -0.13532  -0.09663  -0.09178
 Alpha  occ. eigenvalues --    0.04174
 Alpha virt. eigenvalues --    0.06557   0.08055   0.09711   0.09876   0.10406
 Alpha virt. eigenvalues --    0.11717   0.11964   0.12469   0.13257   0.13484
 Alpha virt. eigenvalues --    0.14439   0.14715   0.15157   0.16208   0.16585

  Beta  occ. eigenvalues --  -88.73897 -18.91686 -14.35742 -14.25799 -14.24147
  Beta  occ. eigenvalues --  -14.22664 -14.18751 -14.15211 -10.12131 -10.10648
  Beta  occ. eigenvalues --  -10.10139 -10.06985 -10.06174 -10.02346  -7.82533
  Beta  occ. eigenvalues --   -5.78925  -5.78542  -5.77924  -1.01783  -0.92651
  Beta  occ. eigenvalues --   -0.86250  -0.85347  -0.75079  -0.71107  -0.68047
  Beta  occ. eigenvalues --   -0.62212  -0.58996  -0.53837  -0.49716  -0.43912
  Beta  occ. eigenvalues --   -0.43363  -0.42856  -0.40208  -0.38929  -0.35869
  Beta  occ. eigenvalues --   -0.34413  -0.33496  -0.32110  -0.31290  -0.30815
  Beta  occ. eigenvalues --   -0.29578  -0.27698  -0.26579  -0.26306  -0.23881
  Beta  occ. eigenvalues --   -0.21947  -0.19107  -0.18789  -0.18299  -0.16839
  Beta  occ. eigenvalues --   -0.14667  -0.13859  -0.12971  -0.08711  -0.08588
  Beta virt. eigenvalues --    0.06674   0.08532   0.09622   0.09912   0.10354
  Beta virt. eigenvalues --    0.11396   0.11917   0.12083   0.12482   0.13270
  Beta virt. eigenvalues --    0.13541   0.14378   0.14736   0.15278   0.16303

 Mulliken charges and spin densities:
               1          2
     1  C   -0.540567  -0.039508
     2  C   -0.265103   0.232333
     3  O   -0.449536   0.218994
     4  C    0.597980   0.087374
     5  N   -0.017416   0.098406
     6  C   -0.250248  -0.023666
     7  N   -0.016624   0.112460
     8  N   -0.297279   0.116112
     9  S   -0.266268   0.000424
    10  C   -0.374197   0.141206
    11  C   -0.333516  -0.249014
    12  N   -0.393436   0.059745
    13  N    0.452344   0.009186
    14  N   -0.103291   0.045112
    15  H    0.131224  -0.000137
    16  H    0.111112   0.040913
    17  H    0.124401   0.016145
    18  H    0.329061  -0.008186
    19  H    0.226550  -0.008063
    20  H    0.150135   0.023900
    21  H    0.057772   0.097490
    22  H    0.126902   0.028773
 Sum of Mulliken charges =  -1.00000   1.00000

 Dipole moment (field-independent basis, Debye):
    X=             -6.9240    Y=              0.8674    Z=             -1.8305  Tot=              7.2143
 Quadrupole moment (field-independent basis, Debye-Ang):
   XX=           -126.8443   YY=           -107.7045   ZZ=           -100.4688
   XY=             -4.6706   XZ=              1.8054   YZ=             -0.4868

 Summary of Natural Population Analysis:

                                       Natural Population
                Natural  -----------------------------------------------
    Atom  No    Charge         Core      Valence    Rydberg      Total
 -----------------------------------------------------------------------
      C    1   -0.32871      0.99965     2.32515    0.00391     3.32871
      C    2    0.30463      0.99966     1.67682    0.01889     2.69537
      O    3   -0.24546      0.99988     3.23906    0.00652     4.24546
      C    4    0.17732      0.99959     1.80404    0.01905     2.82268
      N    5   -0.26145      0.99966     2.75063    0.01116     3.76145
      C    6    0.05693      0.99961     1.92088    0.02259     2.94307
      N    7   -0.15027      0.99968     2.63726    0.01333     3.65027
      N    8   -0.12484      0.99964     2.61168    0.01352     3.62484
      S    9    0.10908      4.99951     2.87180    0.01962     7.89092
      C   10   -0.26119      0.99957     2.25098    0.01063     3.26119
      C   11   -0.10136      0.99958     2.08588    0.01591     3.10136
      N   12   -0.19007      0.99970     2.67551    0.01486     3.69007
      N   13    0.11956      0.99970     2.36322    0.01751     3.38044
      N   14   -0.02471      0.99982     2.51286    0.01203     3.52471
      H   15    0.09721      0.00000     0.40160    0.00119     0.40279
      H   16    0.10673      0.00000     0.39082    0.00244     0.39327
      H   17    0.10534      0.00000     0.39381    0.00084     0.39466
      H   18    0.20093      0.00000     0.29766    0.00142     0.29907
      H   19    0.12427      0.00000     0.37407    0.00167     0.37573
      H   20    0.10058      0.00000     0.39796    0.00146     0.39942
      H   21    0.09539      0.00000     0.40285    0.00175     0.40461
      H   22    0.09010      0.00000     0.40786    0.00203     0.40990
 =======================================================================
   * Total *    0.00000     17.99524    36.79242    0.21234    55.00000

 Normal termination of Gaussian 16 at Thu Dec 10 10:21:24 2020.
