 Gaussian 16, Revision A.03,

 -----------------------------------------------------------
 # opt freq B3LYP/6-31G(d) empiricaldispersion=gd3bj scf=xqc
 -----------------------------------------------------------

 ------------------------------
 CID_18322662_JID_2288_neutraal
 ------------------------------
 Symbolic Z-matrix:
 Charge =  0 Multiplicity = 1

 SCF Done:  E(RB3LYP) =  -541.176066132     A.U. after   13 cycles
 SCF Done:  E(RB3LYP) =  -541.179537492     A.U. after   10 cycles
 SCF Done:  E(RB3LYP) =  -541.179787165     A.U. after   10 cycles
 SCF Done:  E(RB3LYP) =  -541.179817870     A.U. after    9 cycles
 SCF Done:  E(RB3LYP) =  -541.179822022     A.U. after    7 cycles
 SCF Done:  E(RB3LYP) =  -541.179823069     A.U. after    7 cycles
 SCF Done:  E(RB3LYP) =  -541.179823298     A.U. after    7 cycles
 SCF Done:  E(RB3LYP) =  -541.179823472     A.U. after    7 cycles
 SCF Done:  E(RB3LYP) =  -541.179823627     A.U. after    7 cycles
 SCF Done:  E(RB3LYP) =  -541.179823733     A.U. after    7 cycles
 SCF Done:  E(RB3LYP) =  -541.179823802     A.U. after    6 cycles
 SCF Done:  E(RB3LYP) =  -541.179823844     A.U. after    6 cycles
 Optimization completed.
    -- Stationary point found.
 Normal termination of Gaussian 16 at Wed Dec  9 16:57:45 2020.

 --------------------------------------------------------------------
 #N Geom=AllCheck Guess=TCheck SCRF=Check GenChk RB3LYP/6-31G(d) Freq
 --------------------------------------------------------------------

 Structure from the checkpoint file:  "JID_2288.chk"
 ------------------------------
 CID_18322662_JID_2288_neutraal
 ------------------------------
 Charge =  0 Multiplicity = 1

 SCF Done:  E(RB3LYP) =  -541.179823844     A.U. after    1 cycles

  Exact polarizability: 109.422  -0.616 101.731   1.468   1.675  90.884
 Approx polarizability: 140.801   0.845 146.090   0.187   1.973 144.291

                      1                      2                      3
                      A                      A                      A
 Frequencies --    108.0639               176.6467               187.6450
 Red. masses --      3.1377                 2.0911                 1.2835
 Frc consts  --      0.0216                 0.0384                 0.0266
 IR Inten    --      0.9631                35.1804               118.4108

                      4                      5                      6
                      A                      A                      A
 Frequencies --    228.8849               250.1034               276.3175
 Red. masses --      2.9548                 2.6110                 2.8444
 Frc consts  --      0.0912                 0.0962                 0.1280
 IR Inten    --      1.9846                28.6494                 5.0432

                      7                      8                      9
                      A                      A                      A
 Frequencies --    300.9657               345.1320               368.1103
 Red. masses --      2.4950                 1.1398                 3.1392
 Frc consts  --      0.1332                 0.0800                 0.2506
 IR Inten    --      0.3341                31.5270                11.8917

                     10                     11                     12
                      A                      A                      A
 Frequencies --    404.2431               427.6208               449.5706
 Red. masses --      2.6880                 2.9604                 2.8891
 Frc consts  --      0.2588                 0.3189                 0.3440
 IR Inten    --      3.2638                 2.4262                 3.5767

                     13                     14                     15
                      A                      A                      A
 Frequencies --    509.8144               535.6547               564.7506
 Red. masses --      2.7288                 2.9278                 2.1400
 Frc consts  --      0.4179                 0.4949                 0.4021
 IR Inten    --      2.7549                 1.3659                 3.9800

                     16                     17                     18
                      A                      A                      A
 Frequencies --    602.1395               636.7824               723.8942
 Red. masses --      3.6046                 4.3969                 2.5388
 Frc consts  --      0.7700                 1.0505                 0.7838
 IR Inten    --      3.7624                 3.2263                 0.1578

                     19                     20                     21
                      A                      A                      A
 Frequencies --    752.4811               838.6628               867.7999
 Red. masses --      4.0886                 1.3832                 2.1179
 Frc consts  --      1.3640                 0.5732                 0.9397
 IR Inten    --      0.4947                 3.0562                 4.2668

                     22                     23                     24
                      A                      A                      A
 Frequencies --    871.4649               889.2831               906.2350
 Red. masses --      2.1269                 2.5809                 2.1113
 Frc consts  --      0.9517                 1.2025                 1.0216
 IR Inten    --      0.7754                 1.6671                 0.8958

                     25                     26                     27
                      A                      A                      A
 Frequencies --    919.7698               934.0988               939.5784
 Red. masses --      2.2203                 2.2725                 1.9156
 Frc consts  --      1.1067                 1.1683                 0.9964
 IR Inten    --      4.6060                 5.2433                 0.1571

                     28                     29                     30
                      A                      A                      A
 Frequencies --    979.9975               994.3308              1005.1478
 Red. masses --      2.0761                 2.2042                 1.9456
 Frc consts  --      1.1748                 1.2840                 1.1581
 IR Inten    --      4.5354                 1.2812                 5.3843

                     31                     32                     33
                      A                      A                      A
 Frequencies --   1023.9634              1027.9346              1069.1589
 Red. masses --      1.8021                 2.3432                 1.7330
 Frc consts  --      1.1133                 1.4588                 1.1672
 IR Inten    --     14.2104                25.6672                24.4685

                     34                     35                     36
                      A                      A                      A
 Frequencies --   1074.7634              1086.9709              1100.5924
 Red. masses --      1.6522                 1.7071                 1.5749
 Frc consts  --      1.1245                 1.1884                 1.1240
 IR Inten    --      2.8384                33.0409                17.2130

                     37                     38                     39
                      A                      A                      A
 Frequencies --   1139.8232              1146.9508              1170.7549
 Red. masses --      1.9749                 1.7699                 1.5281
 Frc consts  --      1.5117                 1.3718                 1.2341
 IR Inten    --     26.5096                25.5983                11.4121

                     40                     41                     42
                      A                      A                      A
 Frequencies --   1209.4810              1221.6225              1238.9450
 Red. masses --      1.5692                 1.8463                 1.8333
 Frc consts  --      1.3525                 1.6234                 1.6580
 IR Inten    --     10.6303                14.1472                 9.0641

                     43                     44                     45
                      A                      A                      A
 Frequencies --   1253.7687              1263.6775              1272.3466
 Red. masses --      1.4838                 1.6642                 1.6966
 Frc consts  --      1.3742                 1.5657                 1.6182
 IR Inten    --      1.5151                28.1753                 6.7055

                     46                     47                     48
                      A                      A                      A
 Frequencies --   1285.3947              1313.5817              1323.5427
 Red. masses --      1.4270                 1.3784                 1.4219
 Frc consts  --      1.3891                 1.4014                 1.4676
 IR Inten    --      4.6434                29.8750                10.6254

                     49                     50                     51
                      A                      A                      A
 Frequencies --   1328.6707              1334.9164              1349.1508
 Red. masses --      1.5698                 1.4326                 1.4979
 Frc consts  --      1.6328                 1.5041                 1.6064
 IR Inten    --     13.7024                16.7572                15.1633

                     52                     53                     54
                      A                      A                      A
 Frequencies --   1359.1913              1367.0716              1374.5039
 Red. masses --      1.4889                 1.5043                 1.5635
 Frc consts  --      1.6206                 1.6564                 1.7404
 IR Inten    --      9.8830                16.5387                 3.9472

                     55                     56                     57
                      A                      A                      A
 Frequencies --   1384.3578              1403.8853              1512.0681
 Red. masses --      1.5858                 1.7956                 1.0935
 Frc consts  --      1.7906                 2.0850                 1.4730
 IR Inten    --      3.0643                 9.4483                 1.6103

                     58                     59                     60
                      A                      A                      A
 Frequencies --   1514.2581              1519.4509              1527.3897
 Red. masses --      1.0855                 1.0897                 1.1033
 Frc consts  --      1.4665                 1.4822                 1.5166
 IR Inten    --      1.6637                 1.3279                 3.4629

                     61                     62                     63
                      A                      A                      A
 Frequencies --   1536.7715              1552.2547              3042.0693
 Red. masses --      1.1015                 1.1059                 1.0681
 Frc consts  --      1.5327                 1.5700                 5.8238
 IR Inten    --      6.9962                 6.4560                20.6875

                     64                     65                     66
                      A                      A                      A
 Frequencies --   3055.4138              3063.3236              3064.2837
 Red. masses --      1.0617                 1.0615                 1.0630
 Frc consts  --      5.8397                 5.8688                 5.8810
 IR Inten    --     26.3498                19.3997                42.5130

                     67                     68                     69
                      A                      A                      A
 Frequencies --   3073.8769              3079.5465              3081.3826
 Red. masses --      1.0627                 1.0844                 1.0640
 Frc consts  --      5.9159                 6.0593                 5.9523
 IR Inten    --     42.5331                17.7268                23.3846

                     70                     71                     72
                      A                      A                      A
 Frequencies --   3098.1117              3101.3037              3104.0216
 Red. masses --      1.0999                 1.0945                 1.0925
 Frc consts  --      6.2200                 6.2026                 6.2017
 IR Inten    --     36.1073                 6.7584                62.2269

                     73                     74                     75
                      A                      A                      A
 Frequencies --   3106.0688              3113.3240              3129.3811
 Red. masses --      1.1024                 1.1044                 1.1036
 Frc consts  --      6.2663                 6.3068                 6.3678
 IR Inten    --     22.2764                56.1849                37.1143

                     76                     77                     78
                      A                      A                      A
 Frequencies --   3131.5985              3725.8681              3735.9318
 Red. masses --      1.1039                 1.0658                 1.0662
 Frc consts  --      6.3782                 8.7173                 8.7676
 IR Inten    --     30.7376                 5.1953                10.7379

 - Thermochemistry -
 -------------------
 Temperature   298.150 Kelvin.  Pressure   1.00000 Atm.
 Atom     1 has atomic number  6 and mass  12.00000

 Molecular mass:   168.11503 amu.
 Principal axes and moments of inertia in atomic units:
                           1         2         3
     Eigenvalues --  1262.308811828.583292186.59665
           X            0.99966  -0.01825   0.01861
           Y            0.01791   0.99967   0.01843
           Z           -0.01894  -0.01809   0.99966
 This molecule is an asymmetric top.
 Rotational symmetry number  1.
 Warning -- assumption of classical behavior for rotation
           may cause significant error
 Rotational temperatures (Kelvin)      0.06862     0.04737     0.03961
 Rotational constants (GHZ):           1.42971     0.98696     0.82537
 Zero-point vibrational energy     657873.8 (Joules/Mol)
                                  157.23561 (Kcal/Mol)
 Warning -- explicit consideration of  16 degrees of freedom as
           vibrations may cause significant error
 Vibrational temperatures:    155.48   254.16   269.98   329.31   359.84
          (Kelvin)            397.56   433.02   496.57   529.63   581.62
                              615.25   646.83   733.51   770.69   812.55
                              866.34   916.19  1041.52  1082.65  1206.65
                             1248.57  1253.84  1279.48  1303.87  1323.34
                             1343.96  1351.84  1410.00  1430.62  1446.18
                             1473.25  1478.97  1538.28  1546.34  1563.91
                             1583.51  1639.95  1650.21  1684.46  1740.17
                             1757.64  1782.57  1803.89  1818.15  1830.62
                             1849.40  1889.95  1904.28  1911.66  1920.65
                             1941.13  1955.57  1966.91  1977.60  1991.78
                             2019.88  2175.53  2178.68  2186.15  2197.57
                             2211.07  2233.35  4376.86  4396.06  4407.44
                             4408.82  4422.62  4430.78  4433.42  4457.49
                             4462.08  4465.99  4468.94  4479.38  4502.48
                             4505.67  5360.69  5375.17

 Zero-point correction=                           0.250571 (Hartree/Particle)
 Thermal correction to Energy=                    0.260831
 Thermal correction to Enthalpy=                  0.261776
 Thermal correction to Gibbs Free Energy=         0.216026
 Sum of electronic and zero-point Energies=           -540.929253
 Sum of electronic and thermal Energies=              -540.918992
 Sum of electronic and thermal Enthalpies=            -540.918048
 Sum of electronic and thermal Free Energies=         -540.963798

                     E (Thermal)             CV                S
                      KCal/Mol        Cal/Mol-Kelvin    Cal/Mol-Kelvin
 Total                  163.674             43.630             96.288
 Electronic               0.000              0.000              0.000
 Translational            0.889              2.981             41.266
 Rotational               0.889              2.981             30.002
 Vibrational            161.897             37.668             25.019
 Vibration     1          0.606              1.943              3.303
 Vibration     2          0.628              1.871              2.364
 Vibration     3          0.632              1.857              2.251
 Vibration     4          0.652              1.797              1.888
 Vibration     5          0.663              1.763              1.730
 Vibration     6          0.678              1.717              1.556
 Vibration     7          0.693              1.672              1.412
 Vibration     8          0.724              1.585              1.188
 Vibration     9          0.741              1.538              1.088
 Vibration    10          0.769              1.461              0.947
 Vibration    11          0.789              1.410              0.866
 Vibration    12          0.808              1.362              0.797
 Vibration    13          0.865              1.228              0.634
 Vibration    14          0.891              1.171              0.575
 Vibration    15          0.921              1.108              0.514
 Vibration    16          0.960              1.027              0.446

                           ! Non-Optimized Parameters !
 Normal termination of Gaussian 16 at Wed Dec  9 17:06:26 2020.

 ----------------------------------------------------------------------
 # B3LYP/6-311++G(d,p) empiricaldispersion=gd3bj scf=xqc pop=npa geom=c
 heck
 ----------------------------------------------------------------------

 --------------------------------------
 CID_18322662_JID_2288_Energie_neutraal
 --------------------------------------
 Structure from the checkpoint file:  "JID_2288.chk"
 Charge =  0 Multiplicity = 1

 SCF Done:  E(RB3LYP) =  -541.345524993     A.U. after   13 cycles
 Normal termination of Gaussian 16 at Wed Dec  9 17:09:53 2020.

 ----------------------------------------------------------------------
 # B3LYP/6-311++G(d,p) empiricaldispersion=gd3bj scf=xqc pop=npa geom=c
 heck
 ----------------------------------------------------------------------

 ------------------------------------
 CID_18322662_JID_2288_Energie_kation
 ------------------------------------
 Structure from the checkpoint file:  "JID_2288.chk"
 Charge =  1 Multiplicity = 2

 SCF Done:  E(UB3LYP) =  -541.017588929     A.U. after   19 cycles
 Normal termination of Gaussian 16 at Wed Dec  9 17:17:19 2020.
 Gaussian 16:  ES64L-G16RevA.03 25-Dec-2016

 ----------------------------------------------------------------------
 # B3LYP/6-311++G(d,p) empiricaldispersion=gd3bj scf=xqc pop=npa geom=c
 heck
 ----------------------------------------------------------------------

 -----------------------------------
 CID_18322662_JID_2288_Energie_anion
 -----------------------------------
 Structure from the checkpoint file:  "JID_2288.chk"
 Charge = -1 Multiplicity = 2

                         Standard orientation:
 ---------------------------------------------------------------------
 Center     Atomic      Atomic             Coordinates (Angstroms)
 Number     Number       Type             X           Y           Z
 ---------------------------------------------------------------------
      1          6           0       -2.712487    0.069048   -0.124381
      2          6           0       -1.980258   -1.279059   -0.232358
      3          6           0       -0.610083   -1.026960    0.435105
      4          6           0        0.625282   -1.593495   -0.301997
      5          6           0        1.861444   -1.399996    0.609355
      6          6           0        2.097368    0.139545    0.559208
      7          6           0        0.974552    0.637389   -0.376187
      8          6           0        0.877636   -0.521752   -1.383281
      9          6           0       -0.383676    0.519046    0.373245
     10          6           0       -1.595205    1.088007   -0.394486
     11          8           0       -0.350642    1.035051    1.709816
     12          8           0        1.211455    1.901606   -0.974443
     13          1           0       -3.090732    0.205103    0.896117
     14          1           0       -3.560059    0.159872   -0.811989
     15          1           0       -2.525542   -2.105719    0.234534
     16          1           0       -1.843215   -1.540684   -1.290054
     17          1           0       -0.631842   -1.344175    1.482364
     18          1           0        0.491519   -2.618230   -0.660212
     19          1           0        2.725514   -1.942984    0.212066
     20          1           0        1.680820   -1.764160    1.625573
     21          1           0        2.034438    0.608755    1.544130
     22          1           0        3.065388    0.387412    0.111133
     23          1           0        0.062142   -0.409095   -2.102880
     24          1           0        1.812063   -0.664111   -1.935799
     25          1           0       -1.839079    2.105540   -0.067961
     26          1           0       -1.377688    1.144568   -1.466020
     27          1           0       -0.366302    2.003017    1.642873
     28          1           0        1.548627    2.490991   -0.282196
 ---------------------------------------------------------------------

 SCF Done:  E(UB3LYP) =  -541.329841247     A.U. after   32 cycles

 The electronic state is 2-A.
 Alpha  occ. eigenvalues --  -19.00871 -19.00604 -10.11138 -10.10842 -10.06938
 Alpha  occ. eigenvalues --  -10.06123 -10.06108 -10.05992 -10.05765 -10.05712
 Alpha  occ. eigenvalues --  -10.05183 -10.05116  -0.91981  -0.90226  -0.76610
 Alpha  occ. eigenvalues --   -0.70570  -0.62124  -0.61470  -0.58097  -0.57259
 Alpha  occ. eigenvalues --   -0.47975  -0.47389  -0.45762  -0.43449  -0.41007
 Alpha  occ. eigenvalues --   -0.38572  -0.38051  -0.36211  -0.33294  -0.32370
 Alpha  occ. eigenvalues --   -0.30955  -0.30146  -0.28330  -0.26517  -0.26090
 Alpha  occ. eigenvalues --   -0.24604  -0.24364  -0.24254  -0.23188  -0.23039
 Alpha  occ. eigenvalues --   -0.21939  -0.20761  -0.20073  -0.18477  -0.18149
 Alpha  occ. eigenvalues --   -0.14027   0.04963
 Alpha virt. eigenvalues --    0.06841   0.07434   0.08485   0.09239   0.09591
 Alpha virt. eigenvalues --    0.10335   0.10746   0.11152   0.12126   0.12291
 Alpha virt. eigenvalues --    0.13028   0.13449   0.13544   0.14636   0.15736

  Beta  occ. eigenvalues --  -19.00820 -19.00553 -10.11138 -10.10840 -10.06931
  Beta  occ. eigenvalues --  -10.06112 -10.06102 -10.05977 -10.05751 -10.05697
  Beta  occ. eigenvalues --  -10.05158 -10.05091  -0.91888  -0.90119  -0.76578
  Beta  occ. eigenvalues --   -0.70541  -0.62087  -0.61434  -0.58054  -0.57214
  Beta  occ. eigenvalues --   -0.47925  -0.47328  -0.45702  -0.43383  -0.40926
  Beta  occ. eigenvalues --   -0.38532  -0.37999  -0.36167  -0.33250  -0.32339
  Beta  occ. eigenvalues --   -0.30927  -0.30110  -0.28300  -0.26483  -0.26050
  Beta  occ. eigenvalues --   -0.24575  -0.24324  -0.24229  -0.23151  -0.23001
  Beta  occ. eigenvalues --   -0.21908  -0.20736  -0.20051  -0.18434  -0.18107
  Beta  occ. eigenvalues --   -0.13987
  Beta virt. eigenvalues --    0.07036   0.07919   0.08469   0.08834   0.09815
  Beta virt. eigenvalues --    0.10267   0.10542   0.11047   0.11637   0.12595
  Beta virt. eigenvalues --    0.12915   0.13438   0.13755   0.13863   0.15069

 Mulliken charges and spin densities:
               1          2
     1  C    0.302986  -0.569902
     2  C    0.191879  -0.862494
     3  C    0.596030  -0.286422
     4  C   -1.263118   1.641182
     5  C   -0.106344  -0.496509
     6  C    0.552451  -0.863895
     7  C   -1.325647   1.255868
     8  C    1.640450  -2.206461
     9  C    0.228580  -0.834289
    10  C    0.065570  -0.206420
    11  O   -0.153484  -0.004515
    12  O   -0.206388   0.007614
    13  H    0.235126  -0.098451
    14  H   -0.334096   0.499275
    15  H   -0.243660   0.379495
    16  H    0.167799  -0.040043
    17  H    0.120538   0.147350
    18  H   -0.142284   0.366749
    19  H   -0.107529   0.247635
    20  H    0.021697   0.100079
    21  H   -0.155621   0.330610
    22  H   -0.214545   0.387898
    23  H   -0.119270   0.273394
    24  H    0.206137  -0.037077
    25  H   -0.517265   0.687113
    26  H    0.184569  -0.010970
    27  H   -0.272021   0.559301
    28  H   -0.352540   0.633884
 Sum of Mulliken charges =  -1.00000   1.00000

 Dipole moment (field-independent basis, Debye):
    X=             -0.7331    Y=             -5.2490    Z=             -1.1174  Tot=              5.4165
 Quadrupole moment (field-independent basis, Debye-Ang):
   XX=           -117.7678   YY=           -122.7378   ZZ=           -107.2203
   XY=             -5.0399   XZ=             -0.8736   YZ=             -3.9882

 Summary of Natural Population Analysis:

                                       Natural Population
                Natural  -----------------------------------------------
    Atom  No    Charge         Core      Valence    Rydberg      Total
 -----------------------------------------------------------------------
      C    1   -0.18999      0.99963     2.18276    0.00760     3.18999
      C    2   -0.18913      0.99962     2.18077    0.00874     3.18913
      C    3   -0.11115      0.99954     2.10042    0.01119     3.11115
      C    4   -0.10763      0.99959     2.09565    0.01240     3.10763
      C    5   -0.18610      0.99963     2.17878    0.00769     3.18610
      C    6   -0.20458      0.99958     2.19522    0.00978     3.20458
      C    7    0.12366      0.99934     1.85635    0.02065     2.87634
      C    8   -0.19436      0.99957     2.18597    0.00882     3.19436
      C    9    0.13352      0.99939     1.84732    0.01976     2.86648
      C   10   -0.20048      0.99957     2.19073    0.01018     3.20048
      O   11   -0.38183      0.99989     3.37418    0.00776     4.38183
      O   12   -0.37500      0.99988     3.36761    0.00751     4.37500
      H   13    0.09659      0.00000     0.40210    0.00131     0.40341
      H   14    0.09704      0.00000     0.40201    0.00095     0.40296
      H   15    0.09893      0.00000     0.40017    0.00090     0.40107
      H   16    0.09354      0.00000     0.40491    0.00155     0.40646
      H   17    0.10692      0.00000     0.39167    0.00141     0.39308
      H   18    0.09913      0.00000     0.39990    0.00097     0.40087
      H   19    0.09630      0.00000     0.40258    0.00113     0.40370
      H   20    0.09763      0.00000     0.40115    0.00122     0.40237
      H   21    0.11151      0.00000     0.38684    0.00165     0.38849
      H   22    0.10114      0.00000     0.39743    0.00144     0.39886
      H   23    0.10294      0.00000     0.39589    0.00117     0.39706
      H   24    0.10173      0.00000     0.39722    0.00105     0.39827
      H   25    0.10579      0.00000     0.39273    0.00148     0.39421
      H   26    0.10248      0.00000     0.39595    0.00157     0.39752
      H   27    0.23502      0.00000     0.25498    0.01001     0.26498
      H   28    0.23639      0.00000     0.25181    0.01179     0.26361
 =======================================================================
   * Total *   -0.00000     11.99523    33.83308    0.17169    46.00000

 Normal termination of Gaussian 16 at Wed Dec  9 17:29:24 2020.
