 Gaussian 16, Revision A.03,

 -----------------------------------------------------------
 # opt freq B3LYP/6-31G(d) empiricaldispersion=gd3bj scf=xqc
 -----------------------------------------------------------

 ------------------------------
 CID_95440140_JID_5360_neutraal
 ------------------------------
 Symbolic Z-matrix:
 Charge =  0 Multiplicity = 1

 SCF Done:  E(RB3LYP) =  -688.770422460     A.U. after   14 cycles
 SCF Done:  E(RB3LYP) =  -688.776274047     A.U. after   12 cycles
 SCF Done:  E(RB3LYP) =  -688.777017509     A.U. after   12 cycles
 SCF Done:  E(RB3LYP) =  -688.777226397     A.U. after   12 cycles
 SCF Done:  E(RB3LYP) =  -688.777386589     A.U. after   12 cycles
 SCF Done:  E(RB3LYP) =  -688.777619438     A.U. after   11 cycles
 SCF Done:  E(RB3LYP) =  -688.777529100     A.U. after   14 cycles
 SCF Done:  E(RB3LYP) =  -688.778141112     A.U. after   12 cycles
 SCF Done:  E(RB3LYP) =  -688.777969458     A.U. after   12 cycles
 SCF Done:  E(RB3LYP) =  -688.777010622     A.U. after   14 cycles
 SCF Done:  E(RB3LYP) =  -688.778418577     A.U. after   10 cycles
 SCF Done:  E(RB3LYP) =  -688.778421898     A.U. after    9 cycles
 SCF Done:  E(RB3LYP) =  -688.778422742     A.U. after    8 cycles
 SCF Done:  E(RB3LYP) =  -688.778422985     A.U. after    7 cycles
 SCF Done:  E(RB3LYP) =  -688.778423025     A.U. after    7 cycles
 Optimization completed.
    -- Stationary point found.
 Normal termination of Gaussian 16 at Thu Dec 10 15:46:54 2020.

 --------------------------------------------------------------------
 #N Geom=AllCheck Guess=TCheck SCRF=Check GenChk RB3LYP/6-31G(d) Freq
 --------------------------------------------------------------------

 Structure from the checkpoint file:  "JID_5360.chk"
 ------------------------------
 CID_95440140_JID_5360_neutraal
 ------------------------------
 Charge =  0 Multiplicity = 1

 SCF Done:  E(RB3LYP) =  -688.778423025     A.U. after    1 cycles

  Exact polarizability: 162.743   8.474 133.383  20.027 -12.466  96.387
 Approx polarizability: 219.027  13.248 209.536  39.707 -36.613 163.021

                      1                      2                      3
                      A                      A                      A
 Frequencies --     25.5399                36.3649                58.4052
 Red. masses --      4.5664                 4.8898                 3.9013
 Frc consts  --      0.0018                 0.0038                 0.0078
 IR Inten    --      1.2928                 2.2108                 1.3854

                      4                      5                      6
                      A                      A                      A
 Frequencies --     86.1475                91.6046               104.1956
 Red. masses --      3.1440                 2.6092                 3.4104
 Frc consts  --      0.0137                 0.0129                 0.0218
 IR Inten    --      3.1375                 3.1281                 2.8778

                      7                      8                      9
                      A                      A                      A
 Frequencies --    135.1505               158.2554               165.4423
 Red. masses --      2.6640                 1.5431                 1.1847
 Frc consts  --      0.0287                 0.0228                 0.0191
 IR Inten    --      1.2233                 0.4930                 0.2096

                     10                     11                     12
                      A                      A                      A
 Frequencies --    194.9247               204.1409               274.2088
 Red. masses --      1.9587                 3.7044                 5.0928
 Frc consts  --      0.0438                 0.0910                 0.2256
 IR Inten    --      4.1449                 3.3935                 9.0746

                     13                     14                     15
                      A                      A                      A
 Frequencies --    317.4561               337.2848               360.2458
 Red. masses --      2.5790                 3.4329                 4.3709
 Frc consts  --      0.1531                 0.2301                 0.3342
 IR Inten    --      2.7721                 0.3507                 0.2492

                     16                     17                     18
                      A                      A                      A
 Frequencies --    397.8426               430.1166               454.0102
 Red. masses --      4.4093                 1.8580                 2.2994
 Frc consts  --      0.4112                 0.2025                 0.2793
 IR Inten    --      0.8715                15.4454                13.0786

                     19                     20                     21
                      A                      A                      A
 Frequencies --    467.2968               520.2246               525.9621
 Red. masses --      1.7908                 3.2879                 2.9460
 Frc consts  --      0.2304                 0.5243                 0.4802
 IR Inten    --     22.2383                 4.9185                 9.3107

                     22                     23                     24
                      A                      A                      A
 Frequencies --    538.2585               603.2756               626.5936
 Red. masses --      4.0206                 4.6175                 1.7523
 Frc consts  --      0.6863                 0.9901                 0.4053
 IR Inten    --     12.8968                 6.7358               156.8574

                     25                     26                     27
                      A                      A                      A
 Frequencies --    674.5332               725.4677               738.1750
 Red. masses --      2.9643                 4.4591                 2.3241
 Frc consts  --      0.7946                 1.3827                 0.7461
 IR Inten    --     76.1309                 6.8581               108.6386

                     28                     29                     30
                      A                      A                      A
 Frequencies --    755.5513               772.2016               808.3552
 Red. masses --      4.3670                 3.8807                 2.4819
 Frc consts  --      1.4688                 1.3634                 0.9555
 IR Inten    --      2.6370                18.9131                 0.1195

                     31                     32                     33
                      A                      A                      A
 Frequencies --    849.0554               849.6179               896.3749
 Red. masses --      1.1789                 1.5462                 1.9200
 Frc consts  --      0.5007                 0.6576                 0.9089
 IR Inten    --     16.5590                24.2885                 1.3330

                     34                     35                     36
                      A                      A                      A
 Frequencies --    918.6935               949.3258               970.3264
 Red. masses --      2.1142                 1.3125                 2.6659
 Frc consts  --      1.0513                 0.6969                 1.4789
 IR Inten    --     25.7216                 0.7305                 1.0233

                     37                     38                     39
                      A                      A                      A
 Frequencies --    988.9026              1035.6355              1045.7514
 Red. masses --      2.2885                 2.1505                 7.9028
 Frc consts  --      1.3186                 1.3589                 5.0920
 IR Inten    --      3.9994                 9.2083                76.3781

                     40                     41                     42
                      A                      A                      A
 Frequencies --   1060.7100              1135.0584              1147.3562
 Red. masses --      3.5145                 1.5833                 1.7595
 Frc consts  --      2.3298                 1.2018                 1.3647
 IR Inten    --     61.3823                61.7428                25.4529

                     43                     44                     45
                      A                      A                      A
 Frequencies --   1170.9562              1184.0829              1187.8635
 Red. masses --      1.4298                 1.4648                 1.2500
 Frc consts  --      1.1551                 1.2100                 1.0392
 IR Inten    --     78.9145                22.3825                 1.4825

                     46                     47                     48
                      A                      A                      A
 Frequencies --   1188.6765              1199.9297              1215.7113
 Red. masses --      1.2643                 1.3635                 1.3879
 Frc consts  --      1.0525                 1.1567                 1.2086
 IR Inten    --      7.9248                16.8173                10.3042

                     49                     50                     51
                      A                      A                      A
 Frequencies --   1222.7589              1237.0889              1258.1645
 Red. masses --      1.4372                 1.2805                 2.1796
 Frc consts  --      1.2660                 1.1546                 2.0328
 IR Inten    --      0.8251                 2.2264                53.2672

                     52                     53                     54
                      A                      A                      A
 Frequencies --   1297.0887              1317.9981              1339.5228
 Red. masses --      1.6339                 3.7549                 2.8109
 Frc consts  --      1.6196                 3.8431                 2.9716
 IR Inten    --     44.7007               166.7148                13.7574

                     55                     56                     57
                      A                      A                      A
 Frequencies --   1356.6400              1377.6273              1459.3924
 Red. masses --      1.8862                 1.4900                 2.4084
 Frc consts  --      2.0453                 1.6661                 3.0222
 IR Inten    --      4.0664                25.5632                51.3949

                     58                     59                     60
                      A                      A                      A
 Frequencies --   1461.8047              1485.4771              1507.0044
 Red. masses --      2.1918                 1.1994                 1.3443
 Frc consts  --      2.7595                 1.5593                 1.7988
 IR Inten    --     16.1417                10.7714                 9.8556

                     61                     62                     63
                      A                      A                      A
 Frequencies --   1515.1102              1515.8190              1517.0391
 Red. masses --      1.0618                 1.0805                 1.0965
 Frc consts  --      1.4361                 1.4627                 1.4868
 IR Inten    --      5.7183                 1.3060                 5.0715

                     64                     65                     66
                      A                      A                      A
 Frequencies --   1526.3799              1539.7381              1545.5663
 Red. masses --      1.1430                 1.0579                 1.0607
 Frc consts  --      1.5690                 1.4777                 1.4929
 IR Inten    --      3.2339                 1.4758                 3.6831

                     67                     68                     69
                      A                      A                      A
 Frequencies --   1553.9235              1629.3213              1663.6416
 Red. masses --      2.7956                 6.7778                 1.2931
 Frc consts  --      3.9773                10.6011                 2.1086
 IR Inten    --    149.5610                 7.9874                24.4058

                     70                     71                     72
                      A                      A                      A
 Frequencies --   1668.4384              1736.5804              3037.1620
 Red. masses --      6.1213                 4.5863                 1.0364
 Frc consts  --     10.0396                 8.1490                 5.6327
 IR Inten    --      3.4850               187.1265                61.8724

                     73                     74                     75
                      A                      A                      A
 Frequencies --   3042.1336              3054.9216              3060.5687
 Red. masses --      1.0366                 1.0602                 1.0606
 Frc consts  --      5.6520                 5.8297                 5.8533
 IR Inten    --     62.1677                21.9821                28.6838

                     76                     77                     78
                      A                      A                      A
 Frequencies --   3095.8555              3109.1356              3112.1073
 Red. masses --      1.1039                 1.1050                 1.1002
 Frc consts  --      6.2334                 6.2938                 6.2783
 IR Inten    --     15.6615                32.8912                27.0694

                     79                     80                     81
                      A                      A                      A
 Frequencies --   3119.9466              3158.2815              3159.1079
 Red. masses --      1.0988                 1.1045                 1.1061
 Frc consts  --      6.3018                 6.4913                 6.5036
 IR Inten    --     28.1171                26.2146                24.6200

                     82                     83                     84
                      A                      A                      A
 Frequencies --   3181.2374              3209.7340              3213.0246
 Red. masses --      1.0887                 1.0910                 1.0932
 Frc consts  --      6.4913                 6.6223                 6.6493
 IR Inten    --     12.3261                 5.0652                 5.7318

                     85                     86                     87
                      A                      A                      A
 Frequencies --   3458.1004              3543.7006              3652.7886
 Red. masses --      1.0751                 1.0470                 1.0993
 Frc consts  --      7.5749                 7.7468                 8.6423
 IR Inten    --      2.5361                13.2484                16.9597

 - Thermochemistry -
 -------------------
 Temperature   298.150 Kelvin.  Pressure   1.00000 Atm.
 Atom     1 has atomic number  6 and mass  12.00000

 Molecular mass:   208.12118 amu.
 Principal axes and moments of inertia in atomic units:
                           1         2         3
     Eigenvalues --  1690.176954743.753295573.15785
           X            0.99985   0.01666   0.00399
           Y           -0.01670   0.99981   0.01000
           Z           -0.00382  -0.01006   0.99994
 This molecule is an asymmetric top.
 Rotational symmetry number  1.
 Warning -- assumption of classical behavior for rotation
           may cause significant error
 Rotational temperatures (Kelvin)      0.05125     0.01826     0.01554
 Rotational constants (GHZ):           1.06778     0.38045     0.32383
 Zero-point vibrational energy     690970.2 (Joules/Mol)
                                  165.14583 (Kcal/Mol)
 Warning -- explicit consideration of  23 degrees of freedom as
           vibrations may cause significant error
 Vibrational temperatures:     36.75    52.32    84.03   123.95   131.80
          (Kelvin)            149.91   194.45   227.69   238.03   280.45
                              293.71   394.53   456.75   485.28   518.31
                              572.41   618.84   653.22   672.34   748.49
                              756.74   774.43   867.98   901.53   970.50
                             1043.79  1062.07  1087.07  1111.03  1163.04
                             1221.60  1222.41  1289.68  1321.80  1365.87
                             1396.08  1422.81  1490.05  1504.60  1526.13
                             1633.10  1650.79  1684.74  1703.63  1709.07
                             1710.24  1726.43  1749.14  1759.28  1779.89
                             1810.22  1866.22  1896.31  1927.27  1951.90
                             1982.10  2099.74  2103.21  2137.27  2168.24
                             2179.91  2180.93  2182.68  2196.12  2215.34
                             2223.73  2235.75  2344.23  2393.61  2400.51
                             2498.55  4369.80  4376.95  4395.35  4403.48
                             4454.25  4473.35  4477.63  4488.91  4544.06
                             4545.25  4577.09  4618.09  4622.83  4975.44
                             5098.59  5255.55

 Zero-point correction=                           0.263177 (Hartree/Particle)
 Thermal correction to Energy=                    0.278783
 Thermal correction to Enthalpy=                  0.279727
 Thermal correction to Gibbs Free Energy=         0.219004
 Sum of electronic and zero-point Energies=           -688.515246
 Sum of electronic and thermal Energies=              -688.499640
 Sum of electronic and thermal Enthalpies=            -688.498696
 Sum of electronic and thermal Free Energies=         -688.559419

                     E (Thermal)             CV                S
                      KCal/Mol        Cal/Mol-Kelvin    Cal/Mol-Kelvin
 Total                  174.939             57.516            127.803
 Electronic               0.000              0.000              0.000
 Translational            0.889              2.981             41.903
 Rotational               0.889              2.981             32.169
 Vibrational            173.162             51.555             53.731
 Vibration     1          0.593              1.985              6.149
 Vibration     2          0.594              1.982              5.448
 Vibration     3          0.596              1.974              4.510
 Vibration     4          0.601              1.959              3.746
 Vibration     5          0.602              1.955              3.626
 Vibration     6          0.605              1.946              3.374
 Vibration     7          0.613              1.918              2.871
 Vibration     8          0.621              1.893              2.571
 Vibration     9          0.624              1.885              2.487
 Vibration    10          0.636              1.847              2.180
 Vibration    11          0.640              1.834              2.095
 Vibration    12          0.677              1.721              1.570
 Vibration    13          0.704              1.640              1.323
 Vibration    14          0.718              1.601              1.225
 Vibration    15          0.735              1.554              1.121
 Vibration    16          0.764              1.475              0.971
 Vibration    17          0.791              1.405              0.858
 Vibration    18          0.812              1.352              0.784
 Vibration    19          0.825              1.323              0.745
 Vibration    20          0.875              1.205              0.609
 Vibration    21          0.881              1.193              0.596
 Vibration    22          0.893              1.165              0.569
 Vibration    23          0.962              1.025              0.444

 Optimization completed.
    -- Stationary point found.
 Normal termination of Gaussian 16 at Thu Dec 10 15:56:26 2020.

 ----------------------------------------------------------------------
 # B3LYP/6-311++G(d,p) empiricaldispersion=gd3bj scf=xqc pop=npa geom=c
 heck
 ----------------------------------------------------------------------

 --------------------------------------
 CID_95440140_JID_5360_Energie_neutraal
 --------------------------------------
 Structure from the checkpoint file:  "JID_5360.chk"
 Charge =  0 Multiplicity = 1

 SCF Done:  E(RB3LYP) =  -688.981466778     A.U. after   15 cycles
 Normal termination of Gaussian 16 at Thu Dec 10 16:00:55 2020.

 ----------------------------------------------------------------------
 # B3LYP/6-311++G(d,p) empiricaldispersion=gd3bj scf=xqc pop=npa geom=c
 heck
 ----------------------------------------------------------------------

 ------------------------------------
 CID_95440140_JID_5360_Energie_kation
 ------------------------------------
 Structure from the checkpoint file:  "JID_5360.chk"
 Charge =  1 Multiplicity = 2

 SCF Done:  E(UB3LYP) =  -688.682399218     A.U. after   31 cycles
 Normal termination of Gaussian 16 at Thu Dec 10 16:13:58 2020.
 Gaussian 16:  ES64L-G16RevA.03 25-Dec-2016

 ----------------------------------------------------------------------
 # B3LYP/6-311++G(d,p) empiricaldispersion=gd3bj scf=xqc pop=npa geom=c
 heck
 ----------------------------------------------------------------------

 -----------------------------------
 CID_95440140_JID_5360_Energie_anion
 -----------------------------------
 Structure from the checkpoint file:  "JID_5360.chk"
 Charge = -1 Multiplicity = 2

                         Standard orientation:
 ---------------------------------------------------------------------
 Center     Atomic      Atomic             Coordinates (Angstroms)
 Number     Number       Type             X           Y           Z
 ---------------------------------------------------------------------
      1          6           0        4.085373   -0.426499   -0.206782
      2          8           0        3.056569   -0.431517    0.789903
      3          6           0        1.786041   -0.629317    0.300099
      4          6           0        1.150092    0.324325   -0.515195
      5          6           0       -0.146186    0.093808   -0.969656
      6          6           0       -0.841793   -1.068665   -0.618332
      7          6           0       -0.206913   -2.002347    0.209552
      8          6           0        1.095861   -1.786772    0.659124
      9          6           0       -2.284232   -1.249341   -1.027916
     10          6           0       -3.263114   -0.780618    0.077420
     11          6           0       -3.033244    0.677370    0.441772
     12          7           0       -3.476232    1.691538   -0.207237
     13          7           0       -2.264046    0.872375    1.576378
     14          8           0        1.790562    1.482666   -0.894837
     15          6           0        1.983992    2.416311    0.172777
     16          1           0        5.024082   -0.268752    0.328342
     17          1           0        3.929407    0.375622   -0.934071
     18          1           0        4.118780   -1.392050   -0.727253
     19          1           0       -0.618810    0.858770   -1.578019
     20          1           0       -0.731208   -2.910128    0.498284
     21          1           0        1.602496   -2.510219    1.290299
     22          1           0       -2.485680   -0.679773   -1.941766
     23          1           0       -2.488406   -2.303178   -1.251102
     24          1           0       -4.293662   -0.903105   -0.273956
     25          1           0       -3.143980   -1.413376    0.964248
     26          1           0       -4.090459    1.380610   -0.963045
     27          1           0       -1.547724    0.177320    1.747916
     28          1           0       -1.930934    1.825529    1.669075
     29          1           0        1.016879    2.723851    0.591316
     30          1           0        2.607774    1.989290    0.964639
     31          1           0        2.481101    3.283488   -0.266614
 ---------------------------------------------------------------------

 SCF Done:  E(UB3LYP) =  -688.968683823     A.U. after   33 cycles
 SCF Done:  E(UB3LYP) =  -688.968683823     a.u. after    1 cycles

 The electronic state is 2-A.
 Alpha  occ. eigenvalues --  -19.05200 -19.05167 -14.22397 -14.17811 -10.14635
 Alpha  occ. eigenvalues --  -10.13675 -10.13599 -10.12581 -10.12483 -10.09037
 Alpha  occ. eigenvalues --  -10.08606 -10.08585 -10.08364 -10.08098 -10.07927
 Alpha  occ. eigenvalues --   -0.97715  -0.95593  -0.85090  -0.76792  -0.75321
 Alpha  occ. eigenvalues --   -0.70142  -0.66370  -0.64875  -0.60976  -0.59061
 Alpha  occ. eigenvalues --   -0.55336  -0.52383  -0.49398  -0.47628  -0.43850
 Alpha  occ. eigenvalues --   -0.42941  -0.41443  -0.40610  -0.38093  -0.37674
 Alpha  occ. eigenvalues --   -0.36721  -0.36226  -0.35224  -0.34711  -0.34189
 Alpha  occ. eigenvalues --   -0.33845  -0.33602  -0.30167  -0.28895  -0.28313
 Alpha  occ. eigenvalues --   -0.27031  -0.26078  -0.25688  -0.24961  -0.24265
 Alpha  occ. eigenvalues --   -0.21268  -0.18145  -0.16913  -0.15938  -0.15129
 Alpha  occ. eigenvalues --   -0.13957   0.04189
 Alpha virt. eigenvalues --    0.05615   0.06807   0.07248   0.07497   0.08333
 Alpha virt. eigenvalues --    0.08556   0.08869   0.09325   0.09579   0.10080
 Alpha virt. eigenvalues --    0.10931   0.11265   0.11651   0.11917   0.12384

  Beta  occ. eigenvalues --  -19.05195 -19.05167 -14.22377 -14.17796 -10.14631
  Beta  occ. eigenvalues --  -10.13676 -10.13581 -10.12548 -10.12454 -10.09042
  Beta  occ. eigenvalues --  -10.08580 -10.08557 -10.08351 -10.08072 -10.07902
  Beta  occ. eigenvalues --   -0.97703  -0.95582  -0.85063  -0.76765  -0.75285
  Beta  occ. eigenvalues --   -0.70110  -0.66323  -0.64834  -0.60925  -0.59011
  Beta  occ. eigenvalues --   -0.55280  -0.52336  -0.49358  -0.47580  -0.43818
  Beta  occ. eigenvalues --   -0.42903  -0.41419  -0.40575  -0.38049  -0.37639
  Beta  occ. eigenvalues --   -0.36687  -0.36185  -0.35191  -0.34675  -0.34158
  Beta  occ. eigenvalues --   -0.33804  -0.33567  -0.30131  -0.28853  -0.28273
  Beta  occ. eigenvalues --   -0.27000  -0.26037  -0.25655  -0.24924  -0.24227
  Beta  occ. eigenvalues --   -0.21247  -0.18122  -0.16891  -0.15862  -0.15086
  Beta  occ. eigenvalues --   -0.13917
  Beta virt. eigenvalues --    0.06198   0.06667   0.07348   0.07541   0.08121
  Beta virt. eigenvalues --    0.08611   0.09095   0.09168   0.09598   0.10043
  Beta virt. eigenvalues --    0.10507   0.11143   0.11552   0.11901   0.12244

 Mulliken charges and spin densities:
               1          2
     1  C    0.623056  -0.862381
     2  O   -0.166759   0.048847
     3  C    1.803222  -2.079952
     4  C   -0.364003  -0.270916
     5  C   -1.253429   1.103499
     6  C   -0.495703   1.547233
     7  C   -0.576491   0.117865
     8  C   -0.213979   0.171297
     9  C    1.329154  -1.910592
    10  C    0.851000  -1.364351
    11  C   -0.144409   0.045526
    12  N   -0.379660   0.053605
    13  N   -0.203389   0.005818
    14  O   -0.127598   0.005339
    15  C    0.434758  -0.660815
    16  H   -0.198911   0.353990
    17  H   -0.031592   0.218372
    18  H   -0.156296   0.283306
    19  H    0.089111   0.106490
    20  H   -0.694740   0.880367
    21  H   -0.378168   0.579974
    22  H   -0.096072   0.289365
    23  H   -0.487785   0.657226
    24  H   -0.371335   0.558091
    25  H   -0.046124   0.218741
    26  H    0.106919   0.088806
    27  H    0.277552  -0.030176
    28  H    0.076990   0.181719
    29  H   -0.009308   0.133949
    30  H   -0.037094   0.214640
    31  H   -0.158917   0.315118
 Sum of Mulliken charges =  -1.00000   1.00000

 Dipole moment (field-independent basis, Debye):
    X=              1.9246    Y=              1.8069    Z=             -0.1161  Tot=              2.6425
 Quadrupole moment (field-independent basis, Debye-Ang):
   XX=           -171.5667   YY=           -144.2725   ZZ=           -120.9105
   XY=             -3.7233   XZ=             -1.8551   YZ=              0.8199

 Summary of Natural Population Analysis:

                                       Natural Population
                Natural  -----------------------------------------------
    Atom  No    Charge         Core      Valence    Rydberg      Total
 -----------------------------------------------------------------------
      C    1   -0.09705      0.99959     2.08976    0.00771     3.09705
      O    2   -0.29123      0.99987     3.28083    0.01053     4.29123
      C    3    0.12828      0.99932     1.85766    0.01474     2.87172
      C    4    0.13732      0.99932     1.84996    0.01341     2.86268
      C    5   -0.10820      0.99946     2.09973    0.00901     3.10820
      C    6   -0.02415      0.99951     2.01295    0.01169     3.02415
      C    7   -0.10473      0.99951     2.09478    0.01044     3.10473
      C    8   -0.10973      0.99952     2.09963    0.01058     3.10973
      C    9   -0.19286      0.99959     2.18203    0.01124     3.19286
      C   10   -0.21704      0.99957     2.20799    0.00948     3.21704
      C   11    0.22741      0.99967     1.75470    0.01822     2.77259
      N   12   -0.36886      0.99970     2.86096    0.00820     3.86886
      N   13   -0.40074      0.99970     2.89191    0.00913     3.90074
      O   14   -0.29211      0.99986     3.28202    0.01022     4.29211
      C   15   -0.09952      0.99959     2.09079    0.00914     3.09952
      H   16    0.08947      0.00000     0.40893    0.00160     0.41053
      H   17    0.09002      0.00000     0.40808    0.00191     0.40998
      H   18    0.08238      0.00000     0.41589    0.00172     0.41762
      H   19    0.10963      0.00000     0.38862    0.00174     0.39037
      H   20    0.10487      0.00000     0.39326    0.00188     0.39513
      H   21    0.10742      0.00000     0.39121    0.00137     0.39258
      H   22    0.10168      0.00000     0.39685    0.00147     0.39832
      H   23    0.10743      0.00000     0.39064    0.00193     0.39257
      H   24    0.10899      0.00000     0.38914    0.00187     0.39101
      H   25    0.10505      0.00000     0.39313    0.00182     0.39495
      H   26    0.16314      0.00000     0.33458    0.00227     0.33686
      H   27    0.19180      0.00000     0.30577    0.00242     0.30820
      H   28    0.18874      0.00000     0.30925    0.00201     0.31126
      H   29    0.08272      0.00000     0.41581    0.00147     0.41728
      H   30    0.08949      0.00000     0.40891    0.00160     0.41051
      H   31    0.09036      0.00000     0.40841    0.00123     0.40964
 =======================================================================
   * Total *   -0.00000     14.99376    40.81419    0.19206    56.00000

 Normal termination of Gaussian 16 at Thu Dec 10 16:28:52 2020.
