 Gaussian 16, Revision A.03,

 -----------------------------------------------------------
 # opt freq B3LYP/6-31G(d) empiricaldispersion=gd3bj scf=xqc
 -----------------------------------------------------------

 ------------------------------
 CID_69621579_JID_6016_neutraal
 ------------------------------
 Symbolic Z-matrix:
 Charge =  0 Multiplicity = 1

 SCF Done:  E(RB3LYP) =  -728.346345509     A.U. after   15 cycles
 SCF Done:  E(RB3LYP) =  -728.352379669     A.U. after   13 cycles
 SCF Done:  E(RB3LYP) =  -728.352433410     A.U. after   13 cycles
 SCF Done:  E(RB3LYP) =  -728.353297690     A.U. after   13 cycles
 SCF Done:  E(RB3LYP) =  -728.353691742     A.U. after   11 cycles
 SCF Done:  E(RB3LYP) =  -728.353822937     A.U. after   12 cycles
 SCF Done:  E(RB3LYP) =  -728.353844644     A.U. after   10 cycles
 SCF Done:  E(RB3LYP) =  -728.353853871     A.U. after    8 cycles
 SCF Done:  E(RB3LYP) =  -728.353855201     A.U. after    8 cycles
 SCF Done:  E(RB3LYP) =  -728.353855552     A.U. after    8 cycles
 SCF Done:  E(RB3LYP) =  -728.353855819     A.U. after    7 cycles
 SCF Done:  E(RB3LYP) =  -728.353855899     A.U. after    7 cycles
 Optimization completed.
    -- Stationary point found.
 Normal termination of Gaussian 16 at Thu Dec 10 21:10:29 2020.

 --------------------------------------------------------------------
 #N Geom=AllCheck Guess=TCheck SCRF=Check GenChk RB3LYP/6-31G(d) Freq
 --------------------------------------------------------------------

 Structure from the checkpoint file:  "JID_6016.chk"
 ------------------------------
 CID_69621579_JID_6016_neutraal
 ------------------------------
 Charge =  0 Multiplicity = 1

 SCF Done:  E(RB3LYP) =  -728.353855900     A.U. after    1 cycles

  Exact polarizability: 211.254  17.077 169.887   1.677  -3.460  64.076
 Approx polarizability: 321.146  36.038 298.704   4.497 -14.774 104.276

                      1                      2                      3
                      A                      A                      A
 Frequencies --     48.0255                72.7214                91.2469
 Red. masses --      5.1671                 4.0171                 4.5029
 Frc consts  --      0.0070                 0.0125                 0.0221
 IR Inten    --      1.4971                 1.3233                 0.2578

                      4                      5                      6
                      A                      A                      A
 Frequencies --    111.6421               147.8428               166.9405
 Red. masses --      2.6538                 1.2414                 1.0377
 Frc consts  --      0.0195                 0.0160                 0.0170
 IR Inten    --      0.5370                 0.0407                 0.4516

                      7                      8                      9
                      A                      A                      A
 Frequencies --    176.8425               197.5414               216.2929
 Red. masses --      4.1912                 4.0787                 5.6179
 Frc consts  --      0.0772                 0.0938                 0.1548
 IR Inten    --      6.7304                 0.4541                 3.6028

                     10                     11                     12
                      A                      A                      A
 Frequencies --    275.0072               314.7923               322.1540
 Red. masses --      4.3372                 5.9944                 4.4064
 Frc consts  --      0.1933                 0.3500                 0.2694
 IR Inten    --      2.4405                 0.2258                10.4010

                     13                     14                     15
                      A                      A                      A
 Frequencies --    333.4873               362.7975               378.8936
 Red. masses --      1.1257                 4.2508                 4.4005
 Frc consts  --      0.0738                 0.3296                 0.3722
 IR Inten    --    115.6249                 2.5970                11.6688

                     16                     17                     18
                      A                      A                      A
 Frequencies --    384.1464               429.0689               461.2050
 Red. masses --      5.5532                 3.5963                 4.1101
 Frc consts  --      0.4828                 0.3901                 0.5151
 IR Inten    --      1.5957                 0.0583                 2.2387

                     19                     20                     21
                      A                      A                      A
 Frequencies --    495.7852               542.8594               559.0450
 Red. masses --      3.7272                 3.5795                 5.2395
 Frc consts  --      0.5398                 0.6215                 0.9648
 IR Inten    --      5.6716                 1.9241                 1.6888

                     22                     23                     24
                      A                      A                      A
 Frequencies --    607.7195               619.7289               662.7144
 Red. masses --      4.7434                 5.6744                 3.7056
 Frc consts  --      1.0322                 1.2840                 0.9589
 IR Inten    --      1.3158                10.4187                 5.3996

                     25                     26                     27
                      A                      A                      A
 Frequencies --    715.0260               751.2297               780.1076
 Red. masses --      6.3272                 4.5993                 5.4679
 Frc consts  --      1.9059                 1.5293                 1.9605
 IR Inten    --      1.3041                 4.3048                 6.3877

                     28                     29                     30
                      A                      A                      A
 Frequencies --    783.6380               818.9300               831.3193
 Red. masses --      3.3708                 1.3653                 2.5138
 Frc consts  --      1.2196                 0.5395                 1.0236
 IR Inten    --      3.4903                25.6482                10.1558

                     31                     32                     33
                      A                      A                      A
 Frequencies --    834.2275               879.8752               918.3643
 Red. masses --      3.6898                 1.5312                 4.7749
 Frc consts  --      1.5129                 0.6984                 2.3727
 IR Inten    --     10.5371                29.3938                 6.6154

                     34                     35                     36
                      A                      A                      A
 Frequencies --    955.3800               969.7183               973.7902
 Red. masses --      1.2863                 1.3314                 3.3886
 Frc consts  --      0.6917                 0.7377                 1.8932
 IR Inten    --      1.1434                 1.1233                31.0684

                     37                     38                     39
                      A                      A                      A
 Frequencies --   1001.8085              1051.9699              1072.4408
 Red. masses --      3.1150                 2.6663                 1.5278
 Frc consts  --      1.8419                 1.7385                 1.0353
 IR Inten    --     10.5837                11.9409                 6.3344

                     40                     41                     42
                      A                      A                      A
 Frequencies --   1085.6424              1178.6978              1184.9432
 Red. masses --      2.8055                 1.8669                 1.2846
 Frc consts  --      1.9482                 1.5282                 1.0627
 IR Inten    --     30.1692               195.9041                 4.6017

                     43                     44                     45
                      A                      A                      A
 Frequencies --   1197.0480              1200.2130              1221.3185
 Red. masses --      1.5309                 1.2677                 1.5256
 Frc consts  --      1.2925                 1.0759                 1.3408
 IR Inten    --     49.9235                 6.7370                14.0671

                     46                     47                     48
                      A                      A                      A
 Frequencies --   1237.7112              1257.0942              1274.6242
 Red. masses --      1.5192                 2.5425                 2.5362
 Frc consts  --      1.3712                 2.3673                 2.4277
 IR Inten    --    172.2334                 6.2070               219.7832

                     49                     50                     51
                      A                      A                      A
 Frequencies --   1292.1621              1327.3127              1392.7416
 Red. masses --      2.9155                 2.4676                 3.6126
 Frc consts  --      2.8681                 2.5614                 4.1286
 IR Inten    --    152.3668                71.9401               104.6002

                     52                     53                     54
                      A                      A                      A
 Frequencies --   1414.5279              1434.8924              1445.4968
 Red. masses --      5.5119                 3.3568                 1.2595
 Frc consts  --      6.4979                 4.0720                 1.5506
 IR Inten    --      2.1647                 8.0529                 1.2118

                     55                     56                     57
                      A                      A                      A
 Frequencies --   1465.8628              1491.4958              1511.7651
 Red. masses --      2.5426                 1.2416                 1.0529
 Frc consts  --      3.2190                 1.6274                 1.4178
 IR Inten    --     19.6395                 9.7476                 6.3844

                     58                     59                     60
                      A                      A                      A
 Frequencies --   1514.7908              1524.1972              1525.0514
 Red. masses --      1.1184                 1.0593                 1.0515
 Frc consts  --      1.5120                 1.4499                 1.4409
 IR Inten    --     20.6872                 3.4388                16.2670

                     61                     62                     63
                      A                      A                      A
 Frequencies --   1536.2682              1567.7727              1622.3533
 Red. masses --      2.5961                 3.4831                 7.0155
 Frc consts  --      3.6100                 5.0440                10.8792
 IR Inten    --     23.4020               126.0495                12.5018

                     64                     65                     66
                      A                      A                      A
 Frequencies --   1665.7520              1698.0286              1792.2281
 Red. masses --      6.1960                 5.9148                11.5418
 Frc consts  --     10.1293                10.0479                21.8428
 IR Inten    --      7.5787                70.7736               199.0436

                     67                     68                     69
                      A                      A                      A
 Frequencies --   3061.3204              3075.3244              3122.4773
 Red. masses --      1.0362                 1.0295                 1.1013
 Frc consts  --      5.7213                 5.7367                 6.3264
 IR Inten    --     30.7561                38.1321                16.2329

                     70                     71                     72
                      A                      A                      A
 Frequencies --   3135.1317              3149.2661              3167.2391
 Red. masses --      1.1023                 1.1073                 1.0900
 Frc consts  --      6.3835                 6.4704                 6.4420
 IR Inten    --     17.7946                19.2862                23.5343

                     73                     74                     75
                      A                      A                      A
 Frequencies --   3180.7301              3182.3994              3198.7223
 Red. masses --      1.0864                 1.1071                 1.0954
 Frc consts  --      6.4757                 6.6060                 6.6035
 IR Inten    --      5.1185                17.6466                25.9405

                     76                     77                     78
                      A                      A                      A
 Frequencies --   3208.9075              3255.8024              3754.5557
 Red. masses --      1.0909                 1.0913                 1.0660
 Frc consts  --      6.6184                 6.8159                 8.8538
 IR Inten    --     10.7446                 2.2952                59.5554

 - Thermochemistry -
 -------------------
 Temperature   298.150 Kelvin.  Pressure   1.00000 Atm.
 Atom     1 has atomic number  6 and mass  12.00000

 Molecular mass:   216.07864 amu.
 Principal axes and moments of inertia in atomic units:
                           1         2         3
     Eigenvalues --  1855.533914964.117616602.25267
           X            0.99999   0.00389  -0.00250
           Y           -0.00387   0.99996   0.00758
           Z            0.00253  -0.00757   0.99997
 This molecule is an asymmetric top.
 Rotational symmetry number  1.
 Warning -- assumption of classical behavior for rotation
           may cause significant error
 Rotational temperatures (Kelvin)      0.04668     0.01745     0.01312
 Rotational constants (GHZ):           0.97263     0.36356     0.27335
 Zero-point vibrational energy     585381.8 (Joules/Mol)
                                  139.90961 (Kcal/Mol)
 Warning -- explicit consideration of  23 degrees of freedom as
           vibrations may cause significant error
 Vibrational temperatures:     69.10   104.63   131.28   160.63   212.71
          (Kelvin)            240.19   254.44   284.22   311.20   395.67
                              452.92   463.51   479.81   521.98   545.14
                              552.70   617.33   663.57   713.32   781.05
                              804.34   874.37   891.65   953.50  1028.76
                             1080.85  1122.40  1127.48  1178.26  1196.08
                             1200.27  1265.94  1321.32  1374.58  1395.21
                             1401.07  1441.38  1513.55  1543.00  1562.00
                             1695.88  1704.87  1722.29  1726.84  1757.20
                             1780.79  1808.68  1833.90  1859.13  1909.71
                             2003.84  2035.19  2064.49  2079.75  2109.05
                             2145.93  2175.09  2179.45  2192.98  2194.21
                             2210.35  2255.68  2334.20  2396.65  2443.08
                             2578.62  4404.56  4424.71  4492.55  4510.76
                             4531.09  4556.95  4576.36  4578.76  4602.25
                             4616.90  4684.37  5401.97

 Zero-point correction=                           0.222960 (Hartree/Particle)
 Thermal correction to Energy=                    0.237205
 Thermal correction to Enthalpy=                  0.238149
 Thermal correction to Gibbs Free Energy=         0.181986
 Sum of electronic and zero-point Energies=           -728.130896
 Sum of electronic and thermal Energies=              -728.116651
 Sum of electronic and thermal Enthalpies=            -728.115707
 Sum of electronic and thermal Free Energies=         -728.171870

                     E (Thermal)             CV                S
                      KCal/Mol        Cal/Mol-Kelvin    Cal/Mol-Kelvin
 Total                  148.848             54.691            118.206
 Electronic               0.000              0.000              0.000
 Translational            0.889              2.981             42.015
 Rotational               0.889              2.981             32.475
 Vibrational            147.071             48.729             43.716
 Vibration     1          0.595              1.978              4.897
 Vibration     2          0.599              1.967              4.078
 Vibration     3          0.602              1.955              3.633
 Vibration     4          0.607              1.940              3.240
 Vibration     5          0.617              1.905              2.700
 Vibration     6          0.624              1.883              2.470
 Vibration     7          0.628              1.871              2.361
 Vibration     8          0.637              1.843              2.156
 Vibration     9          0.645              1.816              1.990
 Vibration    10          0.677              1.720              1.565
 Vibration    11          0.702              1.645              1.337
 Vibration    12          0.707              1.631              1.299
 Vibration    13          0.715              1.609              1.243
 Vibration    14          0.737              1.549              1.110
 Vibration    15          0.749              1.515              1.044
 Vibration    16          0.753              1.504              1.023
 Vibration    17          0.790              1.407              0.862
 Vibration    18          0.819              1.336              0.763
 Vibration    19          0.851              1.259              0.669
 Vibration    20          0.898              1.155              0.559
 Vibration    21          0.915              1.120              0.526
 Vibration    22          0.967              1.015              0.437
 Vibration    23          0.980              0.990              0.417

 Optimization completed.
    -- Stationary point found.
 Normal termination of Gaussian 16 at Thu Dec 10 21:19:45 2020.

 ----------------------------------------------------------------------
 # B3LYP/6-311++G(d,p) empiricaldispersion=gd3bj scf=xqc pop=npa geom=c
 heck
 ----------------------------------------------------------------------

 --------------------------------------
 CID_69621579_JID_6016_Energie_neutraal
 --------------------------------------
 Structure from the checkpoint file:  "JID_6016.chk"
 Charge =  0 Multiplicity = 1

 SCF Done:  E(RB3LYP) =  -728.557524267     A.U. after   15 cycles
 Normal termination of Gaussian 16 at Thu Dec 10 21:23:14 2020.

 ----------------------------------------------------------------------
 # B3LYP/6-311++G(d,p) empiricaldispersion=gd3bj scf=xqc pop=npa geom=c
 heck
 ----------------------------------------------------------------------

 ------------------------------------
 CID_69621579_JID_6016_Energie_kation
 ------------------------------------
 Structure from the checkpoint file:  "JID_6016.chk"
 Charge =  1 Multiplicity = 2

 SCF Done:  E(UB3LYP) =  -728.277910396     A.U. after   23 cycles
 Normal termination of Gaussian 16 at Thu Dec 10 21:30:58 2020.
 Gaussian 16:  ES64L-G16RevA.03 25-Dec-2016

 ----------------------------------------------------------------------
 # B3LYP/6-311++G(d,p) empiricaldispersion=gd3bj scf=xqc pop=npa geom=c
 heck
 ----------------------------------------------------------------------

 -----------------------------------
 CID_69621579_JID_6016_Energie_anion
 -----------------------------------
 Structure from the checkpoint file:  "JID_6016.chk"
 Charge = -1 Multiplicity = 2

                         Standard orientation:
 ---------------------------------------------------------------------
 Center     Atomic      Atomic             Coordinates (Angstroms)
 Number     Number       Type             X           Y           Z
 ---------------------------------------------------------------------
      1          6           0        2.771983    1.968736    0.187191
      2          6           0        1.316332    1.567254    0.099606
      3          6           0        0.873858    0.247616    0.121537
      4          6           0       -0.526766   -0.064935    0.069322
      5          6           0       -1.474022    1.005280   -0.038247
      6          6           0       -0.993108    2.338916   -0.059216
      7          6           0        0.350468    2.603278    0.016393
      8          6           0       -2.859934    0.728965   -0.116254
      9          6           0       -3.313995   -0.570608   -0.091849
     10          6           0       -2.387841   -1.636565    0.011840
     11          6           0       -1.037241   -1.391678    0.091295
     12          8           0       -4.660339   -0.794529   -0.170252
     13          6           0        1.848796   -0.879846    0.225112
     14          8           0        1.737844   -1.849897    0.949919
     15          8           0        2.899939   -0.721041   -0.612780
     16          6           0        3.896700   -1.751442   -0.540170
     17          1           0        3.329283    1.359052    0.903490
     18          1           0        3.273681    1.862706   -0.780374
     19          1           0        2.853246    3.014730    0.498381
     20          1           0       -1.710255    3.152760   -0.127593
     21          1           0        0.697324    3.633126    0.014748
     22          1           0       -3.572186    1.544016   -0.197073
     23          1           0       -2.752808   -2.662018    0.033030
     24          1           0       -0.351673   -2.222376    0.189395
     25          1           0       -4.821453   -1.749811   -0.134997
     26          1           0        4.311498   -1.816062    0.469220
     27          1           0        3.465916   -2.719961   -0.806797
     28          1           0        4.666479   -1.462256   -1.255886
 ---------------------------------------------------------------------

 SCF Done:  E(UB3LYP) =  -728.564586041     A.U. after   26 cycles

 The electronic state is 2-A.
 Alpha  occ. eigenvalues --  -19.03105 -19.02927 -18.95716 -10.14172 -10.10984
 Alpha  occ. eigenvalues --  -10.08998 -10.03424 -10.03349 -10.03096 -10.02766
 Alpha  occ. eigenvalues --  -10.02520 -10.01667 -10.01666 -10.01665 -10.01537
 Alpha  occ. eigenvalues --  -10.00625  -0.96784  -0.93980  -0.87360  -0.72395
 Alpha  occ. eigenvalues --   -0.67964  -0.63607  -0.61238  -0.60806  -0.57816
 Alpha  occ. eigenvalues --   -0.54813  -0.49060  -0.47173  -0.46511  -0.43386
 Alpha  occ. eigenvalues --   -0.41540  -0.37286  -0.36560  -0.35666  -0.34692
 Alpha  occ. eigenvalues --   -0.33640  -0.31898  -0.30084  -0.29825  -0.28762
 Alpha  occ. eigenvalues --   -0.28162  -0.27773  -0.27089  -0.26108  -0.25455
 Alpha  occ. eigenvalues --   -0.24944  -0.23530  -0.22563  -0.21672  -0.20025
 Alpha  occ. eigenvalues --   -0.19249  -0.17399  -0.16660  -0.14255  -0.12621
 Alpha  occ. eigenvalues --   -0.09431  -0.06980   0.04922
 Alpha virt. eigenvalues --    0.07765   0.08102   0.09488   0.10544   0.10998
 Alpha virt. eigenvalues --    0.11184   0.12154   0.12256   0.12711   0.13252
 Alpha virt. eigenvalues --    0.13859   0.14474   0.14868   0.16364   0.16545

  Beta  occ. eigenvalues --  -19.03102 -19.02870 -18.95521 -10.14030 -10.10976
  Beta  occ. eigenvalues --  -10.09021 -10.03436 -10.03433 -10.03094 -10.02622
  Beta  occ. eigenvalues --  -10.02371 -10.01501 -10.01499 -10.01497 -10.01404
  Beta  occ. eigenvalues --  -10.00264  -0.96585  -0.93971  -0.87055  -0.72103
  Beta  occ. eigenvalues --   -0.67597  -0.63162  -0.61004  -0.60622  -0.57479
  Beta  occ. eigenvalues --   -0.54628  -0.48654  -0.46806  -0.46272  -0.43212
  Beta  occ. eigenvalues --   -0.41396  -0.37042  -0.36424  -0.35428  -0.34533
  Beta  occ. eigenvalues --   -0.33400  -0.31734  -0.29923  -0.29647  -0.28481
  Beta  occ. eigenvalues --   -0.27972  -0.27601  -0.26935  -0.25810  -0.25106
  Beta  occ. eigenvalues --   -0.24830  -0.23374  -0.22008  -0.21509  -0.19851
  Beta  occ. eigenvalues --   -0.19086  -0.16770  -0.15556  -0.13620  -0.11889
  Beta  occ. eigenvalues --   -0.08513  -0.05471
  Beta virt. eigenvalues --    0.07684   0.08066   0.09436   0.10264   0.10512
  Beta virt. eigenvalues --    0.10970   0.11209   0.12107   0.12593   0.12907
  Beta virt. eigenvalues --    0.13851   0.13955   0.14487   0.14831   0.16436

 Mulliken charges and spin densities:
               1          2
     1  C   -0.511065  -0.044592
     2  C    0.910836   0.141091
     3  C    0.442669   0.170188
     4  C    0.382277   0.023920
     5  C    1.146302  -0.053953
     6  C   -0.468326   0.256661
     7  C   -0.741631   0.029343
     8  C   -0.701487   0.129126
     9  C   -0.211113  -0.025894
    10  C   -0.239372   0.101877
    11  C   -0.827144   0.096569
    12  O   -0.266591   0.002549
    13  C   -0.817215   0.089224
    14  O   -0.296376   0.064272
    15  O   -0.046361   0.010802
    16  C   -0.176154  -0.053850
    17  H    0.116779   0.031170
    18  H    0.167868   0.001233
    19  H    0.113172   0.000720
    20  H    0.068394  -0.023192
    21  H    0.068350  -0.003797
    22  H    0.099523  -0.008976
    23  H    0.082844  -0.009949
    24  H    0.091270  -0.000934
    25  H    0.248936  -0.000644
    26  H    0.122458   0.041813
    27  H    0.137569   0.017302
    28  H    0.103586   0.017922
 Sum of Mulliken charges =  -1.00000   1.00000

 Dipole moment (field-independent basis, Debye):
    X=              1.5160    Y=             -1.1964    Z=             -1.2802  Tot=              2.3170
 Quadrupole moment (field-independent basis, Debye-Ang):
   XX=           -121.1411   YY=           -107.9910   ZZ=           -106.8393
   XY=              5.8507   XZ=             -2.9716   YZ=              4.2192

 Summary of Natural Population Analysis:

                                       Natural Population
                Natural  -----------------------------------------------
    Atom  No    Charge         Core      Valence    Rydberg      Total
 -----------------------------------------------------------------------
      C    1   -0.28994      0.99964     2.28577    0.00453     3.28994
      C    2   -0.00013      0.99955     1.98845    0.01213     3.00013
      C    3    0.02878      0.99938     1.96163    0.01021     2.97122
      C    4   -0.03614      0.99953     2.02369    0.01293     3.03614
      C    5   -0.04385      0.99953     2.03578    0.00854     3.04385
      C    6   -0.01790      0.99942     2.00868    0.00981     3.01790
      C    7   -0.10635      0.99955     2.09746    0.00933     3.10635
      C    8   -0.09332      0.99940     2.08430    0.00962     3.09332
      C    9    0.13957      0.99939     1.84863    0.01241     2.86043
      C   10   -0.11817      0.99953     2.10935    0.00929     3.11817
      C   11   -0.05812      0.99955     2.05002    0.00855     3.05812
      O   12   -0.35043      0.99988     3.34400    0.00655     4.35043
      C   13    0.41256      0.99968     1.56126    0.02650     2.58744
      O   14   -0.30559      0.99987     3.29966    0.00605     4.30559
      O   15   -0.27981      0.99986     3.27112    0.00883     4.27981
      C   16   -0.10630      0.99961     2.09803    0.00865     3.10630
      H   17    0.09923      0.00000     0.39967    0.00111     0.40077
      H   18    0.10252      0.00000     0.39633    0.00114     0.39748
      H   19    0.09091      0.00000     0.40798    0.00111     0.40909
      H   20    0.08296      0.00000     0.41475    0.00229     0.41704
      H   21    0.08565      0.00000     0.41265    0.00170     0.41435
      H   22    0.09267      0.00000     0.40530    0.00203     0.40733
      H   23    0.08464      0.00000     0.41405    0.00131     0.41536
      H   24    0.10493      0.00000     0.39316    0.00191     0.39507
      H   25    0.22665      0.00000     0.27089    0.00246     0.27335
      H   26    0.08671      0.00000     0.41143    0.00186     0.41329
      H   27    0.08692      0.00000     0.41116    0.00192     0.41308
      H   28    0.08317      0.00000     0.41569    0.00114     0.41683
 =======================================================================
   * Total *    0.00181     15.99337    40.82090    0.18392    56.99819

 Normal termination of Gaussian 16 at Thu Dec 10 21:40:03 2020.
