 Gaussian 16, Revision A.03,

 -----------------------------------------------------------
 # opt freq B3LYP/6-31G(d) empiricaldispersion=gd3bj scf=xqc
 -----------------------------------------------------------

 ------------------------------
 CID_10421805_JID_8000_neutraal
 ------------------------------
 Symbolic Z-matrix:
 Charge =  0 Multiplicity = 1

 SCF Done:  E(RB3LYP) =  -812.891105194     A.U. after   15 cycles
 SCF Done:  E(RB3LYP) =  -812.898558464     A.U. after   13 cycles
 SCF Done:  E(RB3LYP) =  -812.900877309     A.U. after   13 cycles
 SCF Done:  E(RB3LYP) =  -812.903707554     A.U. after   13 cycles
 SCF Done:  E(RB3LYP) =  -812.903820267     A.U. after   16 cycles
 SCF Done:  E(RB3LYP) =  -812.906324552     A.U. after   15 cycles
 SCF Done:  E(RB3LYP) =  -812.906568777     A.U. after   12 cycles
 SCF Done:  E(RB3LYP) =  -812.906799596     A.U. after   12 cycles
 SCF Done:  E(RB3LYP) =  -812.906909433     A.U. after   11 cycles
 SCF Done:  E(RB3LYP) =  -812.906927160     A.U. after   10 cycles
 SCF Done:  E(RB3LYP) =  -812.906932940     A.U. after    9 cycles
 SCF Done:  E(RB3LYP) =  -812.906934272     A.U. after    8 cycles
 SCF Done:  E(RB3LYP) =  -812.906935175     A.U. after    9 cycles
 SCF Done:  E(RB3LYP) =  -812.906935380     A.U. after    8 cycles
 Optimization completed.
    -- Stationary point found.
 Normal termination of Gaussian 16 at Fri Dec 11 18:39:17 2020.

 --------------------------------------------------------------------
 #N Geom=AllCheck Guess=TCheck SCRF=Check GenChk RB3LYP/6-31G(d) Freq
 --------------------------------------------------------------------

 Structure from the checkpoint file:  "JID_8000.chk"
 ------------------------------
 CID_10421805_JID_8000_neutraal
 ------------------------------
 Charge =  0 Multiplicity = 1

 SCF Done:  E(RB3LYP) =  -812.906935380     A.U. after    1 cycles

  Exact polarizability: 146.445   8.425 170.943 -39.507  -1.463 117.545
 Approx polarizability: 230.182  20.277 320.504 -91.802  -8.686 216.513

                      1                      2                      3
                      A                      A                      A
 Frequencies --     35.6317                44.6042                59.6899
 Red. masses --      5.8736                 5.8555                 4.8380
 Frc consts  --      0.0044                 0.0069                 0.0102
 IR Inten    --      0.3147                 3.2075                 0.7398

                      4                      5                      6
                      A                      A                      A
 Frequencies --     98.0756               126.7535               177.3095
 Red. masses --      6.0944                 5.6241                 4.8538
 Frc consts  --      0.0345                 0.0532                 0.0899
 IR Inten    --      0.1713                 0.7846                 2.6209

                      7                      8                      9
                      A                      A                      A
 Frequencies --    235.7545               237.8447               273.4948
 Red. masses --      5.8008                 4.8829                 2.9518
 Frc consts  --      0.1900                 0.1627                 0.1301
 IR Inten    --      2.6320                 3.2654                 7.1176

                     10                     11                     12
                      A                      A                      A
 Frequencies --    305.1077               339.4188               347.8000
 Red. masses --      4.6068                 1.3524                 3.1180
 Frc consts  --      0.2527                 0.0918                 0.2222
 IR Inten    --      9.8277               241.3464                26.4707

                     13                     14                     15
                      A                      A                      A
 Frequencies --    432.4297               440.9917               470.0617
 Red. masses --      2.8508                 3.0107                 2.4438
 Frc consts  --      0.3141                 0.3450                 0.3181
 IR Inten    --     12.1626                 9.7102                 1.7922

                     16                     17                     18
                      A                      A                      A
 Frequencies --    483.9995               495.2750               522.3694
 Red. masses --      2.8827                 2.6683                 3.4567
 Frc consts  --      0.3979                 0.3856                 0.5557
 IR Inten    --      0.9286                 5.6816                 1.6892

                     19                     20                     21
                      A                      A                      A
 Frequencies --    539.7115               555.6066               584.4664
 Red. masses --      4.4453                 4.3847                 4.2639
 Frc consts  --      0.7629                 0.7975                 0.8582
 IR Inten    --      0.2707                 1.6425                 0.1228

                     22                     23                     24
                      A                      A                      A
 Frequencies --    595.7982               603.9252               641.4994
 Red. masses --      6.0842                 5.8137                 6.1238
 Frc consts  --      1.2725                 1.2493                 1.4848
 IR Inten    --      2.7525                 2.4103                 8.9061

                     25                     26                     27
                      A                      A                      A
 Frequencies --    684.2659               759.7171               766.6366
 Red. masses --      7.6841                 1.5681                 4.3631
 Frc consts  --      2.1198                 0.5332                 1.5109
 IR Inten    --      5.9255                57.9428                18.7260

                     28                     29                     30
                      A                      A                      A
 Frequencies --    767.5381               778.9959               781.8500
 Red. masses --      3.3525                 2.6126                 3.3868
 Frc consts  --      1.1636                 0.9341                 1.2198
 IR Inten    --     43.5277                12.3530                 5.3395

                     31                     32                     33
                      A                      A                      A
 Frequencies --    804.4278               811.2820               864.5617
 Red. masses --      5.3869                 2.3969                 1.4907
 Frc consts  --      2.0538                 0.9295                 0.6565
 IR Inten    --     20.8031                11.5580                 0.3200

                     34                     35                     36
                      A                      A                      A
 Frequencies --    896.8502               923.8571               945.6067
 Red. masses --      5.1478                 5.2963                 1.3533
 Frc consts  --      2.4396                 2.6634                 0.7130
 IR Inten    --      4.6836                 1.6719                 1.0608

                     37                     38                     39
                      A                      A                      A
 Frequencies --    946.8980               963.8451               984.5962
 Red. masses --      1.3569                 1.3448                 1.2627
 Frc consts  --      0.7168                 0.7361                 0.7212
 IR Inten    --      0.8247                 0.3640                 0.2986

                     40                     41                     42
                      A                      A                      A
 Frequencies --    987.6935              1022.8015              1036.5938
 Red. masses --      4.1204                 3.4112                 2.0842
 Frc consts  --      2.3683                 2.1025                 1.3195
 IR Inten    --    127.8897                50.2048                 7.5022

                     43                     44                     45
                      A                      A                      A
 Frequencies --   1047.6711              1096.6883              1138.1184
 Red. masses --      2.6454                 1.8922                 3.1009
 Frc consts  --      1.7108                 1.3409                 2.3666
 IR Inten    --     81.8802                 8.4771                 5.4801

                     46                     47                     48
                      A                      A                      A
 Frequencies --   1155.5069              1159.4992              1187.5847
 Red. masses --      1.2824                 1.6461                 2.2067
 Frc consts  --      1.0088                 1.3039                 1.8337
 IR Inten    --      8.9170                 3.0880                73.1054

                     49                     50                     51
                      A                      A                      A
 Frequencies --   1194.6245              1218.8833              1276.5830
 Red. masses --      1.4163                 3.6220                 3.7727
 Frc consts  --      1.1908                 3.1704                 3.6225
 IR Inten    --      6.2346               163.6583                 1.9132

                     52                     53                     54
                      A                      A                      A
 Frequencies --   1304.9778              1326.7719              1335.3237
 Red. masses --      1.6944                 1.4471                 1.9895
 Frc consts  --      1.7001                 1.5009                 2.0902
 IR Inten    --     15.3712                 4.8325                25.9818

                     55                     56                     57
                      A                      A                      A
 Frequencies --   1348.2557              1372.4805              1381.8050
 Red. masses --      4.3379                 2.1619                 3.7445
 Frc consts  --      4.6460                 2.3994                 4.2124
 IR Inten    --      3.3534                 2.5485                18.5106

                     58                     59                     60
                      A                      A                      A
 Frequencies --   1427.9103              1433.9140              1441.3941
 Red. masses --      2.3931                 4.4891                 1.5923
 Frc consts  --      2.8748                 5.4382                 1.9491
 IR Inten    --     55.7640                 0.8614                 2.7233

                     61                     62                     63
                      A                      A                      A
 Frequencies --   1501.5765              1501.8505              1512.3701
 Red. masses --      1.5057                 2.1603                 1.8851
 Frc consts  --      2.0002                 2.8709                 2.5403
 IR Inten    --     32.0675                12.6453                 7.2755

                     64                     65                     66
                      A                      A                      A
 Frequencies --   1520.9736              1541.5568              1626.9413
 Red. masses --      2.8119                 3.1592                 6.4910
 Frc consts  --      3.8326                 4.4233                10.1229
 IR Inten    --    151.2462                 7.9009                 7.2778

                     67                     68                     69
                      A                      A                      A
 Frequencies --   1636.8323              1645.4406              1673.6946
 Red. masses --      1.9342                 6.9775                 5.4278
 Frc consts  --      3.0532                11.1304                 8.9582
 IR Inten    --     20.4633                 4.3310                50.9204

                     70                     71                     72
                      A                      A                      A
 Frequencies --   1676.6633              3079.5202              3173.4307
 Red. masses --      2.8332                 1.0656                 1.0892
 Frc consts  --      4.6927                 5.9541                 6.4629
 IR Inten    --    188.1053                28.4270                23.2970

                     73                     74                     75
                      A                      A                      A
 Frequencies --   3181.5624              3195.7621              3197.3948
 Red. masses --      1.1018                 1.0867                 1.0898
 Frc consts  --      6.5711                 6.5387                 6.5646
 IR Inten    --      8.3182                 2.7832                 9.2781

                     76                     77                     78
                      A                      A                      A
 Frequencies --   3209.3520              3221.7775              3225.1242
 Red. masses --      1.0903                 1.0959                 1.0939
 Frc consts  --      6.6167                 6.7024                 6.7035
 IR Inten    --     12.4628                15.0904                12.6245

                     79                     80                     81
                      A                      A                      A
 Frequencies --   3228.2798              3600.5482              3721.0313
 Red. masses --      1.0956                 1.0451                 1.1038
 Frc consts  --      6.7274                 7.9826                 9.0046
 IR Inten    --      5.3289                57.6538                38.0245

 - Thermochemistry -
 -------------------
 Temperature   298.150 Kelvin.  Pressure   1.00000 Atm.
 Atom     1 has atomic number  6 and mass  12.00000

 Molecular mass:   241.09636 amu.
 Principal axes and moments of inertia in atomic units:
                           1         2         3
     Eigenvalues --  2626.875144310.173905374.48243
           X            0.99982  -0.01374  -0.01338
           Y            0.01375   0.99991   0.00041
           Z            0.01338  -0.00059   0.99991
 This molecule is an asymmetric top.
 Rotational symmetry number  1.
 Warning -- assumption of classical behavior for rotation
           may cause significant error
 Rotational temperatures (Kelvin)      0.03297     0.02010     0.01612
 Rotational constants (GHZ):           0.68703     0.41872     0.33580
 Zero-point vibrational energy     592721.6 (Joules/Mol)
                                  141.66386 (Kcal/Mol)
 Warning -- explicit consideration of  23 degrees of freedom as
           vibrations may cause significant error
 Vibrational temperatures:     51.27    64.18    85.88   141.11   182.37
          (Kelvin)            255.11   339.20   342.21   393.50   438.98
                              488.35   500.41   622.17   634.49   676.31
                              696.37   712.59   751.57   776.52   799.39
                              840.92   857.22   868.91   922.97   984.51
                             1093.06  1103.02  1104.32  1120.80  1124.91
                             1157.39  1167.25  1243.91  1290.37  1329.22
                             1360.52  1362.38  1386.76  1416.61  1421.07
                             1471.58  1491.43  1507.37  1577.89  1637.50
                             1662.52  1668.26  1708.67  1718.80  1753.70
                             1836.72  1877.57  1908.93  1921.23  1939.84
                             1974.69  1988.11  2054.44  2063.08  2073.84
                             2160.43  2160.83  2175.96  2188.34  2217.96
                             2340.81  2355.04  2367.42  2408.07  2412.34
                             4430.74  4565.86  4577.56  4597.99  4600.34
                             4617.54  4635.42  4640.23  4644.77  5180.39
                             5353.73

 Zero-point correction=                           0.225756 (Hartree/Particle)
 Thermal correction to Energy=                    0.239671
 Thermal correction to Enthalpy=                  0.240615
 Thermal correction to Gibbs Free Energy=         0.184241
 Sum of electronic and zero-point Energies=           -812.681180
 Sum of electronic and thermal Energies=              -812.667264
 Sum of electronic and thermal Enthalpies=            -812.666320
 Sum of electronic and thermal Free Energies=         -812.722695

                     E (Thermal)             CV                S
                      KCal/Mol        Cal/Mol-Kelvin    Cal/Mol-Kelvin
 Total                  150.396             55.643            118.650
 Electronic               0.000              0.000              0.000
 Translational            0.889              2.981             42.341
 Rotational               0.889              2.981             32.476
 Vibrational            148.618             49.681             43.833
 Vibration     1          0.594              1.982              5.488
 Vibration     2          0.595              1.980              5.043
 Vibration     3          0.597              1.974              4.467
 Vibration     4          0.604              1.951              3.492
 Vibration     5          0.611              1.926              2.995
 Vibration     6          0.628              1.870              2.357
 Vibration     7          0.655              1.786              1.835
 Vibration     8          0.656              1.783              1.819
 Vibration     9          0.676              1.722              1.574
 Vibration    10          0.696              1.664              1.389
 Vibration    11          0.719              1.597              1.215
 Vibration    12          0.725              1.580              1.176
 Vibration    13          0.793              1.400              0.851
 Vibration    14          0.801              1.381              0.823
 Vibration    15          0.827              1.316              0.737
 Vibration    16          0.840              1.286              0.699
 Vibration    17          0.851              1.260              0.670
 Vibration    18          0.877              1.200              0.604
 Vibration    19          0.895              1.162              0.566
 Vibration    20          0.911              1.127              0.533
 Vibration    21          0.941              1.065              0.477
 Vibration    22          0.954              1.041              0.457
 Vibration    23          0.962              1.023              0.443

                           ! Non-Optimized Parameters !
 Normal termination of Gaussian 16 at Fri Dec 11 18:51:19 2020.

 ----------------------------------------------------------------------
 # B3LYP/6-311++G(d,p) empiricaldispersion=gd3bj scf=xqc pop=npa geom=c
 heck
 ----------------------------------------------------------------------

 --------------------------------------
 CID_10421805_JID_8000_Energie_neutraal
 --------------------------------------
 Structure from the checkpoint file:  "JID_8000.chk"
 Charge =  0 Multiplicity = 1

 SCF Done:  E(RB3LYP) =  -813.124405702     A.U. after   16 cycles
 Normal termination of Gaussian 16 at Fri Dec 11 18:55:50 2020.

 ----------------------------------------------------------------------
 # B3LYP/6-311++G(d,p) empiricaldispersion=gd3bj scf=xqc pop=npa geom=c
 heck
 ----------------------------------------------------------------------

 ------------------------------------
 CID_10421805_JID_8000_Energie_kation
 ------------------------------------
 Structure from the checkpoint file:  "JID_8000.chk"
 Charge =  1 Multiplicity = 2

 SCF Done:  E(UB3LYP) =  -812.834771304     A.U. after   25 cycles
 Normal termination of Gaussian 16 at Fri Dec 11 19:05:27 2020.
 Gaussian 16:  ES64L-G16RevA.03 25-Dec-2016

 ----------------------------------------------------------------------
 # B3LYP/6-311++G(d,p) empiricaldispersion=gd3bj scf=xqc pop=npa geom=c
 heck
 ----------------------------------------------------------------------

 -----------------------------------
 CID_10421805_JID_8000_Energie_anion
 -----------------------------------
 Structure from the checkpoint file:  "JID_8000.chk"
 Charge = -1 Multiplicity = 2

                         Standard orientation:
 ---------------------------------------------------------------------
 Center     Atomic      Atomic             Coordinates (Angstroms)
 Number     Number       Type             X           Y           Z
 ---------------------------------------------------------------------
      1          6           0       -2.534059    2.337526   -0.141988
      2          6           0       -1.410339    2.263239   -0.999325
      3          6           0       -0.763795    1.064977   -1.263993
      4          6           0       -1.284027   -0.071851   -0.633179
      5          6           0       -2.393122   -0.009375    0.231661
      6          6           0       -3.039551    1.209393    0.483676
      7          7           0       -2.643258   -1.278650    0.722048
      8          7           0       -1.778439   -2.093058    0.223911
      9          7           0       -0.945817   -1.401955   -0.626657
     10          6           0        0.222458   -2.057530   -1.150674
     11          8           0        1.331839   -2.020701   -0.263014
     12          6           0        1.852975   -0.749494   -0.049490
     13          6           0        1.482721   -0.052979    1.126367
     14          7           0        1.968397    1.165156    1.401648
     15          6           0        2.807078    1.724528    0.521248
     16          6           0        3.228874    1.115861   -0.657334
     17          6           0        2.737484   -0.165137   -0.936546
     18          7           0        0.577518   -0.595421    1.996241
     19          1           0       -2.999648    3.302924    0.030663
     20          1           0       -1.037435    3.174749   -1.456773
     21          1           0        0.114974    1.022778   -1.897338
     22          1           0       -3.894558    1.252949    1.149807
     23          1           0       -0.019429   -3.110523   -1.288395
     24          1           0        0.477243   -1.587920   -2.106542
     25          1           0        3.166441    2.717787    0.784189
     26          1           0        3.923644    1.612759   -1.325642
     27          1           0        3.036034   -0.710909   -1.827417
     28          1           0        0.502389   -0.151860    2.899566
     29          1           0        0.386646   -1.584573    1.939124
 ---------------------------------------------------------------------

 SCF Done:  E(UB3LYP) =  -813.127895426     A.U. after   33 cycles
 SCF Done:  E(UB3LYP) =  -813.127895426     a.u. after    1 cycles

 The electronic state is 2-A.
 Alpha  occ. eigenvalues --  -19.03867 -14.24311 -14.20929 -14.20653 -14.18299
 Alpha  occ. eigenvalues --  -14.17994 -10.15188 -10.12979 -10.11183 -10.08937
 Alpha  occ. eigenvalues --  -10.07514 -10.06955 -10.06105 -10.05103 -10.03840
 Alpha  occ. eigenvalues --  -10.03536 -10.03267 -10.02981  -0.96510  -0.93616
 Alpha  occ. eigenvalues --   -0.84817  -0.77769  -0.77507  -0.72098  -0.68719
 Alpha  occ. eigenvalues --   -0.63959  -0.62825  -0.61416  -0.58744  -0.52484
 Alpha  occ. eigenvalues --   -0.51342  -0.50626  -0.48046  -0.46085  -0.43147
 Alpha  occ. eigenvalues --   -0.41854  -0.41046  -0.39102  -0.38893  -0.36394
 Alpha  occ. eigenvalues --   -0.35075  -0.34943  -0.32673  -0.32018  -0.30811
 Alpha  occ. eigenvalues --   -0.30458  -0.30030  -0.29603  -0.28064  -0.25953
 Alpha  occ. eigenvalues --   -0.23796  -0.23031  -0.21913  -0.21091  -0.19910
 Alpha  occ. eigenvalues --   -0.18941  -0.17948  -0.16637  -0.14707  -0.12550
 Alpha  occ. eigenvalues --   -0.11521  -0.10836  -0.09770   0.04845
 Alpha virt. eigenvalues --    0.07312   0.07839   0.08604   0.09225   0.09817
 Alpha virt. eigenvalues --    0.10421   0.10690   0.11379   0.11399   0.11570
 Alpha virt. eigenvalues --    0.12988   0.13454   0.13966   0.14651   0.15129

  Beta  occ. eigenvalues --  -19.03869 -14.24221 -14.20656 -14.20330 -14.18169
  Beta  occ. eigenvalues --  -14.17838 -10.15163 -10.12984 -10.11157 -10.08895
  Beta  occ. eigenvalues --  -10.07557 -10.06830 -10.06119 -10.05111 -10.03912
  Beta  occ. eigenvalues --  -10.03400 -10.03084 -10.02713  -0.96389  -0.93176
  Beta  occ. eigenvalues --   -0.84708  -0.77696  -0.77188  -0.71819  -0.68532
  Beta  occ. eigenvalues --   -0.63845  -0.62461  -0.61082  -0.58534  -0.52277
  Beta  occ. eigenvalues --   -0.51243  -0.50222  -0.47815  -0.45960  -0.43048
  Beta  occ. eigenvalues --   -0.41772  -0.40924  -0.38927  -0.38687  -0.36230
  Beta  occ. eigenvalues --   -0.35000  -0.34900  -0.32491  -0.31604  -0.30612
  Beta  occ. eigenvalues --   -0.30088  -0.29708  -0.29395  -0.27970  -0.25877
  Beta  occ. eigenvalues --   -0.23676  -0.22881  -0.20948  -0.20765  -0.19814
  Beta  occ. eigenvalues --   -0.18471  -0.17066  -0.16039  -0.14565  -0.12095
  Beta  occ. eigenvalues --   -0.10432  -0.10092  -0.08955
  Beta virt. eigenvalues --    0.07380   0.08599   0.08733   0.09175   0.09795
  Beta virt. eigenvalues --    0.10136   0.10703   0.10955   0.11379   0.11524
  Beta virt. eigenvalues --    0.11643   0.12945   0.13788   0.14031   0.14675

 Mulliken charges and spin densities:
               1          2
     1  C   -0.268268  -0.082001
     2  C   -0.380436   0.149671
     3  C   -0.032556   0.126743
     4  C    0.404712  -0.174452
     5  C   -0.181060  -0.062642
     6  C   -0.341953   0.266183
     7  N   -0.090427   0.048390
     8  N   -0.360107   0.277488
     9  N    0.228647   0.052747
    10  C   -0.038750  -0.191387
    11  O   -0.149350  -0.002092
    12  C   -0.384646   0.211328
    13  C   -0.311968  -0.030106
    14  N   -0.096427   0.055615
    15  C   -0.348685   0.030585
    16  C    0.124333  -0.240612
    17  C    0.333541  -0.056844
    18  N   -0.279268  -0.003729
    19  H    0.114097   0.002496
    20  H    0.129843  -0.006877
    21  H    0.023462   0.091380
    22  H    0.134048  -0.013705
    23  H    0.096028   0.074543
    24  H   -0.043269   0.198855
    25  H    0.123174   0.014962
    26  H    0.067999   0.074659
    27  H   -0.004684   0.177430
    28  H    0.273019  -0.000317
    29  H    0.258951   0.011688
 Sum of Mulliken charges =  -1.00000   1.00000

 Dipole moment (field-independent basis, Debye):
    X=              3.8622    Y=              0.7917    Z=             -0.3956  Tot=              3.9623
 Quadrupole moment (field-independent basis, Debye-Ang):
   XX=           -144.8215   YY=           -127.7322   ZZ=           -117.6404
   XY=             -6.1966   XZ=             -0.3489   YZ=              0.9543

 Summary of Natural Population Analysis:

                                       Natural Population
                Natural  -----------------------------------------------
    Atom  No    Charge         Core      Valence    Rydberg      Total
 -----------------------------------------------------------------------
      C    1   -0.13368      0.99959     2.12514    0.00895     3.13368
      C    2   -0.06746      0.99959     2.05951    0.00836     3.06746
      C    3   -0.10575      0.99953     2.09542    0.01079     3.10575
      C    4    0.05973      0.99945     1.92788    0.01294     2.94027
      C    5    0.03477      0.99946     1.95237    0.01341     2.96523
      C    6   -0.05118      0.99953     2.04322    0.00844     3.05118
      N    7   -0.12503      0.99973     2.61086    0.01445     3.62503
      N    8    0.04110      0.99978     2.44018    0.01895     3.45890
      N    9   -0.13744      0.99961     2.62493    0.01290     3.63744
      C   10    0.08296      0.99957     1.89999    0.01747     2.91704
      O   11   -0.29506      0.99987     3.28695    0.00825     4.29506
      C   12    0.10957      0.99931     1.87663    0.01450     2.89043
      C   13    0.18194      0.99950     1.79970    0.01886     2.81806
      N   14   -0.24363      0.99967     2.73179    0.01217     3.74363
      C   15    0.03545      0.99960     1.95139    0.01357     2.96455
      C   16   -0.15469      0.99957     2.14426    0.01086     3.15469
      C   17   -0.08216      0.99951     2.07218    0.01046     3.08216
      N   18   -0.38590      0.99970     2.87831    0.00789     3.88590
      H   19    0.09123      0.00000     0.40779    0.00098     0.40877
      H   20    0.09027      0.00000     0.40889    0.00085     0.40973
      H   21    0.10036      0.00000     0.39769    0.00195     0.39964
      H   22    0.09396      0.00000     0.40463    0.00141     0.40604
      H   23    0.09766      0.00000     0.40097    0.00137     0.40234
      H   24    0.08625      0.00000     0.41188    0.00188     0.41375
      H   25    0.08468      0.00000     0.41423    0.00108     0.41532
      H   26    0.09888      0.00000     0.40025    0.00087     0.40112
      H   27    0.10162      0.00000     0.39721    0.00117     0.39838
      H   28    0.19201      0.00000     0.30673    0.00127     0.30799
      H   29    0.19957      0.00000     0.29886    0.00157     0.30043
 =======================================================================
   * Total *   -0.00000     17.99256    44.76982    0.23762    63.00000

 Normal termination of Gaussian 16 at Fri Dec 11 19:18:13 2020.
