 Gaussian 16, Revision A.03,

 -----------------------------------------------------------
 # opt freq B3LYP/6-31G(d) empiricaldispersion=gd3bj scf=xqc
 -----------------------------------------------------------

 -----------------------------
 CID_91992498_JID_674_neutraal
 -----------------------------
 Symbolic Z-matrix:
 Charge =  0 Multiplicity = 1

 SCF Done:  E(RB3LYP) =  -819.948532751     A.U. after   16 cycles
 SCF Done:  E(RB3LYP) =  -819.983335995     A.U. after   15 cycles
 SCF Done:  E(RB3LYP) =  -819.998362155     A.U. after   15 cycles
 SCF Done:  E(RB3LYP) =  -820.001401445     A.U. after   14 cycles
 SCF Done:  E(RB3LYP) =  -820.007648098     A.U. after   15 cycles
 SCF Done:  E(RB3LYP) =  -820.013938192     A.U. after   17 cycles
 SCF Done:  E(RB3LYP) =  -820.018201547     A.U. after   15 cycles
 SCF Done:  E(RB3LYP) =  -820.028168657     A.U. after   15 cycles
 SCF Done:  E(RB3LYP) =  -820.031245458     A.U. after   15 cycles
 SCF Done:  E(RB3LYP) =  -820.031973433     A.U. after   14 cycles
 SCF Done:  E(RB3LYP) =  -820.033780085     A.U. after   11 cycles
 SCF Done:  E(RB3LYP) =  -820.033796145     A.U. after   10 cycles
 SCF Done:  E(RB3LYP) =  -820.033801473     A.U. after   10 cycles
 SCF Done:  E(RB3LYP) =  -820.033802633     A.U. after    9 cycles
 Optimization completed.
    -- Stationary point found.
 Normal termination of Gaussian 16 at Tue Dec  8 12:40:29 2020.

 --------------------------------------------------------------------
 #N Geom=AllCheck Guess=TCheck SCRF=Check GenChk RB3LYP/6-31G(d) Freq
 --------------------------------------------------------------------

 Structure from the checkpoint file:  "JID_674.chk"
 -----------------------------
 CID_91992498_JID_674_neutraal
 -----------------------------
 Charge =  0 Multiplicity = 1

 SCF Done:  E(RB3LYP) =  -820.033802633     A.U. after    1 cycles

  Exact polarizability: 139.647  -0.311  90.397  -1.258   4.807  56.476
 Approx polarizability: 216.191  -1.733 161.520   1.088   7.173  87.702

                      1                      2                      3
                      A                      A                      A
 Frequencies --     44.5487                99.6619               134.1271
 Red. masses --      4.0956                 4.6581                 5.0230
 Frc consts  --      0.0048                 0.0273                 0.0532
 IR Inten    --      2.2481                 2.4034                 1.9499

                      4                      5                      6
                      A                      A                      A
 Frequencies --    194.4034               237.9137               263.7623
 Red. masses --      1.2088                 5.8131                 7.4704
 Frc consts  --      0.0269                 0.1939                 0.3062
 IR Inten    --      0.8398                34.9624                 7.8100

                      7                      8                      9
                      A                      A                      A
 Frequencies --    288.8136               335.6928               358.0599
 Red. masses --      3.9289                 4.6389                 6.2475
 Frc consts  --      0.1931                 0.3080                 0.4719
 IR Inten    --      4.1772                76.7272                83.1347

                     10                     11                     12
                      A                      A                      A
 Frequencies --    410.1548               423.0214               501.0675
 Red. masses --      2.9840                 6.3036                 3.6394
 Frc consts  --      0.2958                 0.6646                 0.5384
 IR Inten    --      0.7033                35.2446                 9.1311

                     13                     14                     15
                      A                      A                      A
 Frequencies --    630.4278               692.1183               696.4545
 Red. masses --      6.4279                 5.9193                 5.9616
 Frc consts  --      1.5052                 1.6706                 1.7037
 IR Inten    --      0.0692                 6.9188                11.5825

                     16                     17                     18
                      A                      A                      A
 Frequencies --    708.9141               759.6838               827.5330
 Red. masses --      2.2877                 1.5444                15.2435
 Frc consts  --      0.6774                 0.5251                 6.1504
 IR Inten    --     20.0841                32.2263                10.6087

                     19                     20                     21
                      A                      A                      A
 Frequencies --    862.5284               918.2496               929.9811
 Red. masses --      1.2457                 4.3337                 1.3337
 Frc consts  --      0.5460                 2.1529                 0.6796
 IR Inten    --      0.0954                38.0438                 0.1649

                     22                     23                     24
                      A                      A                      A
 Frequencies --    975.0158               997.8458              1005.2568
 Red. masses --      1.3605                 1.5259                 1.2719
 Frc consts  --      0.7620                 0.8951                 0.7573
 IR Inten    --      0.0404                11.0839                 0.2253

                     25                     26                     27
                      A                      A                      A
 Frequencies --   1008.2405              1020.7291              1051.5176
 Red. masses --      1.4141                 5.1108                 3.0940
 Frc consts  --      0.8469                 3.1373                 2.0156
 IR Inten    --     38.8761                 0.7524                 0.4799

                     28                     29                     30
                      A                      A                      A
 Frequencies --   1104.2921              1111.2442              1196.5350
 Red. masses --      2.6163                 1.5997                 1.1056
 Frc consts  --      1.8798                 1.1639                 0.9326
 IR Inten    --     36.5144                 3.0653                 0.0092

                     31                     32                     33
                      A                      A                      A
 Frequencies --   1212.3357              1342.9733              1363.6837
 Red. masses --      1.1455                 2.0657                 2.1958
 Frc consts  --      0.9920                 2.1950                 2.4059
 IR Inten    --      1.0167                 1.6440                 0.7842

                     34                     35                     36
                      A                      A                      A
 Frequencies --   1369.0849              1476.7549              1486.7616
 Red. masses --      1.2416                 1.0693                 1.0545
 Frc consts  --      1.3712                 1.3739                 1.3734
 IR Inten    --      4.3695                 6.1594                 8.1925

                     37                     38                     39
                      A                      A                      A
 Frequencies --   1490.8215              1529.5028              1643.1844
 Red. masses --      2.0702                 2.0371                 5.5361
 Frc consts  --      2.7108                 2.8078                 8.8070
 IR Inten    --     10.5005                 1.7134                 0.9872

                     40                     41                     42
                      A                      A                      A
 Frequencies --   1647.4759              3082.3885              3176.7238
 Red. masses --      5.3731                 1.0300                 1.1061
 Frc consts  --      8.5924                 5.7659                 6.5764
 IR Inten    --      0.1377                 4.1105                 2.6687

                     43                     44                     45
                      A                      A                      A
 Frequencies --   3179.0027              3190.7553              3200.5641
 Red. masses --      1.0876                 1.0867                 1.0906
 Frc consts  --      6.4759                 6.5185                 6.5820
 IR Inten    --      2.4118                 0.0590                13.8754

                     46                     47                     48
                      A                      A                      A
 Frequencies --   3210.4305              3212.9541              3216.7005
 Red. masses --      1.0936                 1.1062                 1.0974
 Frc consts  --      6.6411                 6.7283                 6.6904
 IR Inten    --     17.2969                 1.5451                18.4551

 - Thermochemistry -
 -------------------
 Temperature   298.150 Kelvin.  Pressure   1.00000 Atm.
 Atom     1 has atomic number  6 and mass  12.00000

 Molecular mass:   156.02450 amu.
 Principal axes and moments of inertia in atomic units:
                           1         2         3
     Eigenvalues --   616.335392587.591562753.24756
           X            0.99986   0.00350  -0.01646
           Y           -0.00287   0.99926   0.03828
           Z            0.01658  -0.03823   0.99913
 This molecule is an asymmetric top.
 Rotational symmetry number  1.
 Warning -- assumption of classical behavior for rotation
           may cause significant error
 Rotational temperatures (Kelvin)      0.14053     0.03347     0.03146
 Rotational constants (GHZ):           2.92818     0.69746     0.65550
 Zero-point vibrational energy     357802.4 (Joules/Mol)
                                   85.51683 (Kcal/Mol)
 Warning -- explicit consideration of  12 degrees of freedom as
           vibrations may cause significant error
 Vibrational temperatures:     64.10   143.39   192.98   279.70   342.30
          (Kelvin)            379.50   415.54   482.99   515.17   590.12
                              608.63   720.92   907.05   995.80  1002.04
                             1019.97  1093.02  1190.64  1240.99  1321.16
                             1338.04  1402.83  1435.68  1446.34  1450.63
                             1468.60  1512.90  1588.83  1598.83  1721.55
                             1744.28  1932.24  1962.04  1969.81  2124.72
                             2139.12  2144.96  2200.61  2364.18  2370.35
                             4434.87  4570.60  4573.88  4590.79  4604.90
                             4619.09  4622.72  4628.11

 Zero-point correction=                           0.136280 (Hartree/Particle)
 Thermal correction to Energy=                    0.146033
 Thermal correction to Enthalpy=                  0.146977
 Thermal correction to Gibbs Free Energy=         0.100755
 Sum of electronic and zero-point Energies=           -819.897523
 Sum of electronic and thermal Energies=              -819.887770
 Sum of electronic and thermal Enthalpies=            -819.886825
 Sum of electronic and thermal Free Energies=         -819.933048

                     E (Thermal)             CV                S
                      KCal/Mol        Cal/Mol-Kelvin    Cal/Mol-Kelvin
 Total                   91.637             36.344             97.283
 Electronic               0.000              0.000              0.000
 Translational            0.889              2.981             41.044
 Rotational               0.889              2.981             29.864
 Vibrational             89.860             30.382             26.376
 Vibration     1          0.595              1.980              5.046
 Vibration     2          0.604              1.949              3.461
 Vibration     3          0.613              1.919              2.886
 Vibration     4          0.635              1.848              2.185
 Vibration     5          0.656              1.783              1.818
 Vibration     6          0.670              1.739              1.637
 Vibration     7          0.685              1.695              1.481
 Vibration     8          0.717              1.604              1.233
 Vibration     9          0.733              1.559              1.131
 Vibration    10          0.774              1.448              0.926
 Vibration    11          0.785              1.420              0.882
 Vibration    12          0.856              1.248              0.655

                           ! Non-Optimized Parameters !
 Normal termination of Gaussian 16 at Tue Dec  8 12:43:47 2020.

 ----------------------------------------------------------------------
 # B3LYP/6-311++G(d,p) empiricaldispersion=gd3bj scf=xqc pop=npa geom=c
 heck
 ----------------------------------------------------------------------

 -------------------------------------
 CID_91992498_JID_674_Energie_neutraal
 -------------------------------------
 Structure from the checkpoint file:  "JID_674.chk"
 Charge =  0 Multiplicity = 1

 SCF Done:  E(RB3LYP) =  -820.178898482     A.U. after   18 cycles
 Normal termination of Gaussian 16 at Tue Dec  8 12:49:38 2020.

 ----------------------------------------------------------------------
 # B3LYP/6-311++G(d,p) empiricaldispersion=gd3bj scf=xqc pop=npa geom=c
 heck
 ----------------------------------------------------------------------

 -----------------------------------
 CID_91992498_JID_674_Energie_kation
 -----------------------------------
 Structure from the checkpoint file:  "JID_674.chk"
 Charge =  1 Multiplicity = 2

 SCF Done:  E(UB3LYP) =  -819.854939975     A.U. after   33 cycles
 SCF Done:  E(UB3LYP) =  -819.855953838     a.u. after   13 cycles
 Normal termination of Gaussian 16 at Tue Dec  8 14:04:51 2020.
 Gaussian 16:  ES64L-G16RevA.03 25-Dec-2016

 ----------------------------------------------------------------------
 # B3LYP/6-311++G(d,p) empiricaldispersion=gd3bj scf=xqc pop=npa geom=c
 heck
 ----------------------------------------------------------------------

 ----------------------------------
 CID_91992498_JID_674_Energie_anion
 ----------------------------------
 Structure from the checkpoint file:  "JID_674.chk"
 Charge = -1 Multiplicity = 2

                         Standard orientation:
 ---------------------------------------------------------------------
 Center     Atomic      Atomic             Coordinates (Angstroms)
 Number     Number       Type             X           Y           Z
 ---------------------------------------------------------------------
      1          6           0       -1.671811   -0.309849    1.610384
      2         16           0       -1.369020   -0.506988   -0.174541
      3          8           0       -3.157303    0.231629   -0.480554
      4          8           0       -1.814099    0.857081   -0.891145
      5          6           0        0.442933   -0.162887   -0.091825
      6          6           0        1.308429   -1.234680   -0.310341
      7          6           0        2.688528   -1.032020   -0.248357
      8          6           0        3.192909    0.242258    0.013392
      9          6           0        2.321145    1.315965    0.214663
     10          6           0        0.942295    1.116501    0.166183
     11          1           0       -1.720860    0.762622    1.812902
     12          1           0       -0.840873   -0.764811    2.154726
     13          1           0       -2.625100   -0.778541    1.847525
     14          1           0        0.908442   -2.221362   -0.532941
     15          1           0        3.366664   -1.864022   -0.414626
     16          1           0        4.266501    0.401881    0.053896
     17          1           0        2.717148    2.308607    0.409260
     18          1           0        0.257050    1.946035    0.310907
 ---------------------------------------------------------------------

 SCF Done:  E(UB3LYP) =  -820.174320395     A.U. after   33 cycles
 SCF Done:  E(UB3LYP) =  -820.174320395     a.u. after    1 cycles

 The electronic state is 2-A.
 Alpha  occ. eigenvalues --  -88.83439 -19.04125 -18.97206 -10.07082 -10.05069
 Alpha  occ. eigenvalues --  -10.04971 -10.04917 -10.04390 -10.04095 -10.03546
 Alpha  occ. eigenvalues --   -7.90739  -5.87158  -5.86792  -5.86322  -0.97435
 Alpha  occ. eigenvalues --   -0.73419  -0.69528  -0.66641  -0.62104  -0.60982
 Alpha  occ. eigenvalues --   -0.52989  -0.48054  -0.46230  -0.39647  -0.35150
 Alpha  occ. eigenvalues --   -0.33824  -0.33187  -0.31784  -0.31478  -0.30417
 Alpha  occ. eigenvalues --   -0.29839  -0.26783  -0.25476  -0.24298  -0.22352
 Alpha  occ. eigenvalues --   -0.22016  -0.17456  -0.13480  -0.13359  -0.10707
 Alpha  occ. eigenvalues --   -0.09667   0.05400
 Alpha virt. eigenvalues --    0.07866   0.08726   0.08961   0.10250   0.10488
 Alpha virt. eigenvalues --    0.11078   0.12216   0.12564   0.12991   0.13599
 Alpha virt. eigenvalues --    0.14219   0.16240   0.16632   0.17521   0.17987

  Beta  occ. eigenvalues --  -88.83406 -19.03942 -18.97172 -10.06978 -10.04983
  Beta  occ. eigenvalues --  -10.04947 -10.04880 -10.04335 -10.03907 -10.03254
  Beta  occ. eigenvalues --   -7.90706  -5.87057  -5.86754  -5.86309  -0.97049
  Beta  occ. eigenvalues --   -0.73081  -0.69297  -0.66295  -0.61838  -0.60570
  Beta  occ. eigenvalues --   -0.52636  -0.47950  -0.45811  -0.39465  -0.34798
  Beta  occ. eigenvalues --   -0.33626  -0.32819  -0.31629  -0.31322  -0.30171
  Beta  occ. eigenvalues --   -0.29754  -0.26568  -0.25293  -0.23494  -0.22234
  Beta  occ. eigenvalues --   -0.21851  -0.17088  -0.12783  -0.12025  -0.10494
  Beta  occ. eigenvalues --   -0.09565
  Beta virt. eigenvalues --    0.07870   0.08960   0.09107   0.10269   0.10536
  Beta virt. eigenvalues --    0.10687   0.11435   0.12538   0.13047   0.13368
  Beta virt. eigenvalues --    0.13900   0.14442   0.16235   0.16663   0.17641

 Mulliken charges and spin densities:
               1          2
     1  C   -0.023664  -0.674278
     2  S    0.500842   0.264257
     3  O   -0.450880   0.017708
     4  O   -0.093170   0.007694
     5  C   -0.110206   0.169834
     6  C   -0.414247   0.170078
     7  C    0.059630  -0.324513
     8  C    0.178679  -0.272597
     9  C   -0.293049  -0.013290
    10  C   -0.134378   0.230092
    11  H    0.015149   0.180734
    12  H    0.029063   0.108552
    13  H   -0.205152   0.418744
    14  H   -0.087407   0.232466
    15  H   -0.071868   0.202686
    16  H   -0.077373   0.168053
    17  H   -0.020846   0.156292
    18  H    0.198876  -0.042514
 Sum of Mulliken charges =  -1.00000   1.00000

 Dipole moment (field-independent basis, Debye):
    X=              2.7867    Y=             -0.0629    Z=              0.6933  Tot=              2.8723
 Quadrupole moment (field-independent basis, Debye-Ang):
   XX=           -121.0759   YY=            -80.2507   ZZ=            -85.6670
   XY=              2.2729   XZ=             -1.5143   YZ=              1.7603

 Summary of Natural Population Analysis:

                                       Natural Population
                Natural  -----------------------------------------------
    Atom  No    Charge         Core      Valence    Rydberg      Total
 -----------------------------------------------------------------------
      C    1   -0.35256      0.99962     2.34520    0.00773     3.35256
      S    2    0.62465      4.99931     2.32478    0.05127     7.37535
      O    3   -0.28798      0.99998     3.28281    0.00518     4.28798
      O    4   -0.24456      0.99994     3.23791    0.00671     4.24456
      C    5   -0.09648      0.99938     2.08090    0.01620     3.09648
      C    6   -0.10323      0.99950     2.09103    0.01270     3.10323
      C    7   -0.10065      0.99957     2.09129    0.00979     3.10065
      C    8   -0.05377      0.99957     2.04357    0.01062     3.05377
      C    9   -0.11896      0.99957     2.10941    0.00997     3.11896
      C   10   -0.07370      0.99949     2.06482    0.00939     3.07370
      H   11    0.11337      0.00000     0.38516    0.00147     0.38663
      H   12    0.10538      0.00000     0.39334    0.00128     0.39462
      H   13    0.11186      0.00000     0.38606    0.00208     0.38814
      H   14    0.09743      0.00000     0.40094    0.00163     0.40257
      H   15    0.09375      0.00000     0.40539    0.00087     0.40625
      H   16    0.09099      0.00000     0.40817    0.00083     0.40901
      H   17    0.09430      0.00000     0.40486    0.00085     0.40570
      H   18    0.10015      0.00000     0.39837    0.00148     0.39985
 =======================================================================
   * Total *   -0.00000     13.99593    26.85401    0.15006    41.00000

 Normal termination of Gaussian 16 at Tue Dec  8 14:13:43 2020.
