 Gaussian 16, Revision A.03,

 -----------------------------------------------------------
 # opt freq B3LYP/6-31G(d) empiricaldispersion=gd3bj scf=xqc
 -----------------------------------------------------------

 ------------------------------
 CID_84014801_JID_4204_neutraal
 ------------------------------
 Symbolic Z-matrix:
 Charge =  0 Multiplicity = 1

 SCF Done:  E(RB3LYP) =  -651.925368448     A.U. after   14 cycles
 SCF Done:  E(RB3LYP) =  -651.930573027     A.U. after   12 cycles
 SCF Done:  E(RB3LYP) =  -651.930370897     A.U. after   11 cycles
 SCF Done:  E(RB3LYP) =  -651.931191895     A.U. after   11 cycles
 SCF Done:  E(RB3LYP) =  -651.931379779     A.U. after   11 cycles
 SCF Done:  E(RB3LYP) =  -651.931428541     A.U. after   10 cycles
 SCF Done:  E(RB3LYP) =  -651.931440231     A.U. after    9 cycles
 SCF Done:  E(RB3LYP) =  -651.931448003     A.U. after    9 cycles
 SCF Done:  E(RB3LYP) =  -651.931451367     A.U. after    9 cycles
 SCF Done:  E(RB3LYP) =  -651.931454037     A.U. after    8 cycles
 SCF Done:  E(RB3LYP) =  -651.931454982     A.U. after    7 cycles
 SCF Done:  E(RB3LYP) =  -651.931455505     A.U. after    7 cycles
 SCF Done:  E(RB3LYP) =  -651.931455908     A.U. after    7 cycles
 SCF Done:  E(RB3LYP) =  -651.931456094     A.U. after    7 cycles
 SCF Done:  E(RB3LYP) =  -651.931456211     A.U. after    6 cycles
 SCF Done:  E(RB3LYP) =  -651.931456246     A.U. after    6 cycles
 Optimization completed.
    -- Stationary point found.
 Normal termination of Gaussian 16 at Thu Dec 10 09:21:20 2020.

 --------------------------------------------------------------------
 #N Geom=AllCheck Guess=TCheck SCRF=Check GenChk RB3LYP/6-31G(d) Freq
 --------------------------------------------------------------------

 Structure from the checkpoint file:  "JID_4204.chk"
 ------------------------------
 CID_84014801_JID_4204_neutraal
 ------------------------------
 Charge =  0 Multiplicity = 1

 SCF Done:  E(RB3LYP) =  -651.931456246     A.U. after    1 cycles

  Exact polarizability: 152.903  -3.560 126.440  10.011  -1.559  92.228
 Approx polarizability: 198.002  -5.769 192.518  17.972  -2.491 137.739

                      1                      2                      3
                      A                      A                      A
 Frequencies --     40.6464                46.4463                94.5098
 Red. masses --      4.1706                 3.2856                 2.6664
 Frc consts  --      0.0041                 0.0042                 0.0140
 IR Inten    --      1.5778                 1.6071                 0.6799

                      4                      5                      6
                      A                      A                      A
 Frequencies --    112.8426               132.0424               151.2370
 Red. masses --      2.0271                 1.2082                 1.5151
 Frc consts  --      0.0152                 0.0124                 0.0204
 IR Inten    --      1.1152                 1.3055                 1.5638

                      7                      8                      9
                      A                      A                      A
 Frequencies --    172.3634               184.5150               198.1204
 Red. masses --      1.3290                 2.6299                 2.2175
 Frc consts  --      0.0233                 0.0528                 0.0513
 IR Inten    --      0.1574                 0.7039                 0.1530

                     10                     11                     12
                      A                      A                      A
 Frequencies --    225.0143               241.6660               261.6442
 Red. masses --      2.5965                 1.0953                 2.6722
 Frc consts  --      0.0775                 0.0377                 0.1078
 IR Inten    --      5.5225                 1.7038                 0.3757

                     13                     14                     15
                      A                      A                      A
 Frequencies --    272.9984               283.6360               290.8749
 Red. masses --      3.2575                 1.1806                 2.5338
 Frc consts  --      0.1430                 0.0560                 0.1263
 IR Inten    --      1.5532                85.5820                11.3993

                     16                     17                     18
                      A                      A                      A
 Frequencies --    304.1326               329.4851               334.8371
 Red. masses --      2.6815                 1.1676                 3.5364
 Frc consts  --      0.1461                 0.0747                 0.2336
 IR Inten    --      5.3521                 1.8930                 1.3080

                     19                     20                     21
                      A                      A                      A
 Frequencies --    361.8607               364.1204               402.8018
 Red. masses --      2.9349                 3.0003                 2.0063
 Frc consts  --      0.2264                 0.2344                 0.1918
 IR Inten    --      3.0182                 5.3791                 2.5146

                     22                     23                     24
                      A                      A                      A
 Frequencies --    454.3601               513.9738               572.7891
 Red. masses --      3.1283                 2.7025                 4.4216
 Frc consts  --      0.3805                 0.4206                 0.8547
 IR Inten    --     11.8565                18.9296                 8.6968

                     25                     26                     27
                      A                      A                      A
 Frequencies --    606.1072               630.5144               644.0082
 Red. masses --      5.2683                 4.8767                 3.4266
 Frc consts  --      1.1403                 1.1423                 0.8373
 IR Inten    --      3.8803                 8.2043                 2.9183

                     28                     29                     30
                      A                      A                      A
 Frequencies --    689.6652               739.2255               772.4411
 Red. masses --      4.6369                 9.2386                 4.1557
 Frc consts  --      1.2994                 2.9745                 1.4609
 IR Inten    --      2.7747                12.0705                11.9765

                     31                     32                     33
                      A                      A                      A
 Frequencies --    872.6769               899.4123               925.5809
 Red. masses --      2.3935                 2.4032                 2.0417
 Frc consts  --      1.0740                 1.1454                 1.0305
 IR Inten    --      3.8377                 1.6149                 9.9612

                     34                     35                     36
                      A                      A                      A
 Frequencies --    938.3423               962.0838              1001.7928
 Red. masses --      1.6085                 2.3353                 1.6239
 Frc consts  --      0.8345                 1.2735                 0.9602
 IR Inten    --      1.1756                19.3543                 4.7230

                     37                     38                     39
                      A                      A                      A
 Frequencies --   1029.8776              1055.6097              1073.9640
 Red. masses --      1.3661                 1.9227                 1.3762
 Frc consts  --      0.8537                 1.2623                 0.9352
 IR Inten    --      1.3954                 9.1620                 2.0679

                     40                     41                     42
                      A                      A                      A
 Frequencies --   1083.6132              1104.6462              1121.3800
 Red. masses --      1.4543                 2.7708                 1.9351
 Frc consts  --      1.0062                 1.9921                 1.4337
 IR Inten    --      0.1135                 7.0211                 1.8340

                     43                     44                     45
                      A                      A                      A
 Frequencies --   1165.5621              1166.9003              1182.2990
 Red. masses --      1.5158                 1.2912                 2.1862
 Frc consts  --      1.2133                 1.0359                 1.8005
 IR Inten    --     63.3358                 2.6799                12.1335

                     46                     47                     48
                      A                      A                      A
 Frequencies --   1223.8392              1244.6742              1299.7573
 Red. masses --      3.0044                 2.9136                 3.1996
 Frc consts  --      2.6513                 2.6595                 3.1847
 IR Inten    --     32.4634                16.2703                 3.7577

                     49                     50                     51
                      A                      A                      A
 Frequencies --   1361.3681              1381.2437              1399.5485
 Red. masses --      2.0943                 1.7854                 2.8207
 Frc consts  --      2.2869                 2.0069                 3.2553
 IR Inten    --      2.7629                54.5829                19.6198

                     52                     53                     54
                      A                      A                      A
 Frequencies --   1416.7349              1422.1821              1428.1377
 Red. masses --      1.7343                 1.4132                 1.7473
 Frc consts  --      2.0510                 1.6841                 2.0997
 IR Inten    --     15.9741                 6.1785                47.1662

                     55                     56                     57
                      A                      A                      A
 Frequencies --   1438.1351              1447.7765              1451.7633
 Red. masses --      2.1762                 1.3282                 1.5836
 Frc consts  --      2.6518                 1.6403                 1.9665
 IR Inten    --    200.0228                 6.3518                32.4856

                     58                     59                     60
                      A                      A                      A
 Frequencies --   1464.5466              1481.0781              1488.0106
 Red. masses --      1.3672                 1.4657                 1.1406
 Frc consts  --      1.7278                 1.8943                 1.4880
 IR Inten    --      8.1300                70.3502                27.8828

                     61                     62                     63
                      A                      A                      A
 Frequencies --   1504.3742              1506.7569              1517.3157
 Red. masses --      1.0448                 1.0461                 1.0524
 Frc consts  --      1.3931                 1.3993                 1.4276
 IR Inten    --      1.5592                 8.0822                 2.8848

                     64                     65                     66
                      A                      A                      A
 Frequencies --   1518.1933              1526.2056              1528.2882
 Red. masses --      1.0567                 1.1078                 1.0504
 Frc consts  --      1.4350                 1.5203                 1.4454
 IR Inten    --      0.3421                13.3298                12.9656

                     67                     68                     69
                      A                      A                      A
 Frequencies --   1529.2704              1535.5991              1541.8157
 Red. masses --      1.0698                 1.0676                 1.0698
 Frc consts  --      1.4740                 1.4832                 1.4983
 IR Inten    --      7.4618                16.1903                 4.3314

                     70                     71                     72
                      A                      A                      A
 Frequencies --   1544.9012              1726.9938              1817.8222
 Red. masses --      1.0733                 7.2370                11.1441
 Frc consts  --      1.5093                12.7172                21.6969
 IR Inten    --     17.7535                 7.3775               433.0299

                     73                     74                     75
                      A                      A                      A
 Frequencies --   3031.6226              3038.9420              3041.6160
 Red. masses --      1.0404                 1.0462                 1.0385
 Frc consts  --      5.6339                 5.6926                 5.6605
 IR Inten    --     34.0139                47.3525                11.5644

                     76                     77                     78
                      A                      A                      A
 Frequencies --   3044.6953              3047.2315              3073.5642
 Red. masses --      1.0365                 1.0380                 1.1012
 Frc consts  --      5.6614                 5.6790                 6.1292
 IR Inten    --     89.4483                21.0003                15.9966

                     79                     80                     81
                      A                      A                      A
 Frequencies --   3079.1286              3095.8959              3096.3164
 Red. masses --      1.0599                 1.0947                 1.1042
 Frc consts  --      5.9204                 6.1821                 6.2371
 IR Inten    --     32.4538                10.6851                53.4612

                     82                     83                     84
                      A                      A                      A
 Frequencies --   3103.3090              3110.4354              3129.3934
 Red. masses --      1.0973                 1.0987                 1.1032
 Frc consts  --      6.2262                 6.2630                 6.3654
 IR Inten    --      7.5806                60.7092                10.1392

                     85                     86                     87
                      A                      A                      A
 Frequencies --   3136.2563              3137.8062              3143.1604
 Red. masses --      1.1019                 1.1001                 1.1017
 Frc consts  --      6.3859                 6.3818                 6.4129
 IR Inten    --     14.6989                22.0706                21.6796

                     88                     89                     90
                      A                      A                      A
 Frequencies --   3144.1141              3165.6181              3732.2464
 Red. masses --      1.0959                 1.0990                 1.0660
 Frc consts  --      6.3829                 6.4886                 8.7487
 IR Inten    --     16.3229                 0.5937                 5.7267

 - Thermochemistry -
 -------------------
 Temperature   298.150 Kelvin.  Pressure   1.00000 Atm.
 Atom     1 has atomic number  6 and mass  12.00000

 Molecular mass:   198.13683 amu.
 Principal axes and moments of inertia in atomic units:
                           1         2         3
     Eigenvalues --  1607.754153602.121214582.41493
           X            0.99995  -0.00652   0.00732
           Y            0.00656   0.99996  -0.00608
           Z           -0.00728   0.00613   0.99995
 This molecule is an asymmetric top.
 Rotational symmetry number  1.
 Warning -- assumption of classical behavior for rotation
           may cause significant error
 Rotational temperatures (Kelvin)      0.05387     0.02405     0.01890
 Rotational constants (GHZ):           1.12252     0.50102     0.39384
 Zero-point vibrational energy     730381.8 (Joules/Mol)
                                  174.56544 (Kcal/Mol)
 Warning -- explicit consideration of  25 degrees of freedom as
           vibrations may cause significant error
 Vibrational temperatures:     58.48    66.83   135.98   162.36   189.98
          (Kelvin)            217.60   247.99   265.48   285.05   323.75
                              347.70   376.45   392.78   408.09   418.50
                              437.58   474.06   481.76   520.64   523.89
                              579.54   653.72   739.49   824.12   872.05
                              907.17   926.58   992.27  1063.58  1111.37
                             1255.59  1294.05  1331.70  1350.07  1384.22
                             1441.36  1481.76  1518.79  1545.19  1559.08
                             1589.34  1613.42  1676.98  1678.91  1701.06
                             1760.83  1790.81  1870.06  1958.71  1987.30
                             2013.64  2038.37  2046.20  2054.77  2069.16
                             2083.03  2088.76  2107.16  2130.94  2140.92
                             2164.46  2167.89  2183.08  2184.34  2195.87
                             2198.87  2200.28  2209.38  2218.33  2222.77
                             2484.76  2615.44  4361.83  4372.36  4376.21
                             4380.64  4384.29  4422.17  4430.18  4454.30
                             4454.91  4464.97  4475.22  4502.50  4512.37
                             4514.60  4522.31  4523.68  4554.62  5369.87

 Zero-point correction=                           0.278188 (Hartree/Particle)
 Thermal correction to Energy=                    0.294307
 Thermal correction to Enthalpy=                  0.295251
 Thermal correction to Gibbs Free Energy=         0.235663
 Sum of electronic and zero-point Energies=           -651.653269
 Sum of electronic and thermal Energies=              -651.637150
 Sum of electronic and thermal Enthalpies=            -651.636205
 Sum of electronic and thermal Free Energies=         -651.695794

                     E (Thermal)             CV                S
                      KCal/Mol        Cal/Mol-Kelvin    Cal/Mol-Kelvin
 Total                  184.680             59.629            125.414
 Electronic               0.000              0.000              0.000
 Translational            0.889              2.981             41.756
 Rotational               0.889              2.981             31.651
 Vibrational            182.903             53.667             52.007
 Vibration     1          0.594              1.981              5.227
 Vibration     2          0.595              1.979              4.963
 Vibration     3          0.603              1.953              3.564
 Vibration     4          0.607              1.939              3.219
 Vibration     5          0.612              1.921              2.916
 Vibration     6          0.619              1.901              2.657
 Vibration     7          0.626              1.876              2.410
 Vibration     8          0.631              1.861              2.282
 Vibration     9          0.637              1.843              2.150
 Vibration    10          0.650              1.803              1.918
 Vibration    11          0.658              1.777              1.791
 Vibration    12          0.669              1.743              1.651
 Vibration    13          0.676              1.723              1.577
 Vibration    14          0.682              1.704              1.512
 Vibration    15          0.687              1.691              1.469
 Vibration    16          0.695              1.666              1.394
 Vibration    17          0.712              1.617              1.263
 Vibration    18          0.716              1.606              1.237
 Vibration    19          0.736              1.551              1.114
 Vibration    20          0.738              1.546              1.104
 Vibration    21          0.768              1.464              0.952
 Vibration    22          0.813              1.351              0.783
 Vibration    23          0.869              1.219              0.624
 Vibration    24          0.929              1.090              0.499
 Vibration    25          0.965              1.019              0.439

                           ! Non-Optimized Parameters !
 Normal termination of Gaussian 16 at Thu Dec 10 09:30:27 2020.

 ----------------------------------------------------------------------
 # B3LYP/6-311++G(d,p) empiricaldispersion=gd3bj scf=xqc pop=npa geom=c
 heck
 ----------------------------------------------------------------------

 --------------------------------------
 CID_84014801_JID_4204_Energie_neutraal
 --------------------------------------
 Structure from the checkpoint file:  "JID_4204.chk"
 Charge =  0 Multiplicity = 1

 SCF Done:  E(RB3LYP) =  -652.123830897     A.U. after   14 cycles
 Normal termination of Gaussian 16 at Thu Dec 10 09:33:55 2020.

 ----------------------------------------------------------------------
 # B3LYP/6-311++G(d,p) empiricaldispersion=gd3bj scf=xqc pop=npa geom=c
 heck
 ----------------------------------------------------------------------

 ------------------------------------
 CID_84014801_JID_4204_Energie_kation
 ------------------------------------
 Structure from the checkpoint file:  "JID_4204.chk"
 Charge =  1 Multiplicity = 2

 SCF Done:  E(UB3LYP) =  -651.872084724     A.U. after   19 cycles
 Normal termination of Gaussian 16 at Thu Dec 10 09:40:05 2020.
 Gaussian 16:  ES64L-G16RevA.03 25-Dec-2016

 ----------------------------------------------------------------------
 # B3LYP/6-311++G(d,p) empiricaldispersion=gd3bj scf=xqc pop=npa geom=c
 heck
 ----------------------------------------------------------------------

 -----------------------------------
 CID_84014801_JID_4204_Energie_anion
 -----------------------------------
 Structure from the checkpoint file:  "JID_4204.chk"
 Charge = -1 Multiplicity = 2

                         Standard orientation:
 ---------------------------------------------------------------------
 Center     Atomic      Atomic             Coordinates (Angstroms)
 Number     Number       Type             X           Y           Z
 ---------------------------------------------------------------------
      1          6           0        3.296661    1.383128    0.465480
      2          6           0        2.046134    0.666387    0.088388
      3          6           0        0.832299    1.135470   -0.300377
      4          7           0        0.015578    0.016038   -0.558389
      5          6           0        0.736157   -1.161725   -0.372992
      6          8           0        0.371589   -2.313281   -0.577488
      7          7           0        1.984731   -0.734126    0.063881
      8          6           0        3.048277   -1.662885    0.366712
      9          6           0       -1.376636   -0.008580   -0.949091
     10          6           0       -2.392447   -0.048218    0.214333
     11          6           0       -2.251871    1.144336    1.165058
     12          6           0       -3.805669   -0.107996   -0.381713
     13          8           0       -2.107972   -1.256382    0.921010
     14          6           0        0.394699    2.535845   -0.565629
     15          1           0        4.131668    1.129568   -0.201192
     16          1           0        3.614052    1.138385    1.487809
     17          1           0        3.149651    2.464883    0.416739
     18          1           0        2.640195   -2.664775    0.221219
     19          1           0        3.906384   -1.523867   -0.301602
     20          1           0        3.387090   -1.556821    1.403730
     21          1           0       -1.587641    0.859269   -1.581733
     22          1           0       -1.516265   -0.916662   -1.541682
     23          1           0       -2.461337    2.093907    0.660647
     24          1           0       -2.968162    1.049022    1.991309
     25          1           0       -1.244686    1.176866    1.589416
     26          1           0       -3.907764   -0.987539   -1.024999
     27          1           0       -4.552407   -0.182513    0.418202
     28          1           0       -4.036675    0.788134   -0.969549
     29          1           0       -2.694301   -1.284117    1.693540
     30          1           0        0.070110    2.664822   -1.607019
     31          1           0       -0.433492    2.856543    0.075115
     32          1           0        1.226860    3.224234   -0.397584
 ---------------------------------------------------------------------

 SCF Done:  E(UB3LYP) =  -652.114459157     A.U. after   32 cycles

 The electronic state is 2-A.
 Alpha  occ. eigenvalues --  -19.01705 -18.96695 -14.24655 -14.24489 -10.17435
 Alpha  occ. eigenvalues --  -10.13383 -10.10717 -10.10653 -10.09928 -10.09853
 Alpha  occ. eigenvalues --  -10.07733 -10.07326 -10.06558 -10.06116  -0.94665
 Alpha  occ. eigenvalues --   -0.92451  -0.87179  -0.81813  -0.70244  -0.68363
 Alpha  occ. eigenvalues --   -0.64277  -0.63782  -0.59823  -0.57899  -0.55495
 Alpha  occ. eigenvalues --   -0.49768  -0.48065  -0.45871  -0.41191  -0.39138
 Alpha  occ. eigenvalues --   -0.38549  -0.36710  -0.36218  -0.33908  -0.33447
 Alpha  occ. eigenvalues --   -0.33060  -0.32102  -0.31825  -0.31234  -0.31016
 Alpha  occ. eigenvalues --   -0.30418  -0.29840  -0.29635  -0.29047  -0.28174
 Alpha  occ. eigenvalues --   -0.27404  -0.26233  -0.25849  -0.23477  -0.20721
 Alpha  occ. eigenvalues --   -0.17656  -0.16983  -0.15883  -0.08388   0.03969
 Alpha virt. eigenvalues --    0.05866   0.07085   0.07989   0.08719   0.09088
 Alpha virt. eigenvalues --    0.09553   0.10070   0.10547   0.10867   0.11677
 Alpha virt. eigenvalues --    0.11954   0.12219   0.12689   0.13183   0.13682

  Beta  occ. eigenvalues --  -19.01684 -18.96693 -14.24656 -14.24489 -10.17436
  Beta  occ. eigenvalues --  -10.13382 -10.10694 -10.10634 -10.09927 -10.09852
  Beta  occ. eigenvalues --  -10.07684 -10.07279 -10.06525 -10.06077  -0.94658
  Beta  occ. eigenvalues --   -0.92406  -0.87171  -0.81805  -0.70217  -0.68331
  Beta  occ. eigenvalues --   -0.64237  -0.63727  -0.59758  -0.57853  -0.55440
  Beta  occ. eigenvalues --   -0.49725  -0.48034  -0.45842  -0.41156  -0.39102
  Beta  occ. eigenvalues --   -0.38521  -0.36684  -0.36190  -0.33873  -0.33404
  Beta  occ. eigenvalues --   -0.33023  -0.32068  -0.31783  -0.31200  -0.30974
  Beta  occ. eigenvalues --   -0.30390  -0.29810  -0.29595  -0.29009  -0.28147
  Beta  occ. eigenvalues --   -0.27373  -0.26199  -0.25820  -0.23442  -0.20706
  Beta  occ. eigenvalues --   -0.17631  -0.16971  -0.15879  -0.08376
  Beta virt. eigenvalues --    0.06183   0.06810   0.07917   0.08611   0.09121
  Beta virt. eigenvalues --    0.09634   0.09988   0.10564   0.10771   0.11328
  Beta virt. eigenvalues --    0.11987   0.12254   0.12460   0.12882   0.13371

 Mulliken charges and spin densities:
               1          2
     1  C    2.239708  -2.806616
     2  C   -1.412861   1.473018
     3  C   -1.226066   1.340352
     4  N    0.055906   0.138419
     5  C   -0.241893   0.380748
     6  O   -0.377975  -0.003407
     7  N   -0.156351   0.112516
     8  C    0.316233  -0.545547
     9  C    0.427530  -1.173078
    10  C   -1.402448   1.722002
    11  C    0.717941  -1.259743
    12  C    0.434131  -0.912262
    13  O   -0.118911  -0.022269
    14  C    1.582255  -2.278652
    15  H   -0.186557   0.339279
    16  H   -0.212616   0.371905
    17  H   -0.334791   0.475118
    18  H    0.141292   0.049139
    19  H   -0.029306   0.183657
    20  H   -0.052538   0.210667
    21  H    0.017740   0.141760
    22  H    0.212179   0.037918
    23  H   -0.044521   0.210101
    24  H   -0.375698   0.514094
    25  H    0.072020   0.121897
    26  H    0.048156   0.104479
    27  H   -0.258387   0.403892
    28  H   -0.209471   0.354666
    29  H    0.106872   0.133699
    30  H   -0.259605   0.433746
    31  H   -0.186726   0.315929
    32  H   -0.285243   0.432574
 Sum of Mulliken charges =  -1.00000   1.00000

 Dipole moment (field-independent basis, Debye):
    X=              0.4519    Y=             -2.2500    Z=             -0.6007  Tot=              2.3723
 Quadrupole moment (field-independent basis, Debye-Ang):
   XX=           -151.5795   YY=           -139.7268   ZZ=           -116.7302
   XY=             -4.0009   XZ=              1.2785   YZ=             -0.9775

 Summary of Natural Population Analysis:

                                       Natural Population
                Natural  -----------------------------------------------
    Atom  No    Charge         Core      Valence    Rydberg      Total
 -----------------------------------------------------------------------
      C    1   -0.29848      0.99964     2.29379    0.00505     3.29848
      C    2    0.06567      0.99944     1.92365    0.01124     2.93433
      C    3    0.06530      0.99944     1.92304    0.01222     2.93470
      N    4   -0.24136      0.99961     2.73059    0.01117     3.74136
      C    5    0.40419      0.99964     1.57341    0.02276     2.59581
      O    6   -0.34308      0.99988     3.33841    0.00479     4.34308
      N    7   -0.23912      0.99961     2.73052    0.00899     3.73912
      C    8   -0.17696      0.99965     2.17056    0.00675     3.17696
      C    9   -0.09027      0.99955     2.07774    0.01297     3.09027
      C   10    0.12034      0.99956     1.86600    0.01411     2.87966
      C   11   -0.30066      0.99961     2.29366    0.00739     3.30066
      C   12   -0.29684      0.99962     2.29018    0.00704     3.29684
      O   13   -0.36807      0.99989     3.36149    0.00669     4.36807
      C   14   -0.29958      0.99963     2.29476    0.00518     3.29958
      H   15    0.10325      0.00000     0.39519    0.00156     0.39675
      H   16    0.10456      0.00000     0.39389    0.00155     0.39544
      H   17    0.11103      0.00000     0.38777    0.00119     0.38897
      H   18    0.11454      0.00000     0.38437    0.00109     0.38546
      H   19    0.09274      0.00000     0.40585    0.00141     0.40726
      H   20    0.09409      0.00000     0.40455    0.00136     0.40591
      H   21    0.10214      0.00000     0.39667    0.00119     0.39786
      H   22    0.11477      0.00000     0.38401    0.00122     0.38523
      H   23    0.10232      0.00000     0.39608    0.00160     0.39768
      H   24    0.09965      0.00000     0.39897    0.00138     0.40035
      H   25    0.10782      0.00000     0.39071    0.00147     0.39218
      H   26    0.10274      0.00000     0.39631    0.00095     0.39726
      H   27    0.10066      0.00000     0.39815    0.00119     0.39934
      H   28    0.10220      0.00000     0.39666    0.00114     0.39780
      H   29    0.22599      0.00000     0.27123    0.00279     0.27401
      H   30    0.10409      0.00000     0.39440    0.00151     0.39591
      H   31    0.10609      0.00000     0.39222    0.00168     0.39391
      H   32    0.11022      0.00000     0.38857    0.00121     0.38978
 =======================================================================
   * Total *    0.00000     13.99475    39.84339    0.16186    54.00000

 Normal termination of Gaussian 16 at Thu Dec 10 09:50:17 2020.
