 Gaussian 16, Revision A.03,

 -----------------------------------------------------------
 # opt freq B3LYP/6-31G(d) empiricaldispersion=gd3bj scf=xqc
 -----------------------------------------------------------

 -------------------------------
 CID_114899801_JID_2018_neutraal
 -------------------------------
 Symbolic Z-matrix:
 Charge =  0 Multiplicity = 1

 SCF Done:  E(RB3LYP) =  -593.137518716     A.U. after   14 cycles
 SCF Done:  E(RB3LYP) =  -593.140720734     A.U. after   12 cycles
 SCF Done:  E(RB3LYP) =  -593.141217895     A.U. after   12 cycles
 SCF Done:  E(RB3LYP) =  -593.141609784     A.U. after   12 cycles
 SCF Done:  E(RB3LYP) =  -593.142303155     A.U. after   12 cycles
 SCF Done:  E(RB3LYP) =  -593.142043063     A.U. after   11 cycles
 SCF Done:  E(RB3LYP) =  -593.142327501     A.U. after   12 cycles
 SCF Done:  E(RB3LYP) =  -593.142545935     A.U. after   11 cycles
 SCF Done:  E(RB3LYP) =  -593.142616801     A.U. after   11 cycles
 SCF Done:  E(RB3LYP) =  -593.142646291     A.U. after   12 cycles
 SCF Done:  E(RB3LYP) =  -593.142689655     A.U. after   11 cycles
 SCF Done:  E(RB3LYP) =  -593.142690448     A.U. after    8 cycles
 SCF Done:  E(RB3LYP) =  -593.142691075     A.U. after    9 cycles
 SCF Done:  E(RB3LYP) =  -593.142691326     A.U. after    8 cycles
 SCF Done:  E(RB3LYP) =  -593.142691467     A.U. after    8 cycles
 SCF Done:  E(RB3LYP) =  -593.142691523     A.U. after    7 cycles
 Optimization completed.
    -- Stationary point found.
 Normal termination of Gaussian 16 at Wed Dec  9 16:49:05 2020.

 --------------------------------------------------------------------
 #N Geom=AllCheck Guess=TCheck SCRF=Check GenChk RB3LYP/6-31G(d) Freq
 --------------------------------------------------------------------

 Structure from the checkpoint file:  "JID_2018.chk"
 -------------------------------
 CID_114899801_JID_2018_neutraal
 -------------------------------
 Charge =  0 Multiplicity = 1

 SCF Done:  E(RB3LYP) =  -593.142691523     A.U. after    1 cycles

  Exact polarizability:  95.871   2.323  86.737   1.473  -4.478  96.565
 Approx polarizability: 135.939   0.098 118.921   9.021  -5.553 160.476

                      1                      2                      3
                      A                      A                      A
 Frequencies --     25.2880                75.2216               107.5009
 Red. masses --      5.4158                 5.2033                 2.9511
 Frc consts  --      0.0020                 0.0173                 0.0201
 IR Inten    --      5.7908                 4.3208                 3.3916

                      4                      5                      6
                      A                      A                      A
 Frequencies --    120.7155               156.6174               183.1521
 Red. masses --      2.8369                 4.6379                 3.6435
 Frc consts  --      0.0244                 0.0670                 0.0720
 IR Inten    --      0.9591                 4.5039                 0.1017

                      7                      8                      9
                      A                      A                      A
 Frequencies --    202.7506               243.4439               250.7746
 Red. masses --      4.4184                 1.2008                 1.1835
 Frc consts  --      0.1070                 0.0419                 0.0439
 IR Inten    --      1.7693                 0.5627                 0.3670

                     10                     11                     12
                      A                      A                      A
 Frequencies --    263.4051               295.0692               312.6636
 Red. masses --      2.9267                 2.9469                 2.2032
 Frc consts  --      0.1196                 0.1512                 0.1269
 IR Inten    --      0.7965                 0.2236                 0.0387

                     13                     14                     15
                      A                      A                      A
 Frequencies --    341.6786               366.8324               395.3128
 Red. masses --      2.9984                 2.6271                 3.3563
 Frc consts  --      0.2062                 0.2083                 0.3090
 IR Inten    --      2.6069                 7.8260                 8.4639

                     16                     17                     18
                      A                      A                      A
 Frequencies --    430.8534               459.3534               501.9217
 Red. masses --      1.3354                 3.5486                 3.3530
 Frc consts  --      0.1461                 0.4412                 0.4977
 IR Inten    --    115.3580                 8.1147                 5.7275

                     19                     20                     21
                      A                      A                      A
 Frequencies --    534.9842               592.7194               616.7573
 Red. masses --      1.3473                 2.0437                 2.5127
 Frc consts  --      0.2272                 0.4230                 0.5631
 IR Inten    --     98.6057                39.3679                44.8756

                     22                     23                     24
                      A                      A                      A
 Frequencies --    642.1217               672.2376               723.6353
 Red. masses --      1.7989                 2.0342                 2.8639
 Frc consts  --      0.4370                 0.5416                 0.8836
 IR Inten    --     87.4330                23.0868                18.8621

                     25                     26                     27
                      A                      A                      A
 Frequencies --    750.7855               775.0030               855.6067
 Red. masses --      3.9892                 5.2186                 2.3031
 Frc consts  --      1.3248                 1.8468                 0.9934
 IR Inten    --     19.7869                16.4813                 2.3964

                     28                     29                     30
                      A                      A                      A
 Frequencies --    901.5848               950.4670               954.7109
 Red. masses --      2.1618                 1.4153                 1.7170
 Frc consts  --      1.0353                 0.7533                 0.9221
 IR Inten    --     12.2783                22.4036                12.4780

                     31                     32                     33
                      A                      A                      A
 Frequencies --   1010.1955              1035.8683              1063.9447
 Red. masses --      1.6928                 1.1085                 1.6828
 Frc consts  --      1.0178                 0.7008                 1.1223
 IR Inten    --      3.9828                14.2653                10.9911

                     34                     35                     36
                      A                      A                      A
 Frequencies --   1091.6931              1113.4076              1119.5018
 Red. masses --      2.2565                 2.2467                 2.0384
 Frc consts  --      1.5845                 1.6410                 1.5052
 IR Inten    --     14.5749                47.8329                 7.1105

                     37                     38                     39
                      A                      A                      A
 Frequencies --   1141.4834              1180.5763              1191.2376
 Red. masses --      1.9355                 2.3543                 2.4788
 Frc consts  --      1.4859                 1.9333                 2.0725
 IR Inten    --     21.0817                27.3862               140.2635

                     40                     41                     42
                      A                      A                      A
 Frequencies --   1258.9383              1345.1290              1358.6208
 Red. masses --      2.1951                 1.3041                 2.8152
 Frc consts  --      2.0498                 1.3903                 3.0617
 IR Inten    --     42.8630                11.2921                84.7127

                     43                     44                     45
                      A                      A                      A
 Frequencies --   1363.1701              1373.1630              1402.2123
 Red. masses --      1.3221                 2.1370                 1.5407
 Frc consts  --      1.4474                 2.3742                 1.7848
 IR Inten    --      0.6342                58.4355                 2.4040

                     46                     47                     48
                      A                      A                      A
 Frequencies --   1431.8937              1448.9920              1483.0010
 Red. masses --      1.2209                 1.2495                 1.1830
 Frc consts  --      1.4748                 1.5457                 1.5329
 IR Inten    --      4.0202                 3.1062                 5.9903

                     49                     50                     51
                      A                      A                      A
 Frequencies --   1519.0957              1526.1951              1535.9465
 Red. masses --      1.0525                 1.0492                 1.0540
 Frc consts  --      1.4310                 1.4398                 1.4650
 IR Inten    --      8.1128                 9.6464                 4.7451

                     52                     53                     54
                      A                      A                      A
 Frequencies --   1544.3314              1653.4188              1737.2623
 Red. masses --      1.0559                 1.2231                 4.4476
 Frc consts  --      1.4837                 1.9701                 7.9088
 IR Inten    --     10.0681                95.0417                 8.8694

                     55                     56                     57
                      A                      A                      A
 Frequencies --   1796.1706              1840.0351              2980.1826
 Red. masses --      8.8661                 9.8987                 1.0819
 Frc consts  --     16.8531                19.7460                 5.6615
 IR Inten    --    237.1313               242.1487                33.1055

                     58                     59                     60
                      A                      A                      A
 Frequencies --   3062.3699              3076.9892              3120.8002
 Red. masses --      1.0373                 1.0359                 1.1013
 Frc consts  --      5.7317                 5.7787                 6.3193
 IR Inten    --     23.0747                21.4317                23.2298

                     61                     62                     63
                      A                      A                      A
 Frequencies --   3127.0916              3146.1652              3166.2371
 Red. masses --      1.0860                 1.1030                 1.1008
 Frc consts  --      6.2572                 6.4324                 6.5022
 IR Inten    --     32.8308                26.4688                 5.6050

                     64                     65                     66
                      A                      A                      A
 Frequencies --   3168.1291              3177.2468              3273.5743
 Red. masses --      1.1016                 1.0678                 1.1114
 Frc consts  --      6.5143                 6.3510                 7.0169
 IR Inten    --     12.4311                16.6750                 6.0608

                     67                     68                     69
                      A                      A                      A
 Frequencies --   3575.1689              3687.1831              3692.3368
 Red. masses --      1.0464                 1.0639                 1.1015
 Frc consts  --      7.8806                 8.5222                 8.8476
 IR Inten    --     26.5323                56.9115                27.2605

 - Thermochemistry -
 -------------------
 Temperature   298.150 Kelvin.  Pressure   1.00000 Atm.
 Atom     1 has atomic number  6 and mass  12.00000

 Molecular mass:   171.08954 amu.
 Principal axes and moments of inertia in atomic units:
                           1         2         3
     Eigenvalues --  1736.101441853.913942240.21994
           X            0.99955   0.00493  -0.02953
           Y           -0.00615   0.99912  -0.04150
           Z            0.02930   0.04166   0.99870
 This molecule is an asymmetric top.
 Rotational symmetry number  1.
 Warning -- assumption of classical behavior for rotation
           may cause significant error
 Rotational temperatures (Kelvin)      0.04989     0.04672     0.03866
 Rotational constants (GHZ):           1.03954     0.97348     0.80561
 Zero-point vibrational energy     547423.9 (Joules/Mol)
                                  130.83745 (Kcal/Mol)
 Warning -- explicit consideration of  21 degrees of freedom as
           vibrations may cause significant error
 Vibrational temperatures:     36.38   108.23   154.67   173.68   225.34
          (Kelvin)            263.51   291.71   350.26   360.81   378.98
                              424.54   449.85   491.60   527.79   568.77
                              619.90   660.91   722.15   769.72   852.79
                              887.38   923.87   967.20  1041.15  1080.21
                             1115.06  1231.03  1297.18  1367.51  1373.62
                             1453.45  1490.38  1530.78  1570.70  1601.95
                             1610.71  1642.34  1698.59  1713.93  1811.33
                             1935.34  1954.75  1961.30  1975.68  2017.47
                             2060.18  2084.78  2133.71  2185.64  2195.85
                             2209.88  2221.95  2378.90  2499.53  2584.29
                             2647.40  4287.82  4406.07  4427.10  4490.14
                             4499.19  4526.63  4555.51  4558.23  4571.35
                             4709.94  5143.87  5305.03  5312.45

 Zero-point correction=                           0.208503 (Hartree/Particle)
 Thermal correction to Energy=                    0.221854
 Thermal correction to Enthalpy=                  0.222798
 Thermal correction to Gibbs Free Energy=         0.169101
 Sum of electronic and zero-point Energies=           -592.934189
 Sum of electronic and thermal Energies=              -592.920837
 Sum of electronic and thermal Enthalpies=            -592.919893
 Sum of electronic and thermal Free Energies=         -592.973591

                     E (Thermal)             CV                S
                      KCal/Mol        Cal/Mol-Kelvin    Cal/Mol-Kelvin
 Total                  139.216             49.701            113.016
 Electronic               0.000              0.000              0.000
 Translational            0.889              2.981             41.319
 Rotational               0.889              2.981             30.356
 Vibrational            137.438             43.739             41.341
 Vibration     1          0.593              1.985              6.168
 Vibration     2          0.599              1.966              4.012
 Vibration     3          0.606              1.943              3.314
 Vibration     4          0.609              1.932              3.089
 Vibration     5          0.620              1.895              2.590
 Vibration     6          0.631              1.863              2.296
 Vibration     7          0.639              1.836              2.108
 Vibration     8          0.659              1.774              1.778
 Vibration     9          0.663              1.761              1.725
 Vibration    10          0.670              1.740              1.639
 Vibration    11          0.689              1.683              1.445
 Vibration    12          0.701              1.650              1.348
 Vibration    13          0.721              1.592              1.204
 Vibration    14          0.740              1.540              1.093
 Vibration    15          0.762              1.480              0.980
 Vibration    16          0.792              1.403              0.856
 Vibration    17          0.817              1.340              0.768
 Vibration    18          0.857              1.246              0.653
 Vibration    19          0.890              1.173              0.576
 Vibration    20          0.950              1.047              0.462
 Vibration    21          0.976              0.996              0.422

 Optimization completed.
    -- Stationary point found.
 Normal termination of Gaussian 16 at Wed Dec  9 16:55:09 2020.

 ----------------------------------------------------------------------
 # B3LYP/6-311++G(d,p) empiricaldispersion=gd3bj scf=xqc pop=npa geom=c
 heck
 ----------------------------------------------------------------------

 ---------------------------------------
 CID_114899801_JID_2018_Energie_neutraal
 ---------------------------------------
 Structure from the checkpoint file:  "JID_2018.chk"
 Charge =  0 Multiplicity = 1

 SCF Done:  E(RB3LYP) =  -593.333566566     A.U. after   14 cycles
 Normal termination of Gaussian 16 at Wed Dec  9 16:57:07 2020.

 ----------------------------------------------------------------------
 # B3LYP/6-311++G(d,p) empiricaldispersion=gd3bj scf=xqc pop=npa geom=c
 heck
 ----------------------------------------------------------------------

 -------------------------------------
 CID_114899801_JID_2018_Energie_kation
 -------------------------------------
 Structure from the checkpoint file:  "JID_2018.chk"
 Charge =  1 Multiplicity = 2

 SCF Done:  E(UB3LYP) =  -593.002158512     A.U. after   23 cycles
 Normal termination of Gaussian 16 at Wed Dec  9 17:01:41 2020.
 Gaussian 16:  ES64L-G16RevA.03 25-Dec-2016

 ----------------------------------------------------------------------
 # B3LYP/6-311++G(d,p) empiricaldispersion=gd3bj scf=xqc pop=npa geom=c
 heck
 ----------------------------------------------------------------------

 ------------------------------------
 CID_114899801_JID_2018_Energie_anion
 ------------------------------------
 Structure from the checkpoint file:  "JID_2018.chk"
 Charge = -1 Multiplicity = 2

                         Standard orientation:
 ---------------------------------------------------------------------
 Center     Atomic      Atomic             Coordinates (Angstroms)
 Number     Number       Type             X           Y           Z
 ---------------------------------------------------------------------
      1          6           0        1.257960   -2.004675    0.955127
      2          6           0        1.136998   -0.480527    0.746704
      3          6           0        2.198612   -0.024895   -0.233302
      4          6           0        2.058342    0.407745   -1.485304
      5          6           0       -0.335840   -0.019910    0.490188
      6          6           0       -1.141983   -0.106489    1.810357
      7          6           0       -0.418922    1.449828    0.006623
      8          8           0       -1.097387    1.779769   -0.953542
      9          7           0        0.232201    2.365302    0.791788
     10          6           0       -1.014823   -0.844250   -0.610506
     11          8           0       -0.455550   -1.366447   -1.548762
     12          8           0       -2.349347   -0.946794   -0.427339
     13          1           0        1.048119   -2.531990    0.022898
     14          1           0        0.574448   -2.364032    1.731504
     15          1           0        2.276521   -2.256703    1.268680
     16          1           0        1.404605   -0.026790    1.714698
     17          1           0        3.207422   -0.103452    0.176773
     18          1           0        2.930359    0.690493   -2.069269
     19          1           0        1.096355    0.483646   -1.977330
     20          1           0       -0.643966    0.475725    2.590467
     21          1           0       -2.149879    0.288564    1.674238
     22          1           0       -1.228734   -1.141978    2.149946
     23          1           0        1.024002    2.070792    1.345330
     24          1           0        0.295892    3.293895    0.394216
     25          1           0       -2.684336   -1.428478   -1.206858
 ---------------------------------------------------------------------

 SCF Done:  E(UB3LYP) =  -593.323746223     A.U. after   31 cycles

 The electronic state is 2-A.
 Alpha  occ. eigenvalues --  -19.07536 -19.01670 -18.99195 -14.22313 -10.20963
 Alpha  occ. eigenvalues --  -10.17761 -10.10993 -10.08801 -10.06673 -10.06647
 Alpha  occ. eigenvalues --  -10.05840 -10.05238  -1.01741  -0.94275  -0.92494
 Alpha  occ. eigenvalues --   -0.80285  -0.73455  -0.67225  -0.62377  -0.57206
 Alpha  occ. eigenvalues --   -0.54676  -0.51566  -0.47734  -0.44164  -0.43592
 Alpha  occ. eigenvalues --   -0.39617  -0.38636  -0.37954  -0.36109  -0.34207
 Alpha  occ. eigenvalues --   -0.33938  -0.31986  -0.31531  -0.31010  -0.29543
 Alpha  occ. eigenvalues --   -0.28222  -0.28055  -0.27422  -0.26525  -0.24282
 Alpha  occ. eigenvalues --   -0.22912  -0.22112  -0.18533  -0.17694  -0.15906
 Alpha  occ. eigenvalues --   -0.14998   0.04523
 Alpha virt. eigenvalues --    0.06841   0.07753   0.08329   0.09221   0.09427
 Alpha virt. eigenvalues --    0.09846   0.10388   0.11207   0.11280   0.11831
 Alpha virt. eigenvalues --    0.12933   0.13487   0.13748   0.14764   0.15216

  Beta  occ. eigenvalues --  -19.07517 -19.01650 -18.99182 -14.22237 -10.20949
  Beta  occ. eigenvalues --  -10.17748 -10.10990 -10.08775 -10.06635 -10.06624
  Beta  occ. eigenvalues --  -10.05812 -10.05232  -1.01706  -0.94248  -0.92458
  Beta  occ. eigenvalues --   -0.80190  -0.73406  -0.67179  -0.62335  -0.57130
  Beta  occ. eigenvalues --   -0.54616  -0.51483  -0.47651  -0.44093  -0.43529
  Beta  occ. eigenvalues --   -0.39586  -0.38568  -0.37898  -0.36060  -0.34164
  Beta  occ. eigenvalues --   -0.33887  -0.31943  -0.31484  -0.30969  -0.29504
  Beta  occ. eigenvalues --   -0.28179  -0.28018  -0.27380  -0.26480  -0.24225
  Beta  occ. eigenvalues --   -0.22840  -0.22070  -0.18501  -0.17605  -0.15867
  Beta  occ. eigenvalues --   -0.14964
  Beta virt. eigenvalues --    0.06912   0.07835   0.08529   0.08827   0.09652
  Beta virt. eigenvalues --    0.10138   0.10380   0.10547   0.11278   0.11869
  Beta virt. eigenvalues --    0.12345   0.13280   0.13956   0.14031   0.15048

 Mulliken charges and spin densities:
               1          2
     1  C    1.430971  -2.110135
     2  C    0.634619  -0.465122
     3  C   -1.814975   1.593776
     4  C    0.894593  -1.268867
     5  C   -0.025049   0.597191
     6  C    1.504345  -1.917058
     7  C   -0.677686   0.424267
     8  O   -0.308783  -0.002808
     9  N   -0.204697  -0.060831
    10  C    0.055952  -0.467442
    11  O   -0.274461   0.017707
    12  O   -0.171890   0.057003
    13  H    0.176527  -0.004135
    14  H   -0.167529   0.280375
    15  H   -0.271996   0.436006
    16  H   -0.389567   0.586834
    17  H   -0.696983   0.883256
    18  H   -0.062394   0.200194
    19  H    0.186194   0.012243
    20  H   -0.377434   0.543394
    21  H    0.101529   0.087032
    22  H   -0.055103   0.233504
    23  H   -0.337196   0.616349
    24  H   -0.254614   0.558582
    25  H    0.105628   0.168684
 Sum of Mulliken charges =  -1.00000   1.00000

 Dipole moment (field-independent basis, Debye):
    X=             -4.3633    Y=             -3.2856    Z=             -3.6974  Tot=              6.5958
 Quadrupole moment (field-independent basis, Debye-Ang):
   XX=           -113.8272   YY=           -113.6745   ZZ=           -114.4561
   XY=             -0.2016   XZ=             -8.3975   YZ=             -1.9495

 Summary of Natural Population Analysis:

                                       Natural Population
                Natural  -----------------------------------------------
    Atom  No    Charge         Core      Valence    Rydberg      Total
 -----------------------------------------------------------------------
      C    1   -0.28169      0.99964     2.27578    0.00628     3.28169
      C    2   -0.13379      0.99957     2.11700    0.01723     3.13379
      C    3   -0.08465      0.99955     2.07212    0.01298     3.08465
      C    4   -0.18832      0.99954     2.18174    0.00704     3.18832
      C    5   -0.11330      0.99946     2.09816    0.01567     3.11330
      C    6   -0.28137      0.99964     2.27367    0.00805     3.28137
      C    7    0.35678      0.99965     1.61822    0.02535     2.64322
      O    8   -0.31969      0.99987     3.31379    0.00603     4.31969
      N    9   -0.40046      0.99969     2.89129    0.00949     3.90046
      C   10    0.42726      0.99965     1.54519    0.02789     2.57274
      O   11   -0.30649      0.99987     3.30049    0.00613     4.30649
      O   12   -0.34133      0.99987     3.33528    0.00618     4.34133
      H   13    0.10598      0.00000     0.39283    0.00119     0.39402
      H   14    0.09896      0.00000     0.39992    0.00112     0.40104
      H   15    0.10402      0.00000     0.39490    0.00107     0.39598
      H   16    0.10939      0.00000     0.38355    0.00707     0.39061
      H   17    0.09703      0.00000     0.40139    0.00158     0.40297
      H   18    0.09206      0.00000     0.40711    0.00083     0.40794
      H   19    0.10192      0.00000     0.39667    0.00141     0.39808
      H   20    0.10821      0.00000     0.39010    0.00169     0.39179
      H   21    0.10917      0.00000     0.38955    0.00128     0.39083
      H   22    0.10326      0.00000     0.39548    0.00126     0.39674
      H   23    0.20186      0.00000     0.28780    0.01034     0.29814
      H   24    0.19682      0.00000     0.30032    0.00286     0.30318
      H   25    0.23836      0.00000     0.25801    0.00363     0.26164
 =======================================================================
   * Total *   -0.00000     11.99600    33.82036    0.18364    46.00000

 Normal termination of Gaussian 16 at Wed Dec  9 17:07:48 2020.
