 Gaussian 16, Revision A.03,

 -----------------------------------------------------------
 # opt freq B3LYP/6-31G(d) empiricaldispersion=gd3bj scf=xqc
 -----------------------------------------------------------

 ------------------------------
 CID_61554743_JID_5401_neutraal
 ------------------------------
 Symbolic Z-matrix:
 Charge =  0 Multiplicity = 1

 SCF Done:  E(RB3LYP) =  -1051.46253279     A.U. after   15 cycles
 SCF Done:  E(RB3LYP) =  -1051.46748994     A.U. after   14 cycles
 SCF Done:  E(RB3LYP) =  -1051.46826914     A.U. after   12 cycles
 SCF Done:  E(RB3LYP) =  -1051.46803487     A.U. after   13 cycles
 SCF Done:  E(RB3LYP) =  -1051.46857033     A.U. after   12 cycles
 SCF Done:  E(RB3LYP) =  -1051.46852428     A.U. after   12 cycles
 SCF Done:  E(RB3LYP) =  -1051.46863760     A.U. after   12 cycles
 SCF Done:  E(RB3LYP) =  -1051.46867317     A.U. after   10 cycles
 SCF Done:  E(RB3LYP) =  -1051.46869064     A.U. after   10 cycles
 SCF Done:  E(RB3LYP) =  -1051.46869353     A.U. after    9 cycles
 SCF Done:  E(RB3LYP) =  -1051.46870540     A.U. after   10 cycles
 SCF Done:  E(RB3LYP) =  -1051.46871025     A.U. after   10 cycles
 SCF Done:  E(RB3LYP) =  -1051.46871274     A.U. after   10 cycles
 SCF Done:  E(RB3LYP) =  -1051.46871310     A.U. after    8 cycles
 SCF Done:  E(RB3LYP) =  -1051.46871312     A.U. after    7 cycles
 Optimization completed.
    -- Stationary point found.
 Normal termination of Gaussian 16 at Thu Dec 10 16:06:09 2020.

 --------------------------------------------------------------------
 #N Geom=AllCheck Guess=TCheck SCRF=Check GenChk RB3LYP/6-31G(d) Freq
 --------------------------------------------------------------------

 Structure from the checkpoint file:  "JID_5401.chk"
 ------------------------------
 CID_61554743_JID_5401_neutraal
 ------------------------------
 Charge =  0 Multiplicity = 1

 SCF Done:  E(RB3LYP) =  -1051.46871312     A.U. after    1 cycles

  Exact polarizability: 152.752  -8.486 138.544 -24.925   3.469 108.822
 Approx polarizability: 205.694 -20.749 251.902 -48.412   7.687 174.882

                      1                      2                      3
                      A                      A                      A
 Frequencies --     24.2087                31.0482                51.2039
 Red. masses --      6.2697                 3.6664                 6.2691
 Frc consts  --      0.0022                 0.0021                 0.0097
 IR Inten    --      0.3804                 2.7532                 2.6420

                      4                      5                      6
                      A                      A                      A
 Frequencies --     60.9279                89.0423               126.6567
 Red. masses --      3.5314                 3.7863                 3.5226
 Frc consts  --      0.0077                 0.0177                 0.0333
 IR Inten    --      2.7474                 1.9815                 0.5932

                      7                      8                      9
                      A                      A                      A
 Frequencies --    142.3151               170.2654               182.2906
 Red. masses --      5.1038                 3.2903                 4.3758
 Frc consts  --      0.0609                 0.0562                 0.0857
 IR Inten    --      3.9998                 0.0703                 0.9172

                     10                     11                     12
                      A                      A                      A
 Frequencies --    210.9523               271.0111               309.7321
 Red. masses --      4.7651                 2.6682                 3.3831
 Frc consts  --      0.1249                 0.1155                 0.1912
 IR Inten    --      8.3934                 8.5401                 3.6455

                     13                     14                     15
                      A                      A                      A
 Frequencies --    391.3287               414.6153               441.1599
 Red. masses --      4.9827                 2.3338                 3.3450
 Frc consts  --      0.4496                 0.2364                 0.3836
 IR Inten    --      1.9471                 0.5384                 1.8021

                     16                     17                     18
                      A                      A                      A
 Frequencies --    449.3702               519.8022               555.3929
 Red. masses --      5.5246                 5.2254                 5.5949
 Frc consts  --      0.6573                 0.8319                 1.0168
 IR Inten    --      2.5895                10.2615                24.5413

                     19                     20                     21
                      A                      A                      A
 Frequencies --    582.8049               616.0842               672.3214
 Red. masses --      3.4147                 2.3850                 4.5501
 Frc consts  --      0.6834                 0.5334                 1.2118
 IR Inten    --      3.1178                 3.9128                16.3815

                     22                     23                     24
                      A                      A                      A
 Frequencies --    686.1153               701.9209               737.3309
 Red. masses --      3.7987                 7.1662                 1.1716
 Frc consts  --      1.0536                 2.0802                 0.3753
 IR Inten    --     13.4766                13.1262                57.8663

                     25                     26                     27
                      A                      A                      A
 Frequencies --    759.3157               834.2450               871.8461
 Red. masses --      6.3798                 1.8933                 1.6243
 Frc consts  --      2.1672                 0.7763                 0.7274
 IR Inten    --     13.6063                 2.4836                 8.9919

                     28                     29                     30
                      A                      A                      A
 Frequencies --    877.3365               895.7553               929.4903
 Red. masses --      2.4604                 2.6392                 2.6814
 Frc consts  --      1.1158                 1.2477                 1.3649
 IR Inten    --      8.8282                 1.9829                43.0923

                     31                     32                     33
                      A                      A                      A
 Frequencies --    936.1964               949.0981               953.2390
 Red. masses --      1.9511                 2.2139                 1.7555
 Frc consts  --      1.0075                 1.1750                 0.9398
 IR Inten    --      7.7151                11.1402                 1.8289

                     34                     35                     36
                      A                      A                      A
 Frequencies --    978.0221               987.1645              1004.8423
 Red. masses --      2.4783                 1.8476                 1.9611
 Frc consts  --      1.3967                 1.0608                 1.1667
 IR Inten    --      4.2590                 0.2771                10.3254

                     37                     38                     39
                      A                      A                      A
 Frequencies --   1045.4068              1071.0066              1093.7403
 Red. masses --      2.0526                 3.5533                 1.7399
 Frc consts  --      1.3217                 2.4014                 1.2263
 IR Inten    --     21.5887                 5.0558                23.4962

                     40                     41                     42
                      A                      A                      A
 Frequencies --   1120.3705              1124.9711              1133.8252
 Red. masses --      1.2294                 2.7608                 4.4892
 Frc consts  --      0.9092                 2.0586                 3.4002
 IR Inten    --     16.1046                10.4590                86.4654

                     43                     44                     45
                      A                      A                      A
 Frequencies --   1158.1412              1180.4914              1202.5714
 Red. masses --      4.3780                 2.1648                 1.2583
 Frc consts  --      3.4598                 1.7774                 1.0721
 IR Inten    --    117.4317                27.1819                 9.7821

                     46                     47                     48
                      A                      A                      A
 Frequencies --   1252.3586              1265.7833              1266.8342
 Red. masses --      1.2156                 1.3939                 1.3668
 Frc consts  --      1.1233                 1.3159                 1.2924
 IR Inten    --     17.2572                 1.0956                13.2545

                     49                     50                     51
                      A                      A                      A
 Frequencies --   1279.3632              1309.6013              1323.8641
 Red. masses --      1.5341                 1.5513                 1.5694
 Frc consts  --      1.4795                 1.5676                 1.6206
 IR Inten    --     52.5520                20.5436                35.8310

                     52                     53                     54
                      A                      A                      A
 Frequencies --   1327.8517              1351.5540              1385.4198
 Red. masses --      1.4538                 1.2314                 1.2736
 Frc consts  --      1.5103                 1.3253                 1.4402
 IR Inten    --     28.9676                 4.2113                 5.6948

                     55                     56                     57
                      A                      A                      A
 Frequencies --   1387.8421              1392.0226              1404.6447
 Red. masses --      1.3192                 1.3263                 2.3767
 Frc consts  --      1.4971                 1.5142                 2.7629
 IR Inten    --      3.6733                 1.8462                15.2113

                     58                     59                     60
                      A                      A                      A
 Frequencies --   1433.2993              1442.0105              1471.8030
 Red. masses --      1.4002                 1.3234                 5.2759
 Frc consts  --      1.6948                 1.6214                 6.7336
 IR Inten    --      6.9354                12.8046               100.8390

                     61                     62                     63
                      A                      A                      A
 Frequencies --   1509.1505              1514.0073              1529.0702
 Red. masses --      1.0919                 1.0933                 1.0864
 Frc consts  --      1.4652                 1.4765                 1.4966
 IR Inten    --      5.3177                10.9550                 0.9713

                     64                     65                     66
                      A                      A                      A
 Frequencies --   1551.5127              1563.7131              1578.0567
 Red. masses --      1.0858                 1.0962                 5.1395
 Frc consts  --      1.5400                 1.5793                 7.5407
 IR Inten    --      3.4609                 0.2746                18.2708

                     67                     68                     69
                      A                      A                      A
 Frequencies --   1745.7166              2991.8604              3005.5179
 Red. masses --     11.8020                 1.0696                 1.0728
 Frc consts  --     21.1910                 5.6412                 5.7096
 IR Inten    --    205.5258                73.8513                60.8094

                     70                     71                     72
                      A                      A                      A
 Frequencies --   3015.7794              3047.6029              3059.8552
 Red. masses --      1.0685                 1.0827                 1.0575
 Frc consts  --      5.7259                 5.9246                 5.8335
 IR Inten    --     29.2194                14.8408                24.3975

                     73                     74                     75
                      A                      A                      A
 Frequencies --   3064.3553              3071.2020              3094.9839
 Red. masses --      1.0773                 1.0868                 1.0940
 Frc consts  --      5.9604                 6.0397                 6.1741
 IR Inten    --     12.3029                69.8398                23.0752

                     76                     77                     78
                      A                      A                      A
 Frequencies --   3095.6695              3105.8321              3145.8204
 Red. masses --      1.0958                 1.1068                 1.0966
 Frc consts  --      6.1872                 6.2905                 6.3939
 IR Inten    --     61.4422                25.2758                16.5453

                     79                     80                     81
                      A                      A                      A
 Frequencies --   3228.4657              3256.7700              3266.7652
 Red. masses --      1.0898                 1.0941                 1.0976
 Frc consts  --      6.6925                 6.8372                 6.9012
 IR Inten    --      6.3429                 1.0178                 0.8400

 - Thermochemistry -
 -------------------
 Temperature   298.150 Kelvin.  Pressure   1.00000 Atm.
 Atom     1 has atomic number  6 and mass  12.00000

 Molecular mass:   226.06637 amu.
 Principal axes and moments of inertia in atomic units:
                           1         2         3
     Eigenvalues --  1730.664766583.821756867.82410
           X            0.99993  -0.01137  -0.00411
           Y            0.01151   0.99934   0.03451
           Z            0.00372  -0.03456   0.99940
 This molecule is an asymmetric top.
 Rotational symmetry number  1.
 Warning -- assumption of classical behavior for rotation
           may cause significant error
 Rotational temperatures (Kelvin)      0.05005     0.01316     0.01261
 Rotational constants (GHZ):           1.04280     0.27412     0.26278
 Zero-point vibrational energy     623738.5 (Joules/Mol)
                                  149.07708 (Kcal/Mol)
 Warning -- explicit consideration of  20 degrees of freedom as
           vibrations may cause significant error
 Vibrational temperatures:     34.83    44.67    73.67    87.66   128.11
          (Kelvin)            182.23   204.76   244.97   262.28   303.51
                              389.92   445.64   563.03   596.54   634.73
                              646.54   747.88   799.09   838.53   886.41
                              967.32   987.17  1009.91  1060.85  1092.49
                             1200.29  1254.39  1262.29  1288.79  1337.33
                             1346.98  1365.54  1371.50  1407.16  1420.31
                             1445.74  1504.11  1540.94  1573.65  1611.96
                             1618.58  1631.32  1666.31  1698.46  1730.23
                             1801.86  1821.18  1822.69  1840.72  1884.22
                             1904.75  1910.48  1944.58  1993.31  1996.80
                             2002.81  2020.97  2062.20  2074.73  2117.60
                             2171.33  2178.32  2199.99  2232.28  2249.83
                             2270.47  2511.70  4304.62  4324.27  4339.03
                             4384.82  4402.45  4408.92  4418.77  4452.99
                             4453.98  4468.60  4526.13  4645.04  4685.77
                             4700.15

 Zero-point correction=                           0.237569 (Hartree/Particle)
 Thermal correction to Energy=                    0.251842
 Thermal correction to Enthalpy=                  0.252787
 Thermal correction to Gibbs Free Energy=         0.193571
 Sum of electronic and zero-point Energies=          -1051.231144
 Sum of electronic and thermal Energies=             -1051.216871
 Sum of electronic and thermal Enthalpies=           -1051.215927
 Sum of electronic and thermal Free Energies=        -1051.275142

                     E (Thermal)             CV                S
                      KCal/Mol        Cal/Mol-Kelvin    Cal/Mol-Kelvin
 Total                  158.033             52.537            124.630
 Electronic               0.000              0.000              0.000
 Translational            0.889              2.981             42.149
 Rotational               0.889              2.981             32.726
 Vibrational            156.256             46.576             49.755
 Vibration     1          0.593              1.985              6.255
 Vibration     2          0.594              1.983              5.761
 Vibration     3          0.595              1.977              4.770
 Vibration     4          0.597              1.973              4.427
 Vibration     5          0.602              1.957              3.681
 Vibration     6          0.611              1.926              2.996
 Vibration     7          0.616              1.911              2.773
 Vibration     8          0.625              1.879              2.433
 Vibration     9          0.630              1.864              2.305
 Vibration    10          0.643              1.824              2.035
 Vibration    11          0.675              1.727              1.590
 Vibration    12          0.699              1.655              1.364
 Vibration    13          0.759              1.489              0.995
 Vibration    14          0.778              1.438              0.910
 Vibration    15          0.801              1.380              0.823
 Vibration    16          0.808              1.362              0.798
 Vibration    17          0.875              1.206              0.610
 Vibration    18          0.911              1.128              0.533
 Vibration    19          0.940              1.069              0.480
 Vibration    20          0.976              0.998              0.423

 Optimization completed.
    -- Stationary point found.
 Normal termination of Gaussian 16 at Thu Dec 10 16:15:31 2020.

 ----------------------------------------------------------------------
 # B3LYP/6-311++G(d,p) empiricaldispersion=gd3bj scf=xqc pop=npa geom=c
 heck
 ----------------------------------------------------------------------

 --------------------------------------
 CID_61554743_JID_5401_Energie_neutraal
 --------------------------------------
 Structure from the checkpoint file:  "JID_5401.chk"
 Charge =  0 Multiplicity = 1

 SCF Done:  E(RB3LYP) =  -1051.68013943     A.U. after   15 cycles
 Normal termination of Gaussian 16 at Thu Dec 10 16:20:02 2020.

 ----------------------------------------------------------------------
 # B3LYP/6-311++G(d,p) empiricaldispersion=gd3bj scf=xqc pop=npa geom=c
 heck
 ----------------------------------------------------------------------

 ------------------------------------
 CID_61554743_JID_5401_Energie_kation
 ------------------------------------
 Structure from the checkpoint file:  "JID_5401.chk"
 Charge =  1 Multiplicity = 2

 SCF Done:  E(UB3LYP) =  -1051.36411857     A.U. after   33 cycles
 SCF Done:  E(UB3LYP) =  -1051.36411857     a.u. after    1 cycles
 Normal termination of Gaussian 16 at Thu Dec 10 16:34:28 2020.
 Gaussian 16:  ES64L-G16RevA.03 25-Dec-2016

 ----------------------------------------------------------------------
 # B3LYP/6-311++G(d,p) empiricaldispersion=gd3bj scf=xqc pop=npa geom=c
 heck
 ----------------------------------------------------------------------

 -----------------------------------
 CID_61554743_JID_5401_Energie_anion
 -----------------------------------
 Structure from the checkpoint file:  "JID_5401.chk"
 Charge = -1 Multiplicity = 2

                         Standard orientation:
 ---------------------------------------------------------------------
 Center     Atomic      Atomic             Coordinates (Angstroms)
 Number     Number       Type             X           Y           Z
 ---------------------------------------------------------------------
      1          6           0       -2.392658    0.950143    0.027758
      2          6           0       -3.827325    1.278020   -0.383478
      3          8           0       -4.267062    0.185078   -1.195442
      4          6           0       -3.413658   -0.936766   -0.991495
      5          6           0       -2.445961   -0.583866    0.155619
      6          6           0       -1.127902   -1.348299    0.007231
      7          8           0       -0.377977   -1.533141    1.207955
      8          6           0        0.011991   -0.352288    1.880516
      9          6           0        0.886768    0.621986    1.078151
     10          8           0        0.680294    1.827382    1.162708
     11          6           0        1.979717    0.083157    0.269441
     12          6           0        2.390547   -1.222309    0.078418
     13          6           0        3.520365   -1.324848   -0.773566
     14          6           0        3.950444   -0.098566   -1.220992
     15         16           0        2.994306    1.202743   -0.612953
     16          1           0       -1.692293    1.229858   -0.768651
     17          1           0       -2.081627    1.472661    0.934580
     18          1           0       -4.478581    1.371226    0.499600
     19          1           0       -3.912615    2.199972   -0.968061
     20          1           0       -2.855582   -1.140478   -1.919943
     21          1           0       -4.018900   -1.822725   -0.762885
     22          1           0       -2.904267   -0.863189    1.113219
     23          1           0       -1.330691   -2.371406   -0.325775
     24          1           0       -0.506248   -0.867279   -0.763357
     25          1           0       -0.846354    0.221229    2.246970
     26          1           0        0.588614   -0.689061    2.750369
     27          1           0        1.876673   -2.061640    0.529232
     28          1           0        3.992458   -2.261889   -1.046008
     29          1           0        4.784509    0.106099   -1.879423
 ---------------------------------------------------------------------

 SCF Done:  E(UB3LYP) =  -1051.70261008     A.U. after   23 cycles

 The electronic state is 2-A.
 Alpha  occ. eigenvalues --  -88.70978 -19.02779 -19.00437 -18.91686 -10.12311
 Alpha  occ. eigenvalues --  -10.12070 -10.10602 -10.08054 -10.07886 -10.06409
 Alpha  occ. eigenvalues --  -10.06135 -10.03470 -10.02964 -10.02604 -10.00997
 Alpha  occ. eigenvalues --   -7.79628  -5.75914  -5.75558  -5.75260  -0.94464
 Alpha  occ. eigenvalues --   -0.91551  -0.85808  -0.72076  -0.70070  -0.65178
 Alpha  occ. eigenvalues --   -0.60860  -0.57952  -0.57814  -0.53314  -0.50153
 Alpha  occ. eigenvalues --   -0.48156  -0.44912  -0.41405  -0.40573  -0.39173
 Alpha  occ. eigenvalues --   -0.37125  -0.36834  -0.36327  -0.34673  -0.32974
 Alpha  occ. eigenvalues --   -0.32261  -0.29895  -0.29692  -0.27780  -0.27133
 Alpha  occ. eigenvalues --   -0.25401  -0.24751  -0.24200  -0.23726  -0.23224
 Alpha  occ. eigenvalues --   -0.22730  -0.21896  -0.20191  -0.19665  -0.18987
 Alpha  occ. eigenvalues --   -0.16287  -0.14773  -0.10632  -0.09152  -0.08144
 Alpha  occ. eigenvalues --    0.04074
 Alpha virt. eigenvalues --    0.07424   0.08789   0.09319   0.09548   0.10503
 Alpha virt. eigenvalues --    0.11191   0.11664   0.11672   0.12413   0.12870
 Alpha virt. eigenvalues --    0.13789   0.14542   0.15118   0.15379   0.15946

  Beta  occ. eigenvalues --  -88.70918 -19.02779 -19.00408 -18.91096 -10.12309
  Beta  occ. eigenvalues --  -10.12070 -10.10599 -10.08084 -10.07886 -10.06408
  Beta  occ. eigenvalues --  -10.05758 -10.03091 -10.02918 -10.02729 -10.00712
  Beta  occ. eigenvalues --   -7.79574  -5.75887  -5.75531  -5.75060  -0.94464
  Beta  occ. eigenvalues --   -0.91475  -0.84741  -0.71736  -0.70061  -0.65172
  Beta  occ. eigenvalues --   -0.60619  -0.57684  -0.57252  -0.53122  -0.50149
  Beta  occ. eigenvalues --   -0.48006  -0.44151  -0.41382  -0.40305  -0.39090
  Beta  occ. eigenvalues --   -0.36957  -0.36669  -0.36168  -0.34630  -0.32948
  Beta  occ. eigenvalues --   -0.32114  -0.29783  -0.29448  -0.27518  -0.26840
  Beta  occ. eigenvalues --   -0.25164  -0.24523  -0.23810  -0.23426  -0.22740
  Beta  occ. eigenvalues --   -0.22346  -0.21819  -0.19667  -0.18717  -0.17638
  Beta  occ. eigenvalues --   -0.16273  -0.14638  -0.09526  -0.07668  -0.07238
  Beta virt. eigenvalues --    0.07391   0.08737   0.09258   0.09423   0.10322
  Beta virt. eigenvalues --    0.10815   0.11167   0.11617   0.11783   0.12451
  Beta virt. eigenvalues --    0.12830   0.13765   0.14500   0.15134   0.15723

 Mulliken charges and spin densities:
               1          2
     1  C   -0.246025  -0.007972
     2  C   -0.480085   0.004732
     3  O   -0.166393   0.000125
     4  C   -0.485319  -0.002170
     5  C    0.273711  -0.028532
     6  C   -0.442529   0.032401
     7  O   -0.050373  -0.000090
     8  C   -0.310423  -0.028210
     9  C   -0.504890   0.220580
    10  O   -0.379838   0.211147
    11  C    0.246176  -0.036581
    12  C    0.662213   0.264419
    13  C   -0.962802  -0.086517
    14  C    0.138807   0.249978
    15  S   -0.408145   0.120859
    16  H    0.215733   0.003698
    17  H    0.157504   0.002631
    18  H    0.130391   0.001874
    19  H    0.153124   0.002912
    20  H    0.167139   0.001753
    21  H    0.147573   0.000069
    22  H    0.186352  -0.000149
    23  H    0.155429   0.001915
    24  H    0.141461   0.004230
    25  H    0.151675  -0.001492
    26  H    0.083672   0.083008
    27  H    0.144540  -0.002070
    28  H    0.090189   0.006803
    29  H    0.191133  -0.019354
 Sum of Mulliken charges =  -1.00000   1.00000

 Dipole moment (field-independent basis, Debye):
    X=             -5.6211    Y=             -2.7026    Z=             -0.9371  Tot=              6.3071
 Quadrupole moment (field-independent basis, Debye-Ang):
   XX=           -142.3701   YY=           -115.6377   ZZ=           -111.2613
   XY=             -2.9006   XZ=             -6.1701   YZ=             -1.2841

 Summary of Natural Population Analysis:

                                       Natural Population
                Natural  -----------------------------------------------
    Atom  No    Charge         Core      Valence    Rydberg      Total
 -----------------------------------------------------------------------
      C    1   -0.20909      0.99963     2.20150    0.00796     3.20909
      C    2   -0.00734      0.99961     1.99750    0.01023     3.00734
      O    3   -0.30947      0.99989     3.29957    0.01001     4.30947
      C    4   -0.00418      0.99958     1.99350    0.01109     3.00418
      C    5   -0.13704      0.99960     2.13047    0.00697     3.13704
      C    6   -0.00622      0.99954     1.99453    0.01215     3.00622
      O    7   -0.30068      0.99989     3.28991    0.01088     4.30068
      C    8   -0.04800      0.99955     2.03296    0.01549     3.04800
      C    9    0.27753      0.99957     1.70192    0.02099     2.72247
      O   10   -0.25019      0.99988     3.24436    0.00595     4.25019
      C   11   -0.14627      0.99946     2.13181    0.01500     3.14627
      C   12   -0.06442      0.99949     2.05625    0.00868     3.06442
      C   13   -0.17493      0.99955     2.16469    0.01069     3.17493
      C   14   -0.12708      0.99956     2.11570    0.01181     3.12708
      S   15    0.22456      4.99943     2.75281    0.02319     7.77544
      H   16    0.10539      0.00000     0.39340    0.00121     0.39461
      H   17    0.11723      0.00000     0.38152    0.00125     0.38277
      H   18    0.07313      0.00000     0.42544    0.00143     0.42687
      H   19    0.08562      0.00000     0.41318    0.00120     0.41438
      H   20    0.07936      0.00000     0.41933    0.00131     0.42064
      H   21    0.08215      0.00000     0.41659    0.00126     0.41785
      H   22    0.09649      0.00000     0.40171    0.00179     0.40351
      H   23    0.08496      0.00000     0.41402    0.00101     0.41504
      H   24    0.09179      0.00000     0.40688    0.00133     0.40821
      H   25    0.07998      0.00000     0.41859    0.00144     0.42002
      H   26    0.09546      0.00000     0.40269    0.00185     0.40454
      H   27    0.10454      0.00000     0.39371    0.00175     0.39546
      H   28    0.09420      0.00000     0.40461    0.00119     0.40580
      H   29    0.09252      0.00000     0.40655    0.00093     0.40748
 =======================================================================
   * Total *    0.00000     18.99423    40.80571    0.20006    60.00000

 Normal termination of Gaussian 16 at Thu Dec 10 16:45:08 2020.
