 Gaussian 16, Revision A.03,

 -----------------------------------------------------------
 # opt freq B3LYP/6-31G(d) empiricaldispersion=gd3bj scf=xqc
 -----------------------------------------------------------

 -------------------------------
 CID_149981406_JID_7451_neutraal
 -------------------------------
 Symbolic Z-matrix:
 Charge =  0 Multiplicity = 1

 SCF Done:  E(RB3LYP) =  -1177.06276116     A.U. after   15 cycles
 SCF Done:  E(RB3LYP) =  -1177.07096643     A.U. after   14 cycles
 SCF Done:  E(RB3LYP) =  -1177.06970736     A.U. after   14 cycles
 SCF Done:  E(RB3LYP) =  -1177.07234447     A.U. after   13 cycles
 SCF Done:  E(RB3LYP) =  -1177.07431906     A.U. after   14 cycles
 SCF Done:  E(RB3LYP) =  -1177.07540459     A.U. after   12 cycles
 SCF Done:  E(RB3LYP) =  -1177.07520035     A.U. after   13 cycles
 SCF Done:  E(RB3LYP) =  -1177.07592535     A.U. after   12 cycles
 SCF Done:  E(RB3LYP) =  -1177.07598598     A.U. after   12 cycles
 SCF Done:  E(RB3LYP) =  -1177.07602082     A.U. after   11 cycles
 SCF Done:  E(RB3LYP) =  -1177.07605557     A.U. after   10 cycles
 SCF Done:  E(RB3LYP) =  -1177.07605872     A.U. after    9 cycles
 SCF Done:  E(RB3LYP) =  -1177.07605947     A.U. after    8 cycles
 SCF Done:  E(RB3LYP) =  -1177.07606002     A.U. after    8 cycles
 SCF Done:  E(RB3LYP) =  -1177.07606009     A.U. after    7 cycles
 Optimization completed.
    -- Stationary point found.
 Normal termination of Gaussian 16 at Fri Dec 11 12:06:59 2020.

 --------------------------------------------------------------------
 #N Geom=AllCheck Guess=TCheck SCRF=Check GenChk RB3LYP/6-31G(d) Freq
 --------------------------------------------------------------------

 Structure from the checkpoint file:  "JID_7451.chk"
 -------------------------------
 CID_149981406_JID_7451_neutraal
 -------------------------------
 Charge =  0 Multiplicity = 1

 SCF Done:  E(RB3LYP) =  -1177.07606009     A.U. after    1 cycles

  Exact polarizability: 169.429 -26.480 144.804  17.310   1.085 118.347
 Approx polarizability: 242.547 -51.948 227.510  49.207 -10.047 196.168

                      1                      2                      3
                      A                      A                      A
 Frequencies --     24.2002                37.6330                43.6322
 Red. masses --      7.4589                 7.4038                 6.0658
 Frc consts  --      0.0026                 0.0062                 0.0068
 IR Inten    --      0.5391                 1.8823                 2.8968

                      4                      5                      6
                      A                      A                      A
 Frequencies --     52.5230                77.7345               106.1167
 Red. masses --      5.0632                 9.1799                 5.8419
 Frc consts  --      0.0082                 0.0327                 0.0388
 IR Inten    --      0.1774                 0.7078                 2.4280

                      7                      8                      9
                      A                      A                      A
 Frequencies --    120.9585               131.8278               156.3789
 Red. masses --      2.3890                 5.9995                 9.3974
 Frc consts  --      0.0206                 0.0614                 0.1354
 IR Inten    --      1.6367                 0.8681                 2.4147

                     10                     11                     12
                      A                      A                      A
 Frequencies --    208.9051               240.9576               256.8239
 Red. masses --      2.1602                 4.1413                 5.7517
 Frc consts  --      0.0555                 0.1417                 0.2235
 IR Inten    --      0.7191                 1.3124                 1.3377

                     13                     14                     15
                      A                      A                      A
 Frequencies --    277.8927               291.7730               302.3016
 Red. masses --      5.3639                 2.7224                 1.0764
 Frc consts  --      0.2441                 0.1365                 0.0580
 IR Inten    --      1.2552                11.0181                37.2546

                     16                     17                     18
                      A                      A                      A
 Frequencies --    363.7389               392.7577               409.9003
 Red. masses --      4.6155                 4.6892                 3.3903
 Frc consts  --      0.3598                 0.4262                 0.3356
 IR Inten    --      9.5432                16.3478                 6.5665

                     19                     20                     21
                      A                      A                      A
 Frequencies --    423.1026               475.9613               478.7575
 Red. masses --      3.3910                 3.6411                 2.8355
 Frc consts  --      0.3577                 0.4860                 0.3829
 IR Inten    --      6.3298                11.0501                 5.8131

                     22                     23                     24
                      A                      A                      A
 Frequencies --    516.7396               546.9165               583.0233
 Red. masses --      3.8367                 6.6262                 4.1856
 Frc consts  --      0.6036                 1.1678                 0.8383
 IR Inten    --     29.1492                 6.7938                 2.9871

                     25                     26                     27
                      A                      A                      A
 Frequencies --    628.4762               651.5702               676.0611
 Red. masses --      4.8530                 4.4281                 3.4874
 Frc consts  --      1.1294                 1.1076                 0.9391
 IR Inten    --      1.3153                 7.6185                19.5128

                     28                     29                     30
                      A                      A                      A
 Frequencies --    685.7933               706.8517               720.5629
 Red. masses --      1.2752                 2.7692                 2.1932
 Frc consts  --      0.3534                 0.8152                 0.6709
 IR Inten    --     45.0887                 4.5979                 0.5624

                     31                     32                     33
                      A                      A                      A
 Frequencies --    727.1741               757.9397               768.4713
 Red. masses --      2.0918                 6.7036                 7.5884
 Frc consts  --      0.6517                 2.2690                 2.6403
 IR Inten    --      1.2737                80.3021                11.3294

                     34                     35                     36
                      A                      A                      A
 Frequencies --    791.9403               812.5733               848.0480
 Red. masses --      1.3627                 2.0535                 4.7058
 Frc consts  --      0.5035                 0.7989                 1.9940
 IR Inten    --      3.9248                43.4555                 4.8666

                     37                     38                     39
                      A                      A                      A
 Frequencies --    910.8634               942.0312               962.4871
 Red. masses --      1.3610                 1.9742                 2.0293
 Frc consts  --      0.6653                 1.0322                 1.1076
 IR Inten    --     36.7389                 9.3473                 6.3316

                     40                     41                     42
                      A                      A                      A
 Frequencies --    969.1555               971.1947               986.0251
 Red. masses --      2.1280                 1.5465                 2.3212
 Frc consts  --      1.1776                 0.8594                 1.3297
 IR Inten    --      3.1125                 2.1684                 2.2283

                     43                     44                     45
                      A                      A                      A
 Frequencies --   1002.9550              1012.3022              1076.4572
 Red. masses --      1.6356                 1.0830                 1.9435
 Frc consts  --      0.9694                 0.6539                 1.3269
 IR Inten    --      8.7666                19.0967                 1.2498

                     46                     47                     48
                      A                      A                      A
 Frequencies --   1123.6105              1166.6418              1199.7104
 Red. masses --      1.9336                 1.9190                 3.2839
 Frc consts  --      1.4383                 1.5389                 2.7848
 IR Inten    --      0.7282                50.5734                31.8868

                     49                     50                     51
                      A                      A                      A
 Frequencies --   1209.1120              1234.8860              1241.0332
 Red. masses --      3.3024                 1.8180                 2.4089
 Frc consts  --      2.8445                 1.6335                 2.1860
 IR Inten    --     16.0890                60.8932                19.9804

                     52                     53                     54
                      A                      A                      A
 Frequencies --   1263.0443              1273.3677              1337.5395
 Red. masses --      1.3903                 1.2897                 1.4221
 Frc consts  --      1.3068                 1.2321                 1.4990
 IR Inten    --     96.0003                41.3376                71.2360

                     55                     56                     57
                      A                      A                      A
 Frequencies --   1362.5031              1375.7418              1387.9449
 Red. masses --      1.2597                 1.3862                 1.9914
 Frc consts  --      1.3778                 1.5457                 2.2603
 IR Inten    --     22.3612                49.3279                54.8305

                     58                     59                     60
                      A                      A                      A
 Frequencies --   1401.0523              1405.1582              1433.2358
 Red. masses --      1.7633                 1.4398                 1.6797
 Frc consts  --      2.0393                 1.6749                 2.0329
 IR Inten    --     21.6749                40.4594                31.5939

                     61                     62                     63
                      A                      A                      A
 Frequencies --   1442.2086              1468.5868              1479.1550
 Red. masses --      1.7454                 1.5073                 3.2766
 Frc consts  --      2.1389                 1.9154                 4.2238
 IR Inten    --    133.6835               114.5737                83.5124

                     64                     65                     66
                      A                      A                      A
 Frequencies --   1493.0935              1503.4550              1526.0850
 Red. masses --      1.0978                 1.1375                 1.1039
 Frc consts  --      1.4419                 1.5150                 1.5147
 IR Inten    --      4.9262                10.5366                 0.9954

                     67                     68                     69
                      A                      A                      A
 Frequencies --   1691.0316              1716.3575              1777.1464
 Red. masses --      5.9600                 4.5655                10.2187
 Frc consts  --     10.0415                 7.9242                19.0148
 IR Inten    --    104.4035                51.0960               154.7538

                     70                     71                     72
                      A                      A                      A
 Frequencies --   1812.2983              1824.4366              2682.9004
 Red. masses --      8.4623                11.0360                 1.0385
 Frc consts  --     16.3757                21.6432                 4.4042
 IR Inten    --    780.4070               338.6377                 4.8731

                     73                     74                     75
                      A                      A                      A
 Frequencies --   3055.5824              3090.0847              3100.2003
 Red. masses --      1.0750                 1.0597                 1.0592
 Frc consts  --      5.9136                 5.9615                 5.9978
 IR Inten    --     20.8631                16.9636                 5.3021

                     76                     77                     78
                      A                      A                      A
 Frequencies --   3141.4817              3157.3492              3172.5269
 Red. masses --      1.1071                 1.1067                 1.0828
 Frc consts  --      6.4375                 6.5001                 6.4209
 IR Inten    --      5.7477                 1.7986                 8.1619

                     79                     80                     81
                      A                      A                      A
 Frequencies --   3198.4143              3220.5882              3230.0651
 Red. masses --      1.0733                 1.0917                 1.0875
 Frc consts  --      6.4690                 6.6713                 6.6850
 IR Inten    --     15.8495                 2.8743                 4.2838

                     82                     83                     84
                      A                      A                      A
 Frequencies --   3267.8850              3326.7947              3604.2318
 Red. masses --      1.0953                 1.1095                 1.0773
 Frc consts  --      6.8915                 7.2349                 8.2454
 IR Inten    --      0.3602                 3.1666                63.2691

 - Thermochemistry -
 -------------------
 Temperature   298.150 Kelvin.  Pressure   1.00000 Atm.
 Atom     1 has atomic number  6 and mass  12.00000

 Molecular mass:   255.06776 amu.
 Principal axes and moments of inertia in atomic units:
                           1         2         3
     Eigenvalues --  2677.318036446.584577549.57549
           X            0.99983  -0.01258  -0.01320
           Y            0.01273   0.99985   0.01169
           Z            0.01305  -0.01186   0.99984
 This molecule is an asymmetric top.
 Rotational symmetry number  1.
 Warning -- assumption of classical behavior for rotation
           may cause significant error
 Rotational temperatures (Kelvin)      0.03235     0.01344     0.01147
 Rotational constants (GHZ):           0.67409     0.27995     0.23905
 Zero-point vibrational energy     613241.8 (Joules/Mol)
                                  146.56832 (Kcal/Mol)
 Warning -- explicit consideration of  24 degrees of freedom as
           vibrations may cause significant error
 Vibrational temperatures:     34.82    54.15    62.78    75.57   111.84
          (Kelvin)            152.68   174.03   189.67   224.99   300.57
                              346.68   369.51   399.83   419.80   434.94
                              523.34   565.09   589.76   608.75   684.80
                              688.83   743.47   786.89   838.84   904.24
                              937.46   972.70   986.70  1017.00  1036.73
                             1046.24  1090.51  1105.66  1139.43  1169.11
                             1220.15  1310.53  1355.37  1384.80  1394.40
                             1397.33  1418.67  1443.03  1456.48  1548.78
                             1616.62  1678.54  1726.12  1739.64  1776.73
                             1785.57  1817.24  1832.09  1924.42  1960.34
                             1979.39  1996.94  2015.80  2021.71  2062.11
                             2075.02  2112.97  2128.17  2148.23  2163.14
                             2195.70  2433.02  2469.46  2556.92  2607.49
                             2624.96  3860.10  4396.30  4445.94  4460.50
                             4519.89  4542.72  4564.56  4601.80  4633.71
                             4647.34  4701.76  4786.52  5185.69

 Zero-point correction=                           0.233571 (Hartree/Particle)
 Thermal correction to Energy=                    0.250286
 Thermal correction to Enthalpy=                  0.251230
 Thermal correction to Gibbs Free Energy=         0.187173
 Sum of electronic and zero-point Energies=          -1176.842489
 Sum of electronic and thermal Energies=             -1176.825775
 Sum of electronic and thermal Enthalpies=           -1176.824830
 Sum of electronic and thermal Free Energies=        -1176.888887

                     E (Thermal)             CV                S
                      KCal/Mol        Cal/Mol-Kelvin    Cal/Mol-Kelvin
 Total                  157.057             61.801            134.818
 Electronic               0.000              0.000              0.000
 Translational            0.889              2.981             42.509
 Rotational               0.889              2.981             33.232
 Vibrational            155.279             55.840             59.077
 Vibration     1          0.593              1.985              6.256
 Vibration     2          0.594              1.982              5.380
 Vibration     3          0.595              1.980              5.087
 Vibration     4          0.596              1.977              4.720
 Vibration     5          0.599              1.964              3.947
 Vibration     6          0.605              1.944              3.339
 Vibration     7          0.609              1.932              3.085
 Vibration     8          0.612              1.922              2.919
 Vibration     9          0.620              1.896              2.593
 Vibration    10          0.642              1.827              2.053
 Vibration    11          0.658              1.778              1.796
 Vibration    12          0.666              1.751              1.683
 Vibration    13          0.679              1.714              1.547
 Vibration    14          0.687              1.689              1.464
 Vibration    15          0.694              1.669              1.404
 Vibration    16          0.737              1.547              1.106
 Vibration    17          0.760              1.486              0.990
 Vibration    18          0.774              1.449              0.927
 Vibration    19          0.785              1.420              0.881
 Vibration    20          0.833              1.303              0.721
 Vibration    21          0.835              1.297              0.713
 Vibration    22          0.872              1.213              0.618
 Vibration    23          0.902              1.146              0.551
 Vibration    24          0.940              1.068              0.480

                           ! Non-Optimized Parameters !
 Normal termination of Gaussian 16 at Fri Dec 11 12:18:12 2020.

 ----------------------------------------------------------------------
 # B3LYP/6-311++G(d,p) empiricaldispersion=gd3bj scf=xqc pop=npa geom=c
 heck
 ----------------------------------------------------------------------

 ---------------------------------------
 CID_149981406_JID_7451_Energie_neutraal
 ---------------------------------------
 Structure from the checkpoint file:  "JID_7451.chk"
 Charge =  0 Multiplicity = 1

 SCF Done:  E(RB3LYP) =  -1177.33508986     A.U. after   15 cycles
 Normal termination of Gaussian 16 at Fri Dec 11 12:22:40 2020.

 ----------------------------------------------------------------------
 # B3LYP/6-311++G(d,p) empiricaldispersion=gd3bj scf=xqc pop=npa geom=c
 heck
 ----------------------------------------------------------------------

 -------------------------------------
 CID_149981406_JID_7451_Energie_kation
 -------------------------------------
 Structure from the checkpoint file:  "JID_7451.chk"
 Charge =  1 Multiplicity = 2

 SCF Done:  E(UB3LYP) =  -1177.02575090     A.U. after   31 cycles
 Normal termination of Gaussian 16 at Fri Dec 11 12:35:53 2020.
 Gaussian 16:  ES64L-G16RevA.03 25-Dec-2016

 ----------------------------------------------------------------------
 # B3LYP/6-311++G(d,p) empiricaldispersion=gd3bj scf=xqc pop=npa geom=c
 heck
 ----------------------------------------------------------------------

 ------------------------------------
 CID_149981406_JID_7451_Energie_anion
 ------------------------------------
 Structure from the checkpoint file:  "JID_7451.chk"
 Charge = -1 Multiplicity = 2

                         Standard orientation:
 ---------------------------------------------------------------------
 Center     Atomic      Atomic             Coordinates (Angstroms)
 Number     Number       Type             X           Y           Z
 ---------------------------------------------------------------------
      1          6           0       -3.142668    2.325253    0.928152
      2          6           0       -2.305543    1.353249    1.301522
      3          7           0       -1.423740    0.565729    0.521189
      4          6           0       -1.050173   -0.704699    1.145096
      5          6           0       -2.220464   -1.692498    1.198835
      6         16           0       -2.846786   -2.175361   -0.460662
      7          6           0       -1.173992    0.852660   -0.810464
      8          8           0       -1.825888    1.661774   -1.448650
      9          6           0       -0.050170    0.105627   -1.552428
     10          7           0        1.215169   -0.069308   -0.839697
     11          6           0        1.843513   -1.295296   -0.775205
     12          6           0        3.024698   -1.488901   -0.151412
     13          6           0        3.706423   -0.369098    0.483401
     14          8           0        4.766965   -0.409477    1.083382
     15          7           0        3.004677    0.846636    0.345125
     16          6           0        1.806013    1.081783   -0.303128
     17          8           0        1.292193    2.181148   -0.399035
     18          1           0       -3.269352    2.635981   -0.096739
     19          1           0       -3.700401    2.838811    1.704773
     20          1           0       -2.225071    1.092084    2.354157
     21          1           0       -0.220794   -1.154019    0.609986
     22          1           0       -0.701587   -0.501604    2.165694
     23          1           0       -1.894214   -2.623233    1.672900
     24          1           0       -3.048275   -1.290248    1.788280
     25          1           0       -3.401786   -0.983037   -0.765558
     26          1           0       -0.408260   -0.885809   -1.841129
     27          1           0        0.108598    0.699862   -2.453948
     28          1           0        1.308180   -2.104294   -1.261042
     29          1           0        3.492170   -2.463043   -0.111889
     30          1           0        3.444652    1.666880    0.747007
 ---------------------------------------------------------------------

 SCF Done:  E(UB3LYP) =  -1177.34391117     A.U. after   33 cycles
 SCF Done:  E(UB3LYP) =  -1177.34391117     a.u. after    1 cycles

 The electronic state is 2-A.
 Alpha  occ. eigenvalues --  -88.75637 -19.00335 -18.98747 -18.95789 -14.26668
 Alpha  occ. eigenvalues --  -14.25694 -14.23481 -10.19863 -10.18903 -10.14119
 Alpha  occ. eigenvalues --  -10.12428 -10.12362 -10.12103 -10.11683 -10.08752
 Alpha  occ. eigenvalues --  -10.06801 -10.03959  -7.84309  -5.80673  -5.80344
 Alpha  occ. eigenvalues --   -5.79702  -0.96348  -0.95501  -0.91207  -0.86456
 Alpha  occ. eigenvalues --   -0.85746  -0.80593  -0.71335  -0.68348  -0.66483
 Alpha  occ. eigenvalues --   -0.63249  -0.61631  -0.56188  -0.54761  -0.53071
 Alpha  occ. eigenvalues --   -0.51798  -0.45425  -0.44395  -0.42868  -0.41168
 Alpha  occ. eigenvalues --   -0.38909  -0.38621  -0.37668  -0.37186  -0.35430
 Alpha  occ. eigenvalues --   -0.34944  -0.33959  -0.32878  -0.32559  -0.32104
 Alpha  occ. eigenvalues --   -0.30601  -0.29754  -0.29196  -0.28939  -0.28358
 Alpha  occ. eigenvalues --   -0.27929  -0.27248  -0.24779  -0.23232  -0.22247
 Alpha  occ. eigenvalues --   -0.18139  -0.17036  -0.16770  -0.15801  -0.14075
 Alpha  occ. eigenvalues --   -0.13764  -0.12162   0.03859
 Alpha virt. eigenvalues --    0.05836   0.07137   0.07823   0.07893   0.08904
 Alpha virt. eigenvalues --    0.09570   0.10204   0.10426   0.10613   0.11147
 Alpha virt. eigenvalues --    0.11639   0.11950   0.12358   0.13009   0.13298

  Beta  occ. eigenvalues --  -88.75631 -19.00336 -18.98744 -18.95578 -14.26662
  Beta  occ. eigenvalues --  -14.25644 -14.23387 -10.19849 -10.18904 -10.13946
  Beta  occ. eigenvalues --  -10.12430 -10.12338 -10.12084 -10.11631 -10.08311
  Beta  occ. eigenvalues --  -10.06799 -10.03873  -7.84303  -5.80654  -5.80340
  Beta  occ. eigenvalues --   -5.79699  -0.96292  -0.95474  -0.90851  -0.86382
  Beta  occ. eigenvalues --   -0.85591  -0.80373  -0.71281  -0.68160  -0.66219
  Beta  occ. eigenvalues --   -0.63085  -0.61553  -0.55784  -0.54575  -0.52974
  Beta  occ. eigenvalues --   -0.51647  -0.45301  -0.44255  -0.42742  -0.41025
  Beta  occ. eigenvalues --   -0.38783  -0.38513  -0.37554  -0.36925  -0.35328
  Beta  occ. eigenvalues --   -0.34905  -0.33811  -0.32733  -0.32347  -0.32015
  Beta  occ. eigenvalues --   -0.30505  -0.29683  -0.29050  -0.28803  -0.28131
  Beta  occ. eigenvalues --   -0.27854  -0.26488  -0.24617  -0.22668  -0.21776
  Beta  occ. eigenvalues --   -0.18088  -0.16936  -0.16100  -0.15766  -0.14039
  Beta  occ. eigenvalues --   -0.13554  -0.10986
  Beta virt. eigenvalues --    0.06402   0.07220   0.07921   0.07983   0.08899
  Beta virt. eigenvalues --    0.09546   0.09684   0.10276   0.10614   0.10856
  Beta virt. eigenvalues --    0.11392   0.11603   0.12119   0.12635   0.13039

 Mulliken charges and spin densities:
               1          2
     1  C   -0.168148  -0.231528
     2  C    0.183252  -0.137679
     3  N    0.198423  -0.005741
     4  C   -0.742092   0.839633
     5  C    0.953979  -1.689886
     6  S   -0.145113   0.155860
     7  C   -0.195152  -0.135129
     8  O   -0.253532   0.001652
     9  C   -0.191690   0.007007
    10  N    0.025536  -0.038739
    11  C   -0.121436   0.404971
    12  C   -0.138933   0.016584
    13  C   -0.128816   0.090704
    14  O   -0.423089   0.071973
    15  N   -0.380696   0.036684
    16  C    0.215305   0.016492
    17  O   -0.318604   0.004548
    18  H    0.160660  -0.007113
    19  H    0.062311   0.074782
    20  H   -0.054318   0.193207
    21  H    0.118897   0.003154
    22  H   -0.093496   0.297764
    23  H   -0.443932   0.695928
    24  H   -0.117531   0.318006
    25  H    0.053336   0.009046
    26  H    0.147154  -0.012035
    27  H    0.239872   0.008898
    28  H    0.092814  -0.008453
    29  H    0.138156   0.023093
    30  H    0.326883  -0.003680
 Sum of Mulliken charges =  -1.00000   1.00000

 Dipole moment (field-independent basis, Debye):
    X=             -4.1269    Y=              0.4734    Z=             -2.1629  Tot=              4.6833
 Quadrupole moment (field-independent basis, Debye-Ang):
   XX=           -181.0705   YY=           -143.1912   ZZ=           -129.1054
   XY=              0.0055   XZ=             -6.0233   YZ=             10.7304

 Summary of Natural Population Analysis:

                                       Natural Population
                Natural  -----------------------------------------------
    Atom  No    Charge         Core      Valence    Rydberg      Total
 -----------------------------------------------------------------------
      C    1   -0.21490      0.99959     2.20798    0.00733     3.21490
      C    2    0.00541      0.99955     1.98231    0.01273     2.99459
      N    3   -0.25926      0.99962     2.74713    0.01252     3.75926
      C    4   -0.09276      0.99958     2.08054    0.01264     3.09276
      C    5   -0.24780      0.99958     2.23810    0.01012     3.24780
      S    6   -0.02658      4.99966     3.01163    0.01529     8.02658
      C    7    0.35215      0.99966     1.62236    0.02583     2.64785
      O    8   -0.30977      0.99987     3.30417    0.00573     4.30977
      C    9   -0.12355      0.99958     2.11308    0.01090     3.12355
      N   10   -0.24389      0.99962     2.73563    0.00864     3.74389
      C   11    0.10394      0.99956     1.88435    0.01215     2.89606
      C   12   -0.17200      0.99952     2.16375    0.00873     3.17200
      C   13    0.34371      0.99965     1.63396    0.02267     2.65629
      O   14   -0.30640      0.99988     3.30059    0.00593     4.30640
      N   15   -0.31371      0.99965     2.80480    0.00925     3.81371
      C   16    0.40987      0.99969     1.56634    0.02410     2.59013
      O   17   -0.32810      0.99987     3.32297    0.00525     4.32810
      H   18    0.11319      0.00000     0.38577    0.00104     0.38681
      H   19    0.09222      0.00000     0.40700    0.00078     0.40778
      H   20    0.09265      0.00000     0.40611    0.00124     0.40735
      H   21    0.11729      0.00000     0.38087    0.00184     0.38271
      H   22    0.10120      0.00000     0.39737    0.00143     0.39880
      H   23    0.11195      0.00000     0.38588    0.00217     0.38805
      H   24    0.10474      0.00000     0.39368    0.00158     0.39526
      H   25    0.06496      0.00000     0.43231    0.00273     0.43504
      H   26    0.11522      0.00000     0.38379    0.00099     0.38478
      H   27    0.11321      0.00000     0.38584    0.00095     0.38679
      H   28    0.09156      0.00000     0.40724    0.00119     0.40844
      H   29    0.10525      0.00000     0.39346    0.00129     0.39475
      H   30    0.20017      0.00000     0.29817    0.00165     0.29983
 =======================================================================
   * Total *    0.00000     20.99413    45.77716    0.22871    67.00000

 Normal termination of Gaussian 16 at Fri Dec 11 12:55:42 2020.
