 Gaussian 16, Revision A.03,

 -----------------------------------------------------------
 # opt freq B3LYP/6-31G(d) empiricaldispersion=gd3bj scf=xqc
 -----------------------------------------------------------

 ------------------------------
 CID_89529742_JID_6097_neutraal
 ------------------------------
 Symbolic Z-matrix:
 Charge =  0 Multiplicity = 1

 SCF Done:  E(RB3LYP) =  -697.250239068     A.U. after   14 cycles
 SCF Done:  E(RB3LYP) =  -697.254332883     A.U. after   12 cycles
 SCF Done:  E(RB3LYP) =  -697.254693936     A.U. after   12 cycles
 SCF Done:  E(RB3LYP) =  -697.254950730     A.U. after   11 cycles
 SCF Done:  E(RB3LYP) =  -697.255047304     A.U. after   10 cycles
 SCF Done:  E(RB3LYP) =  -697.255180280     A.U. after   11 cycles
 SCF Done:  E(RB3LYP) =  -697.255192489     A.U. after   10 cycles
 SCF Done:  E(RB3LYP) =  -697.255178114     A.U. after    9 cycles
 SCF Done:  E(RB3LYP) =  -697.255362980     A.U. after   10 cycles
 SCF Done:  E(RB3LYP) =  -697.255479554     A.U. after   11 cycles
 SCF Done:  E(RB3LYP) =  -697.256197995     A.U. after   10 cycles
 SCF Done:  E(RB3LYP) =  -697.256211023     A.U. after    9 cycles
 SCF Done:  E(RB3LYP) =  -697.256214277     A.U. after    8 cycles
 SCF Done:  E(RB3LYP) =  -697.256214954     A.U. after    7 cycles
 SCF Done:  E(RB3LYP) =  -697.256215076     A.U. after    7 cycles
 Optimization completed.
    -- Stationary point found.
 Normal termination of Gaussian 16 at Thu Dec 10 21:22:01 2020.

 --------------------------------------------------------------------
 #N Geom=AllCheck Guess=TCheck SCRF=Check GenChk RB3LYP/6-31G(d) Freq
 --------------------------------------------------------------------

 Structure from the checkpoint file:  "JID_6097.chk"
 ------------------------------
 CID_89529742_JID_6097_neutraal
 ------------------------------
 Charge =  0 Multiplicity = 1

 SCF Done:  E(RB3LYP) =  -697.256215076     A.U. after    1 cycles

  Exact polarizability: 189.303   7.014 171.291  -1.235   1.721 107.109
 Approx polarizability: 262.450   7.748 249.025  -3.369   4.372 153.628

                      1                      2                      3
                      A                      A                      A
 Frequencies --     31.4128                48.5507                60.5552
 Red. masses --      3.7958                 2.9086                 2.8692
 Frc consts  --      0.0022                 0.0040                 0.0062
 IR Inten    --      0.0978                 0.2606                 0.2143

                      4                      5                      6
                      A                      A                      A
 Frequencies --     67.6325                87.5118               110.2897
 Red. masses --      2.5979                 3.1662                 2.5787
 Frc consts  --      0.0070                 0.0143                 0.0185
 IR Inten    --      0.3745                 0.3514                 1.5857

                      7                      8                      9
                      A                      A                      A
 Frequencies --    124.1461               137.8133               164.6683
 Red. masses --      2.2703                 1.1821                 1.8665
 Frc consts  --      0.0206                 0.0132                 0.0298
 IR Inten    --      1.7875                 0.0480                 0.6861

                     10                     11                     12
                      A                      A                      A
 Frequencies --    177.3120               191.9327               219.1010
 Red. masses --      2.5530                 1.8427                 1.8917
 Frc consts  --      0.0473                 0.0400                 0.0535
 IR Inten    --      0.3874                 4.8242                 0.5164

                     13                     14                     15
                      A                      A                      A
 Frequencies --    224.6781               250.9904               265.3253
 Red. masses --      1.4778                 1.3064                 2.4575
 Frc consts  --      0.0440                 0.0485                 0.1019
 IR Inten    --      1.5196                 2.0049                 5.7873

                     16                     17                     18
                      A                      A                      A
 Frequencies --    286.7220               295.9182               324.5283
 Red. masses --      1.0646                 3.2528                 2.8265
 Frc consts  --      0.0516                 0.1678                 0.1754
 IR Inten    --      0.1143                 1.3717                 0.3096

                     19                     20                     21
                      A                      A                      A
 Frequencies --    335.0349               349.8646               415.8868
 Red. masses --      2.5547                 3.1338                 2.4320
 Frc consts  --      0.1690                 0.2260                 0.2478
 IR Inten    --      1.5966                 0.7072                 1.9961

                     22                     23                     24
                      A                      A                      A
 Frequencies --    426.1539               437.7372               481.3871
 Red. masses --      2.9054                 3.2012                 3.1360
 Frc consts  --      0.3109                 0.3614                 0.4282
 IR Inten    --      1.5788                 2.9151                 2.0724

                     25                     26                     27
                      A                      A                      A
 Frequencies --    520.7167               529.8466               560.1622
 Red. masses --      3.7086                 3.5676                 3.5369
 Frc consts  --      0.5925                 0.5901                 0.6539
 IR Inten    --      3.7315                 4.2080                 1.5761

                     28                     29                     30
                      A                      A                      A
 Frequencies --    642.8439               670.3914               686.0903
 Red. masses --      3.3744                 5.1128                 4.6473
 Frc consts  --      0.8216                 1.3538                 1.2889
 IR Inten    --      2.1283                 9.3730                 0.9304

                     31                     32                     33
                      A                      A                      A
 Frequencies --    749.6575               759.3034               791.7487
 Red. masses --      5.2326                 3.8882                 1.7715
 Frc consts  --      1.7326                 1.3208                 0.6543
 IR Inten    --      1.9993                 1.2428                 4.8469

                     34                     35                     36
                      A                      A                      A
 Frequencies --    815.3350               895.6707               903.5079
 Red. masses --      1.6312                 1.3346                 2.2817
 Frc consts  --      0.6389                 0.6308                 1.0974
 IR Inten    --      5.3711                12.2156                 2.0096

                     37                     38                     39
                      A                      A                      A
 Frequencies --    913.5224               944.3253               952.0842
 Red. masses --      1.4804                 1.1819                 4.3661
 Frc consts  --      0.7279                 0.6210                 2.3318
 IR Inten    --      6.4571                 1.7083                23.7414

                     40                     41                     42
                      A                      A                      A
 Frequencies --    969.7224               979.8050              1030.3463
 Red. masses --      2.3881                 1.4779                 2.4843
 Frc consts  --      1.3231                 0.8359                 1.5539
 IR Inten    --      5.1964                 1.2189                28.1777

                     43                     44                     45
                      A                      A                      A
 Frequencies --   1043.2476              1068.2551              1070.3791
 Red. masses --      1.9322                 1.7528                 2.1417
 Frc consts  --      1.2390                 1.1785                 1.4457
 IR Inten    --     46.7460                50.9623               162.2978

                     46                     47                     48
                      A                      A                      A
 Frequencies --   1093.9095              1096.1964              1120.8395
 Red. masses --      1.9158                 1.8496                 1.7675
 Frc consts  --      1.3507                 1.3095                 1.3083
 IR Inten    --    136.9322                 8.3296                22.6975

                     49                     50                     51
                      A                      A                      A
 Frequencies --   1132.1045              1146.6377              1182.9014
 Red. masses --      2.2726                 2.1664                 1.9482
 Frc consts  --      1.7161                 1.6782                 1.6061
 IR Inten    --     12.1795                26.1330               116.7154

                     52                     53                     54
                      A                      A                      A
 Frequencies --   1184.9499              1193.8791              1224.1092
 Red. masses --      2.2733                 1.6015                 2.1842
 Frc consts  --      1.8807                 1.3449                 1.9283
 IR Inten    --      6.3386                68.1698                50.9474

                     55                     56                     57
                      A                      A                      A
 Frequencies --   1236.5866              1248.3289              1284.7301
 Red. masses --      1.6694                 1.7399                 1.6201
 Frc consts  --      1.5041                 1.5975                 1.5755
 IR Inten    --      4.3083                22.9993                17.3970

                     58                     59                     60
                      A                      A                      A
 Frequencies --   1313.6694              1326.0771              1345.1836
 Red. masses --      2.8255                 1.3921                 1.6047
 Frc consts  --      2.8728                 1.4423                 1.7108
 IR Inten    --     84.3457                 6.1807                 8.7097

                     61                     62                     63
                      A                      A                      A
 Frequencies --   1354.5278              1359.4456              1373.6978
 Red. masses --      1.4389                 1.4736                 1.6130
 Frc consts  --      1.5554                 1.6045                 1.7934
 IR Inten    --      4.9312                 4.3955                17.8464

                     64                     65                     66
                      A                      A                      A
 Frequencies --   1395.9824              1422.8472              1430.7512
 Red. masses --      1.7353                 1.2454                 1.4473
 Frc consts  --      1.9924                 1.4855                 1.7455
 IR Inten    --     17.6543                 2.8909                 7.8340

                     67                     68                     69
                      A                      A                      A
 Frequencies --   1438.8497              1445.5527              1448.3752
 Red. masses --      1.4591                 1.2320                 1.3613
 Frc consts  --      1.7798                 1.5168                 1.6826
 IR Inten    --      6.8984                 1.0575                23.9046

                     70                     71                     72
                      A                      A                      A
 Frequencies --   1464.7808              1500.7778              1514.6778
 Red. masses --      1.6451                 1.1601                 1.0554
 Frc consts  --      2.0796                 1.5395                 1.4266
 IR Inten    --      3.8890                 2.6555                 0.6797

                     73                     74                     75
                      A                      A                      A
 Frequencies --   1515.9131              1517.1913              1519.7337
 Red. masses --      1.0489                 1.0787                 1.0538
 Frc consts  --      1.4201                 1.4630                 1.4340
 IR Inten    --      6.0737                 9.1923                 3.1601

                     76                     77                     78
                      A                      A                      A
 Frequencies --   1521.5884              1525.0856              1527.0437
 Red. masses --      1.0708                 1.0901                 1.0509
 Frc consts  --      1.4607                 1.4938                 1.4438
 IR Inten    --      5.4848                 5.5655                 3.6615

                     79                     80                     81
                      A                      A                      A
 Frequencies --   1530.0371              1537.5796              1539.6274
 Red. masses --      1.1070                 1.0521                 1.0726
 Frc consts  --      1.5269                 1.4655                 1.4981
 IR Inten    --      9.7331                 3.1842                 4.3074

                     82                     83                     84
                      A                      A                      A
 Frequencies --   1540.6808              1543.4386              1558.9018
 Red. masses --      1.0843                 1.0591                 2.6002
 Frc consts  --      1.5165                 1.4864                 3.7231
 IR Inten    --      3.9590                 3.2487                92.4499

                     85                     86                     87
                      A                      A                      A
 Frequencies --   1629.1361              1672.7829              3015.9415
 Red. masses --      7.4580                 6.1312                 1.0435
 Frc consts  --     11.6624                10.1082                 5.5925
 IR Inten    --      6.2917                19.1088                50.0002

                     88                     89                     90
                      A                      A                      A
 Frequencies --   3037.1477              3042.2090              3042.5461
 Red. masses --      1.0590                 1.0393                 1.0366
 Frc consts  --      5.7557                 5.6673                 5.6540
 IR Inten    --     96.6235                34.2544                20.4200

                     91                     92                     93
                      A                      A                      A
 Frequencies --   3046.7474              3048.0933              3048.5267
 Red. masses --      1.0456                 1.0373                 1.0579
 Frc consts  --      5.7188                 5.6779                 5.7928
 IR Inten    --     24.2312                36.3688                37.5019

                     94                     95                     96
                      A                      A                      A
 Frequencies --   3051.3135              3081.6774              3092.2643
 Red. masses --      1.0727                 1.1021                 1.0942
 Frc consts  --      5.8845                 6.1666                 6.1647
 IR Inten    --     16.2502                12.1321                31.6872

                     97                     98                     99
                      A                      A                      A
 Frequencies --   3093.1086              3104.5743              3108.3446
 Red. masses --      1.0987                 1.1025                 1.1078
 Frc consts  --      6.1934                 6.2608                 6.3061
 IR Inten    --     24.3502                 4.1294                26.6586

                    100                    101                    102
                      A                      A                      A
 Frequencies --   3112.4034              3116.2444              3119.4425
 Red. masses --      1.1009                 1.1023                 1.1030
 Frc consts  --      6.2832                 6.3066                 6.3236
 IR Inten    --     82.2954                52.2714                36.0269

                    103                    104                    105
                      A                      A                      A
 Frequencies --   3122.2105              3127.9186              3135.5667
 Red. masses --      1.1030                 1.1007                 1.1005
 Frc consts  --      6.3349                 6.3449                 6.3747
 IR Inten    --     44.7994                13.2863                25.1333

                    106                    107                    108
                      A                      A                      A
 Frequencies --   3154.8427              3190.5156              3227.7431
 Red. masses --      1.1017                 1.0883                 1.0902
 Frc consts  --      6.4608                 6.5269                 6.6923
 IR Inten    --     28.0027                15.7879                 1.4617

 - Thermochemistry -
 -------------------
 Temperature   298.150 Kelvin.  Pressure   1.00000 Atm.
 Atom     1 has atomic number  6 and mass  12.00000

 Molecular mass:   222.16198 amu.
 Principal axes and moments of inertia in atomic units:
                           1         2         3
     Eigenvalues --  3025.404214657.760496854.12816
           X            0.99972   0.02363   0.00142
           Y           -0.02363   0.99972  -0.00044
           Z           -0.00143   0.00040   1.00000
 This molecule is an asymmetric top.
 Rotational symmetry number  1.
 Warning -- assumption of classical behavior for rotation
           may cause significant error
 Rotational temperatures (Kelvin)      0.02863     0.01860     0.01264
 Rotational constants (GHZ):           0.59653     0.38747     0.26331
 Zero-point vibrational energy     885778.5 (Joules/Mol)
                                  211.70615 (Kcal/Mol)
 Warning -- explicit consideration of  27 degrees of freedom as
           vibrations may cause significant error
 Vibrational temperatures:     45.20    69.85    87.13    97.31   125.91
          (Kelvin)            158.68   178.62   198.28   236.92   255.11
                              276.15   315.24   323.26   361.12   381.74
                              412.53   425.76   466.92   482.04   503.38
                              598.37   613.14   629.81   692.61   749.20
                              762.33   805.95   924.91   964.54   987.13
                             1078.59  1092.47  1139.15  1173.09  1288.67
                             1299.95  1314.36  1358.67  1369.84  1395.21
                             1409.72  1482.44  1501.00  1536.98  1540.04
                             1573.89  1577.18  1612.64  1628.85  1649.76
                             1701.93  1704.88  1717.73  1761.22  1779.17
                             1796.07  1848.44  1890.08  1907.93  1935.42
                             1948.86  1955.94  1976.44  2008.51  2047.16
                             2058.53  2070.18  2079.83  2083.89  2107.49
                             2159.28  2179.28  2181.06  2182.90  2186.56
                             2189.23  2194.26  2197.08  2201.38  2212.23
                             2215.18  2216.70  2220.66  2242.91  2343.96
                             2406.76  4339.27  4369.78  4377.06  4377.55
                             4383.59  4385.53  4386.15  4390.16  4433.85
                             4449.08  4450.29  4466.79  4472.21  4478.05
                             4483.58  4488.18  4492.16  4500.38  4511.38
                             4539.11  4590.44  4644.00

 Zero-point correction=                           0.337375 (Hartree/Particle)
 Thermal correction to Energy=                    0.355398
 Thermal correction to Enthalpy=                  0.356342
 Thermal correction to Gibbs Free Energy=         0.291164
 Sum of electronic and zero-point Energies=           -696.918840
 Sum of electronic and thermal Energies=              -696.900817
 Sum of electronic and thermal Enthalpies=            -696.899873
 Sum of electronic and thermal Free Energies=         -696.965051

                     E (Thermal)             CV                S
                      KCal/Mol        Cal/Mol-Kelvin    Cal/Mol-Kelvin
 Total                  223.015             66.581            137.178
 Electronic               0.000              0.000              0.000
 Translational            0.889              2.981             42.097
 Rotational               0.889              2.981             32.935
 Vibrational            221.238             60.619             62.146
 Vibration     1          0.594              1.983              5.738
 Vibration     2          0.595              1.978              4.876
 Vibration     3          0.597              1.973              4.439
 Vibration     4          0.598              1.970              4.221
 Vibration     5          0.601              1.958              3.715
 Vibration     6          0.606              1.941              3.264
 Vibration     7          0.610              1.929              3.035
 Vibration     8          0.614              1.916              2.834
 Vibration     9          0.623              1.886              2.495
 Vibration    10          0.628              1.870              2.357
 Vibration    11          0.634              1.851              2.209
 Vibration    12          0.647              1.812              1.967
 Vibration    13          0.649              1.803              1.921
 Vibration    14          0.663              1.761              1.724
 Vibration    15          0.671              1.737              1.626
 Vibration    16          0.684              1.698              1.493
 Vibration    17          0.690              1.681              1.440
 Vibration    18          0.709              1.626              1.287
 Vibration    19          0.716              1.606              1.236
 Vibration    20          0.727              1.576              1.167
 Vibration    21          0.779              1.436              0.906
 Vibration    22          0.788              1.413              0.871
 Vibration    23          0.798              1.388              0.834
 Vibration    24          0.838              1.291              0.706
 Vibration    25          0.876              1.204              0.608
 Vibration    26          0.885              1.184              0.588
 Vibration    27          0.916              1.118              0.524

                           ! Non-Optimized Parameters !
 Normal termination of Gaussian 16 at Thu Dec 10 21:34:36 2020.

 ----------------------------------------------------------------------
 # B3LYP/6-311++G(d,p) empiricaldispersion=gd3bj scf=xqc pop=npa geom=c
 heck
 ----------------------------------------------------------------------

 --------------------------------------
 CID_89529742_JID_6097_Energie_neutraal
 --------------------------------------
 Structure from the checkpoint file:  "JID_6097.chk"
 Charge =  0 Multiplicity = 1

 SCF Done:  E(RB3LYP) =  -697.446158030     A.U. after   14 cycles
 Normal termination of Gaussian 16 at Thu Dec 10 21:40:21 2020.

 ----------------------------------------------------------------------
 # B3LYP/6-311++G(d,p) empiricaldispersion=gd3bj scf=xqc pop=npa geom=c
 heck
 ----------------------------------------------------------------------

 ------------------------------------
 CID_89529742_JID_6097_Energie_kation
 ------------------------------------
 Structure from the checkpoint file:  "JID_6097.chk"
 Charge =  1 Multiplicity = 2

 SCF Done:  E(UB3LYP) =  -697.167872820     A.U. after   20 cycles
 Normal termination of Gaussian 16 at Thu Dec 10 21:52:48 2020.
 Gaussian 16:  ES64L-G16RevA.03 25-Dec-2016

 ----------------------------------------------------------------------
 # B3LYP/6-311++G(d,p) empiricaldispersion=gd3bj scf=xqc pop=npa geom=c
 heck
 ----------------------------------------------------------------------

 -----------------------------------
 CID_89529742_JID_6097_Energie_anion
 -----------------------------------
 Structure from the checkpoint file:  "JID_6097.chk"
 Charge = -1 Multiplicity = 2

                         Standard orientation:
 ---------------------------------------------------------------------
 Center     Atomic      Atomic             Coordinates (Angstroms)
 Number     Number       Type             X           Y           Z
 ---------------------------------------------------------------------
      1          6           0       -4.078652   -0.627179    1.271791
      2          6           0       -3.583848   -0.488023   -0.178060
      3          6           0       -2.078871   -0.360639   -0.266820
      4          6           0       -1.495808    0.911583   -0.233710
      5          6           0       -0.117597    1.123334   -0.269082
      6          6           0        0.698952   -0.018607   -0.337723
      7          6           0        0.146964   -1.299104   -0.361813
      8          6           0       -1.239898   -1.485335   -0.331436
      9          6           0       -1.796437   -2.889512   -0.369691
     10          8           0        2.061701    0.215530   -0.370143
     11          6           0        2.911671   -0.796351   -0.869331
     12          8           0        3.117348   -1.861782    0.010029
     13          6           0        3.713255   -1.472790    1.240500
     14          6           0        0.514349    2.504302   -0.211056
     15          6           0       -0.422338    3.631415   -0.660418
     16          6           0        1.059748    2.784460    1.202741
     17          1           0       -3.646445   -1.510317    1.754953
     18          1           0       -5.170338   -0.717865    1.311550
     19          1           0       -3.785324    0.247078    1.863259
     20          1           0       -4.047745    0.398396   -0.627996
     21          1           0       -3.931411   -1.347240   -0.763462
     22          1           0       -2.156723    1.772628   -0.189507
     23          1           0        0.800515   -2.163223   -0.371390
     24          1           0       -2.411741   -3.056400   -1.263054
     25          1           0       -0.989870   -3.628432   -0.381148
     26          1           0       -2.432189   -3.103526    0.497406
     27          1           0        2.493192   -1.234520   -1.781289
     28          1           0        3.854919   -0.274481   -1.080160
     29          1           0        4.663965   -0.945182    1.070047
     30          1           0        3.047456   -0.824117    1.821073
     31          1           0        3.905709   -2.391732    1.797813
     32          1           0        1.374138    2.489716   -0.891976
     33          1           0       -1.251540    3.774323    0.042558
     34          1           0        0.127750    4.577623   -0.709002
     35          1           0       -0.848016    3.432539   -1.650003
     36          1           0        1.779625    2.017357    1.501731
     37          1           0        1.560257    3.759641    1.240291
     38          1           0        0.242485    2.792430    1.933867
 ---------------------------------------------------------------------

 SCF Done:  E(UB3LYP) =  -697.430830465     A.U. after   33 cycles
 SCF Done:  E(UB3LYP) =  -697.430830465     a.u. after    1 cycles

 The electronic state is 2-A.
 Alpha  occ. eigenvalues --  -19.06043 -19.04821 -10.18319 -10.13392 -10.12243
 Alpha  occ. eigenvalues --  -10.08561 -10.08343 -10.07970 -10.07705 -10.07679
 Alpha  occ. eigenvalues --  -10.07433 -10.07234 -10.07179 -10.06785 -10.06683
 Alpha  occ. eigenvalues --  -10.06145  -0.99831  -0.94066  -0.76889  -0.71823
 Alpha  occ. eigenvalues --   -0.68738  -0.66425  -0.64667  -0.62433  -0.59488
 Alpha  occ. eigenvalues --   -0.58940  -0.56620  -0.52568  -0.51678  -0.48988
 Alpha  occ. eigenvalues --   -0.46238  -0.43358  -0.42142  -0.41699  -0.38849
 Alpha  occ. eigenvalues --   -0.37497  -0.35581  -0.34870  -0.34143  -0.34018
 Alpha  occ. eigenvalues --   -0.33520  -0.32761  -0.32349  -0.31659  -0.30793
 Alpha  occ. eigenvalues --   -0.30375  -0.29250  -0.28435  -0.28039  -0.27612
 Alpha  occ. eigenvalues --   -0.27098  -0.25563  -0.24900  -0.24689  -0.23698
 Alpha  occ. eigenvalues --   -0.23382  -0.22384  -0.21724  -0.19244  -0.14952
 Alpha  occ. eigenvalues --   -0.12499   0.04183
 Alpha virt. eigenvalues --    0.05646   0.06330   0.07156   0.07582   0.08045
 Alpha virt. eigenvalues --    0.08227   0.08768   0.08910   0.09521   0.09613
 Alpha virt. eigenvalues --    0.10003   0.10522   0.10960   0.11215   0.11781

  Beta  occ. eigenvalues --  -19.06040 -19.04814 -10.18301 -10.13392 -10.12205
  Beta  occ. eigenvalues --  -10.08560 -10.08337 -10.07970 -10.07699 -10.07671
  Beta  occ. eigenvalues --  -10.07409 -10.07222 -10.07176 -10.06759 -10.06663
  Beta  occ. eigenvalues --  -10.06126  -0.99820  -0.94053  -0.76880  -0.71808
  Beta  occ. eigenvalues --   -0.68719  -0.66403  -0.64634  -0.62401  -0.59454
  Beta  occ. eigenvalues --   -0.58903  -0.56573  -0.52513  -0.51643  -0.48954
  Beta  occ. eigenvalues --   -0.46207  -0.43332  -0.42122  -0.41674  -0.38825
  Beta  occ. eigenvalues --   -0.37475  -0.35556  -0.34843  -0.34116  -0.33984
  Beta  occ. eigenvalues --   -0.33494  -0.32737  -0.32328  -0.31631  -0.30765
  Beta  occ. eigenvalues --   -0.30349  -0.29229  -0.28396  -0.28013  -0.27586
  Beta  occ. eigenvalues --   -0.27074  -0.25540  -0.24878  -0.24664  -0.23671
  Beta  occ. eigenvalues --   -0.23360  -0.22363  -0.21703  -0.19222  -0.14933
  Beta  occ. eigenvalues --   -0.12489
  Beta virt. eigenvalues --    0.06047   0.06567   0.06894   0.07498   0.08087
  Beta virt. eigenvalues --    0.08348   0.08513   0.09002   0.09142   0.09786
  Beta virt. eigenvalues --    0.09882   0.10190   0.10825   0.11338   0.11449

 Mulliken charges and spin densities:
               1          2
     1  C    0.635218  -1.276037
     2  C   -1.379114   1.090117
     3  C    0.018186   0.587948
     4  C   -0.960910   0.025296
     5  C    1.665460  -1.150854
     6  C   -0.051261  -0.339218
     7  C    0.460330  -0.602477
     8  C   -0.839375   0.996520
     9  C    1.455963  -1.983071
    10  O   -0.068808   0.017004
    11  C    0.252710  -0.394482
    12  O   -0.125852   0.048781
    13  C    0.585841  -0.890152
    14  C   -1.463995   1.583988
    15  C    0.192161  -0.731484
    16  C    0.259642  -0.914263
    17  H   -0.063741   0.185057
    18  H   -0.311720   0.437967
    19  H   -0.080969   0.222411
    20  H   -0.305676   0.462091
    21  H   -0.135796   0.282267
    22  H    0.375892  -0.220608
    23  H    0.398848  -0.221946
    24  H   -0.056274   0.216803
    25  H   -0.127734   0.271286
    26  H   -0.070950   0.227107
    27  H    0.053231   0.119826
    28  H   -0.382894   0.537565
    29  H   -0.322912   0.459809
    30  H   -0.057314   0.214775
    31  H   -0.259310   0.409966
    32  H    0.046925   0.145334
    33  H   -0.068767   0.202489
    34  H   -0.169381   0.333078
    35  H   -0.077458   0.207922
    36  H    0.152202   0.000303
    37  H   -0.137744   0.268691
    38  H   -0.034653   0.170192
 Sum of Mulliken charges =  -1.00000   1.00000

 Dipole moment (field-independent basis, Debye):
    X=             -0.0464    Y=             -0.0795    Z=             -1.6924  Tot=              1.6949
 Quadrupole moment (field-independent basis, Debye-Ang):
   XX=           -191.0072   YY=           -157.8586   ZZ=           -132.7695
   XY=             -3.2010   XZ=             -2.5990   YZ=              2.4179

 Summary of Natural Population Analysis:

                                       Natural Population
                Natural  -----------------------------------------------
    Atom  No    Charge         Core      Valence    Rydberg      Total
 -----------------------------------------------------------------------
      C    1   -0.27860      0.99966     2.27452    0.00442     3.27860
      C    2   -0.19836      0.99961     2.18945    0.00929     3.19836
      C    3   -0.02233      0.99947     2.01298    0.00987     3.02233
      C    4   -0.09104      0.99947     2.08387    0.00769     3.09104
      C    5   -0.02794      0.99946     2.01819    0.01029     3.02794
      C    6    0.16037      0.99931     1.82844    0.01188     2.83963
      C    7   -0.13456      0.99947     2.12719    0.00789     3.13456
      C    8   -0.01008      0.99948     2.00192    0.00869     3.01008
      C    9   -0.29285      0.99964     2.28843    0.00478     3.29285
      O   10   -0.28764      0.99986     3.27831    0.00948     4.28764
      C   11    0.14355      0.99960     1.83895    0.01790     2.85645
      O   12   -0.29831      0.99989     3.28906    0.00936     4.29831
      C   13   -0.10322      0.99961     2.09388    0.00973     3.10322
      C   14   -0.12274      0.99958     2.11145    0.01170     3.12274
      C   15   -0.28318      0.99966     2.27857    0.00496     3.28318
      C   16   -0.27745      0.99964     2.27297    0.00484     3.27745
      H   17    0.09596      0.00000     0.40266    0.00138     0.40404
      H   18    0.09667      0.00000     0.40191    0.00143     0.40333
      H   19    0.09707      0.00000     0.40150    0.00143     0.40293
      H   20    0.09904      0.00000     0.39969    0.00128     0.40096
      H   21    0.09983      0.00000     0.39871    0.00145     0.40017
      H   22    0.10022      0.00000     0.39841    0.00137     0.39978
      H   23    0.11079      0.00000     0.38743    0.00178     0.38921
      H   24    0.10292      0.00000     0.39550    0.00158     0.39708
      H   25    0.10204      0.00000     0.39688    0.00108     0.39796
      H   26    0.10383      0.00000     0.39469    0.00148     0.39617
      H   27    0.08123      0.00000     0.41722    0.00156     0.41877
      H   28    0.07865      0.00000     0.41975    0.00160     0.42135
      H   29    0.08170      0.00000     0.41625    0.00205     0.41830
      H   30    0.08735      0.00000     0.41118    0.00147     0.41265
      H   31    0.09120      0.00000     0.40752    0.00128     0.40880
      H   32    0.10390      0.00000     0.39381    0.00229     0.39610
      H   33    0.09547      0.00000     0.40331    0.00122     0.40453
      H   34    0.09974      0.00000     0.39929    0.00097     0.40026
      H   35    0.10080      0.00000     0.39804    0.00116     0.39920
      H   36    0.10507      0.00000     0.39339    0.00154     0.39493
      H   37    0.09571      0.00000     0.40321    0.00107     0.40429
      H   38    0.09519      0.00000     0.40366    0.00115     0.40481
 =======================================================================
   * Total *   -0.00000     15.99341    44.83220    0.17439    61.00000

 Normal termination of Gaussian 16 at Thu Dec 10 22:14:39 2020.
