 Gaussian 16, Revision A.03,

 -----------------------------------------------------------
 # opt freq B3LYP/6-31G(d) empiricaldispersion=gd3bj scf=xqc
 -----------------------------------------------------------

 ------------------------------
 CID_57047889_JID_1270_neutraal
 ------------------------------
 Symbolic Z-matrix:
 Charge =  0 Multiplicity = 1

 SCF Done:  E(RB3LYP) =  -894.230877353     A.U. after   15 cycles
 SCF Done:  E(RB3LYP) =  -894.233958077     A.U. after   12 cycles
 SCF Done:  E(RB3LYP) =  -894.234108534     A.U. after   11 cycles
 SCF Done:  E(RB3LYP) =  -894.234125688     A.U. after    9 cycles
 SCF Done:  E(RB3LYP) =  -894.234125727     A.U. after    9 cycles
 SCF Done:  E(RB3LYP) =  -894.234127409     A.U. after    8 cycles
 Optimization completed.
    -- Stationary point found.
 Normal termination of Gaussian 16 at Tue Dec  8 19:32:08 2020.

 --------------------------------------------------------------------
 #N Geom=AllCheck Guess=TCheck SCRF=Check GenChk RB3LYP/6-31G(d) Freq
 --------------------------------------------------------------------

 Structure from the checkpoint file:  "JID_1270.chk"
 ------------------------------
 CID_57047889_JID_1270_neutraal
 ------------------------------
 Charge =  0 Multiplicity = 1

 SCF Done:  E(RB3LYP) =  -894.234127409     A.U. after    1 cycles

  Exact polarizability: 182.627   3.824  98.813  -0.000  -0.001  38.914
 Approx polarizability: 281.365  12.836 181.571  -0.000  -0.004  60.754

                      1                      2                      3
                      A                      A                      A
 Frequencies --     62.0304                71.6165               113.8292
 Red. masses --      5.4760                 9.5749                 7.8147
 Frc consts  --      0.0124                 0.0289                 0.0597
 IR Inten    --      0.1414                 0.5438                 0.7717

                      4                      5                      6
                      A                      A                      A
 Frequencies --    126.2545               222.5773               283.6319
 Red. masses --      7.2415                 8.5087                 5.4189
 Frc consts  --      0.0680                 0.2484                 0.2568
 IR Inten    --      0.0046                 1.7989                 0.2159

                      7                      8                      9
                      A                      A                      A
 Frequencies --    320.7936               377.1110               454.7305
 Red. masses --      5.6101                 7.8291                 4.6203
 Frc consts  --      0.3402                 0.6560                 0.5629
 IR Inten    --      2.3875                11.5613                 2.0794

                     10                     11                     12
                      A                      A                      A
 Frequencies --    503.0050               504.9398               565.3119
 Red. masses --      2.6487                 6.9025                 1.1528
 Frc consts  --      0.3948                 1.0369                 0.2171
 IR Inten    --      5.7372                42.7044               110.5662

                     13                     14                     15
                      A                      A                      A
 Frequencies --    597.3056               606.5164               658.2581
 Red. masses --      1.5364                 9.2702                 2.2646
 Frc consts  --      0.3230                 2.0092                 0.5781
 IR Inten    --     83.3901                 6.2706                13.1111

                     16                     17                     18
                      A                      A                      A
 Frequencies --    669.5692               691.7713               720.8109
 Red. masses --      5.0498                 1.2654                 6.2318
 Frc consts  --      1.3339                 0.3568                 1.9077
 IR Inten    --     20.1526                 1.7864                 2.8999

                     19                     20                     21
                      A                      A                      A
 Frequencies --    749.2470               805.0726               843.7159
 Red. masses --      4.7914                 1.3896                 5.1198
 Frc consts  --      1.5848                 0.5307                 2.1473
 IR Inten    --     42.7710                67.5211                 8.7724

                     22                     23                     24
                      A                      A                      A
 Frequencies --    874.8827               875.0403               902.3413
 Red. masses --      1.2934                 5.5163                 1.3829
 Frc consts  --      0.5833                 2.4886                 0.6634
 IR Inten    --     12.8072                40.6293                 8.7933

                     25                     26                     27
                      A                      A                      A
 Frequencies --    903.1300               988.2523              1120.2493
 Red. masses --      4.7409                 3.0608                 1.1010
 Frc consts  --      2.2783                 1.7612                 0.8141
 IR Inten    --      7.5857                19.8429                 8.1646

                     28                     29                     30
                      A                      A                      A
 Frequencies --   1141.5950              1196.8999              1212.5063
 Red. masses --      2.7309                 1.8333                 1.7803
 Frc consts  --      2.0969                 1.5474                 1.5421
 IR Inten    --     56.1685               446.9063                26.3675

                     31                     32                     33
                      A                      A                      A
 Frequencies --   1252.9796              1360.5293              1382.8991
 Red. masses --      1.4238                 1.4029                 2.0159
 Frc consts  --      1.3170                 1.5300                 2.2714
 IR Inten    --     39.7799               145.8868                55.7104

                     34                     35                     36
                      A                      A                      A
 Frequencies --   1449.6931              1461.6157              1480.3780
 Red. masses --      2.5041                 3.9329                 5.0039
 Frc consts  --      3.1007                 4.9503                 6.4611
 IR Inten    --     14.9308               351.8246                13.9520

                     37                     38                     39
                      A                      A                      A
 Frequencies --   1584.0222              1731.2580              1782.4004
 Red. masses --      5.7345                 6.3371                 9.1474
 Frc consts  --      8.4775                11.1908                17.1222
 IR Inten    --     23.0130                49.4669               456.0888

                     40                     41                     42
                      A                      A                      A
 Frequencies --   3217.3697              3227.0983              3275.5548
 Red. masses --      1.0912                 1.0891                 1.0968
 Frc consts  --      6.6550                 6.6825                 6.9335
 IR Inten    --      4.7343                 2.7523                 0.8921

                     43                     44                     45
                      A                      A                      A
 Frequencies --   3309.8055              3604.3907              3702.2636
 Red. masses --      1.0933                 1.0642                 1.0643
 Frc consts  --      7.0566                 8.1460                 8.5953
 IR Inten    --      5.5501               189.6717               110.6802

 - Thermochemistry -
 -------------------
 Temperature   298.150 Kelvin.  Pressure   1.00000 Atm.
 Atom     1 has atomic number  6 and mass  12.00000

 Molecular mass:   170.00377 amu.
 Principal axes and moments of inertia in atomic units:
                           1         2         3
     Eigenvalues --   623.575204065.884044689.45922
           X            0.99998   0.00554  -0.00000
           Y           -0.00554   0.99998   0.00000
           Z            0.00000  -0.00000   1.00000
 This molecule is an asymmetric top.
 Rotational symmetry number  1.
 Warning -- assumption of classical behavior for rotation
           may cause significant error
 Rotational temperatures (Kelvin)      0.13890     0.02130     0.01847
 Rotational constants (GHZ):           2.89418     0.44387     0.38485
 Zero-point vibrational energy     316922.2 (Joules/Mol)
                                   75.74622 (Kcal/Mol)
 Warning -- explicit consideration of  14 degrees of freedom as
           vibrations may cause significant error
 Vibrational temperatures:     89.25   103.04   163.77   181.65   320.24
          (Kelvin)            408.08   461.55   542.58   654.26   723.71
                              726.50   813.36   859.39   872.64   947.09
                              963.36   995.30  1037.09  1078.00  1158.32
                             1213.92  1258.76  1258.99  1298.27  1299.40
                             1421.87  1611.79  1642.50  1722.07  1744.53
                             1802.76  1957.50  1989.68  2085.79  2102.94
                             2129.93  2279.05  2490.89  2564.48  4629.08
                             4643.07  4712.79  4762.07  5185.91  5326.73

 Zero-point correction=                           0.120709 (Hartree/Particle)
 Thermal correction to Energy=                    0.130541
 Thermal correction to Enthalpy=                  0.131485
 Thermal correction to Gibbs Free Energy=         0.084406
 Sum of electronic and zero-point Energies=           -894.113418
 Sum of electronic and thermal Energies=              -894.103587
 Sum of electronic and thermal Enthalpies=            -894.102642
 Sum of electronic and thermal Free Energies=         -894.149722

                     E (Thermal)             CV                S
                      KCal/Mol        Cal/Mol-Kelvin    Cal/Mol-Kelvin
 Total                   81.916             36.964             99.087
 Electronic               0.000              0.000              0.000
 Translational            0.889              2.981             41.300
 Rotational               0.889              2.981             30.853
 Vibrational             80.138             31.002             26.933
 Vibration     1          0.597              1.972              4.392
 Vibration     2          0.598              1.968              4.108
 Vibration     3          0.607              1.938              3.203
 Vibration     4          0.611              1.927              3.002
 Vibration     5          0.648              1.807              1.938
 Vibration     6          0.682              1.704              1.512
 Vibration     7          0.706              1.634              1.306
 Vibration     8          0.748              1.519              1.051
 Vibration     9          0.813              1.350              0.782
 Vibration    10          0.858              1.243              0.651
 Vibration    11          0.860              1.239              0.646
 Vibration    12          0.921              1.106              0.513
 Vibration    13          0.955              1.038              0.454
 Vibration    14          0.965              1.018              0.439

 Optimization completed.
    -- Stationary point found.
 Normal termination of Gaussian 16 at Tue Dec  8 19:34:45 2020.

 ----------------------------------------------------------------------
 # B3LYP/6-311++G(d,p) empiricaldispersion=gd3bj scf=xqc pop=npa geom=c
 heck
 ----------------------------------------------------------------------

 --------------------------------------
 CID_57047889_JID_1270_Energie_neutraal
 --------------------------------------
 Structure from the checkpoint file:  "JID_1270.chk"
 Charge =  0 Multiplicity = 1

 SCF Done:  E(RB3LYP) =  -894.419564036     A.U. after   15 cycles
 Normal termination of Gaussian 16 at Tue Dec  8 19:35:37 2020.

 ----------------------------------------------------------------------
 # B3LYP/6-311++G(d,p) empiricaldispersion=gd3bj scf=xqc pop=npa geom=c
 heck
 ----------------------------------------------------------------------

 ------------------------------------
 CID_57047889_JID_1270_Energie_kation
 ------------------------------------
 Structure from the checkpoint file:  "JID_1270.chk"
 Charge =  1 Multiplicity = 2

 SCF Done:  E(UB3LYP) =  -894.126047725     A.U. after   22 cycles
 Normal termination of Gaussian 16 at Tue Dec  8 19:37:22 2020.
 Gaussian 16:  ES64L-G16RevA.03 25-Dec-2016

 ----------------------------------------------------------------------
 # B3LYP/6-311++G(d,p) empiricaldispersion=gd3bj scf=xqc pop=npa geom=c
 heck
 ----------------------------------------------------------------------

 -----------------------------------
 CID_57047889_JID_1270_Energie_anion
 -----------------------------------
 Structure from the checkpoint file:  "JID_1270.chk"
 Charge = -1 Multiplicity = 2

                         Standard orientation:
 ---------------------------------------------------------------------
 Center     Atomic      Atomic             Coordinates (Angstroms)
 Number     Number       Type             X           Y           Z
 ---------------------------------------------------------------------
      1          6           0        1.888126    1.465480   -0.000024
      2          6           0        3.174105    1.016529    0.000017
      3         16           0        3.238359   -0.721520    0.000067
      4          6           0        1.516225   -0.837545    0.000009
      5          6           0        0.911003    0.405703   -0.000041
      6          6           0       -0.512130    0.671343   -0.000093
      7          6           0       -1.507473   -0.242822   -0.000122
      8          6           0       -2.940427    0.102581   -0.000205
      9          8           0       -3.801295   -0.766627    0.000204
     10          8           0       -3.224766    1.420073    0.000088
     11          8           0       -1.290211   -1.585674   -0.000083
     12          1           0        1.619344    2.516563   -0.000053
     13          1           0        4.087508    1.594936    0.000031
     14          1           0        1.028190   -1.799467    0.000011
     15          1           0       -0.817940    1.711313   -0.000118
     16          1           0       -4.197346    1.485681    0.000317
     17          1           0       -2.179900   -1.994488   -0.000188
 ---------------------------------------------------------------------

 SCF Done:  E(UB3LYP) =  -894.432800969     A.U. after   22 cycles

 The electronic state is 2-A.
 Alpha  occ. eigenvalues --  -88.72756 -19.01744 -18.98779 -18.94213 -10.11662
 Alpha  occ. eigenvalues --  -10.05912 -10.05419 -10.03911 -10.02808 -10.02448
 Alpha  occ. eigenvalues --   -9.99701  -7.81410  -5.77700  -5.77331  -5.77040
 Alpha  occ. eigenvalues --   -0.95500  -0.90369  -0.85376  -0.73480  -0.63224
 Alpha  occ. eigenvalues --   -0.58885  -0.57150  -0.49666  -0.44364  -0.42244
 Alpha  occ. eigenvalues --   -0.39580  -0.39030  -0.35943  -0.32926  -0.30464
 Alpha  occ. eigenvalues --   -0.28641  -0.26764  -0.26113  -0.25217  -0.24542
 Alpha  occ. eigenvalues --   -0.23154  -0.22687  -0.20636  -0.19528  -0.17647
 Alpha  occ. eigenvalues --   -0.13833  -0.13274  -0.10856  -0.06147   0.05020
 Alpha virt. eigenvalues --    0.08992   0.09609   0.11433   0.11612   0.12346
 Alpha virt. eigenvalues --    0.13121   0.14590   0.15336   0.15625   0.16058
 Alpha virt. eigenvalues --    0.16874   0.17208   0.18697   0.18885   0.19391

  Beta  occ. eigenvalues --  -88.72716 -19.01661 -18.98693 -18.93840 -10.11288
  Beta  occ. eigenvalues --  -10.05934 -10.05261 -10.03912 -10.02869 -10.01999
  Beta  occ. eigenvalues --   -9.99414  -7.81374  -5.77683  -5.77318  -5.76904
  Beta  occ. eigenvalues --   -0.95114  -0.90164  -0.84819  -0.73281  -0.62750
  Beta  occ. eigenvalues --   -0.58615  -0.56660  -0.48985  -0.43936  -0.42088
  Beta  occ. eigenvalues --   -0.39341  -0.38780  -0.35708  -0.32578  -0.28851
  Beta  occ. eigenvalues --   -0.28419  -0.26574  -0.25942  -0.24980  -0.23881
  Beta  occ. eigenvalues --   -0.23036  -0.22064  -0.20397  -0.19247  -0.16038
  Beta  occ. eigenvalues --   -0.12909  -0.12886  -0.09965  -0.04326
  Beta virt. eigenvalues --    0.08981   0.09615   0.11409   0.11430   0.11596
  Beta virt. eigenvalues --    0.13116   0.13566   0.14633   0.15355   0.15625
  Beta virt. eigenvalues --    0.16069   0.16907   0.17397   0.18720   0.18948

 Mulliken charges and spin densities:
               1          2
     1  C   -0.725412  -0.002539
     2  C   -0.051602  -0.016837
     3  S   -0.664923   0.070687
     4  C    0.516579   0.326680
     5  C    0.181161  -0.038150
     6  C   -0.352874   0.267380
     7  C   -0.041203   0.012917
     8  C   -0.138980   0.258897
     9  O   -0.483444   0.125434
    10  O   -0.254152   0.018411
    11  O   -0.270447   0.015909
    12  H    0.089048   0.000523
    13  H    0.199227   0.001145
    14  H    0.293553  -0.019368
    15  H    0.179192  -0.017544
    16  H    0.257798  -0.000781
    17  H    0.266480  -0.002764
 Sum of Mulliken charges =  -1.00000   1.00000

 Dipole moment (field-independent basis, Debye):
    X=              1.9238    Y=              1.9260    Z=             -0.0004  Tot=              2.7222
 Quadrupole moment (field-independent basis, Debye-Ang):
   XX=           -108.9859   YY=            -76.8409   ZZ=            -80.1627
   XY=             -3.0943   XZ=              0.0015   YZ=              0.0008

 Summary of Natural Population Analysis:

                                       Natural Population
                Natural  -----------------------------------------------
    Atom  No    Charge         Core      Valence    Rydberg      Total
 -----------------------------------------------------------------------
      C    1   -0.11508      0.99950     2.10622    0.00935     3.11508
      C    2   -0.22569      0.99955     2.21408    0.01207     3.22569
      S    3    0.18429      4.99946     2.79048    0.02578     7.81571
      C    4   -0.09761      0.99950     2.08705    0.01105     3.09761
      C    5   -0.07807      0.99951     2.06850    0.01006     3.07807
      C    6   -0.07406      0.99949     2.06486    0.00971     3.07406
      C    7    0.13154      0.99938     1.85588    0.01320     2.86846
      C    8    0.41863      0.99967     1.55873    0.02298     2.58137
      O    9   -0.32166      0.99987     3.31407    0.00772     4.32166
      O   10   -0.34646      0.99987     3.34054    0.00604     4.34646
      O   11   -0.35306      0.99988     3.34440    0.00878     4.35306
      H   12    0.09811      0.00000     0.40079    0.00109     0.40189
      H   13    0.09910      0.00000     0.39988    0.00102     0.40090
      H   14    0.11294      0.00000     0.38604    0.00102     0.38706
      H   15    0.09928      0.00000     0.39932    0.00140     0.40072
      H   16    0.22648      0.00000     0.26792    0.00559     0.27352
      H   17    0.24131      0.00000     0.25594    0.00275     0.25869
 =======================================================================
   * Total *    0.00000     14.99568    28.85470    0.14962    44.00000

 Normal termination of Gaussian 16 at Tue Dec  8 19:39:16 2020.
