 Gaussian 16, Revision A.03,

 -----------------------------------------------------------
 # opt freq B3LYP/6-31G(d) empiricaldispersion=gd3bj scf=xqc
 -----------------------------------------------------------

 ------------------------------
 CID_80813526_JID_7631_neutraal
 ------------------------------
 Symbolic Z-matrix:
 Charge =  0 Multiplicity = 1

 SCF Done:  E(RB3LYP) =  -793.234009517     A.U. after   14 cycles
 SCF Done:  E(RB3LYP) =  -793.241869694     A.U. after   13 cycles
 SCF Done:  E(RB3LYP) =  -793.244382589     A.U. after   13 cycles
 SCF Done:  E(RB3LYP) =  -793.246792907     A.U. after   13 cycles
 SCF Done:  E(RB3LYP) =  -793.248249202     A.U. after   13 cycles
 SCF Done:  E(RB3LYP) =  -793.249009031     A.U. after   12 cycles
 SCF Done:  E(RB3LYP) =  -793.249399367     A.U. after   12 cycles
 SCF Done:  E(RB3LYP) =  -793.249788054     A.U. after   12 cycles
 SCF Done:  E(RB3LYP) =  -793.250084703     A.U. after   12 cycles
 SCF Done:  E(RB3LYP) =  -793.250337378     A.U. after   12 cycles
 SCF Done:  E(RB3LYP) =  -793.251871423     A.U. after    9 cycles
 SCF Done:  E(RB3LYP) =  -793.251875610     A.U. after    9 cycles
 SCF Done:  E(RB3LYP) =  -793.251877518     A.U. after    9 cycles
 SCF Done:  E(RB3LYP) =  -793.251877692     A.U. after    8 cycles
 SCF Done:  E(RB3LYP) =  -793.251877759     A.U. after    7 cycles
 Optimization completed.
    -- Stationary point found.
 Normal termination of Gaussian 16 at Fri Dec 11 13:12:27 2020.

 --------------------------------------------------------------------
 #N Geom=AllCheck Guess=TCheck SCRF=Check GenChk RB3LYP/6-31G(d) Freq
 --------------------------------------------------------------------

 Structure from the checkpoint file:  "JID_7631.chk"
 ------------------------------
 CID_80813526_JID_7631_neutraal
 ------------------------------
 Charge =  0 Multiplicity = 1

 SCF Done:  E(RB3LYP) =  -793.251877759     A.U. after    1 cycles

  Exact polarizability: 224.560  -5.848 150.709  -3.449  -3.260  77.673
 Approx polarizability: 292.916 -14.071 251.747  -5.826 -10.007 119.533

                      1                      2                      3
                      A                      A                      A
 Frequencies --     25.4814                32.6175                50.0585
 Red. masses --      5.4180                 4.6407                 4.0258
 Frc consts  --      0.0021                 0.0029                 0.0059
 IR Inten    --      0.1835                 0.0349                 0.8074

                      4                      5                      6
                      A                      A                      A
 Frequencies --     57.9420                80.1053                99.5839
 Red. masses --      4.2195                 2.1328                 2.9852
 Frc consts  --      0.0083                 0.0081                 0.0174
 IR Inten    --      0.7586                 5.0340                 9.5531

                      7                      8                      9
                      A                      A                      A
 Frequencies --    124.5287               137.0767               175.7369
 Red. masses --      3.9968                 1.0846                 3.4854
 Frc consts  --      0.0365                 0.0120                 0.0634
 IR Inten    --      0.7409                 0.1038                 3.7743

                     10                     11                     12
                      A                      A                      A
 Frequencies --    193.5112               205.3125               241.6775
 Red. masses --      3.7970                 3.5185                 4.6176
 Frc consts  --      0.0838                 0.0874                 0.1589
 IR Inten    --      4.3106                 0.9237                 1.6187

                     13                     14                     15
                      A                      A                      A
 Frequencies --    253.8407               275.7390               324.9235
 Red. masses --      2.9867                 1.6197                 3.9041
 Frc consts  --      0.1134                 0.0726                 0.2428
 IR Inten    --      5.7640                 1.7495                 0.6593

                     16                     17                     18
                      A                      A                      A
 Frequencies --    338.6370               349.4593               425.6055
 Red. masses --      3.4807                 3.2452                 2.5356
 Frc consts  --      0.2352                 0.2335                 0.2706
 IR Inten    --      0.3818                 3.1764                37.6881

                     19                     20                     21
                      A                      A                      A
 Frequencies --    461.5053               482.4511               524.3829
 Red. masses --      1.5437                 2.9328                 2.3235
 Frc consts  --      0.1937                 0.4022                 0.3764
 IR Inten    --     64.4443                26.2257               120.3387

                     22                     23                     24
                      A                      A                      A
 Frequencies --    577.4891               605.9333               639.0773
 Red. masses --      2.7331                 5.8100                 5.2895
 Frc consts  --      0.5370                 1.2568                 1.2728
 IR Inten    --     24.3049                 4.9504                 3.7426

                     25                     26                     27
                      A                      A                      A
 Frequencies --    650.8932               679.6688               688.6365
 Red. masses --      5.8836                 4.3019                 5.3314
 Frc consts  --      1.4686                 1.1709                 1.4896
 IR Inten    --      0.5621                11.2743                 5.0055

                     28                     29                     30
                      A                      A                      A
 Frequencies --    707.1542               764.7890               775.3483
 Red. masses --      4.5103                 2.0855                 5.0627
 Frc consts  --      1.3289                 0.7187                 1.7932
 IR Inten    --      9.8180                 0.1820                14.5566

                     31                     32                     33
                      A                      A                      A
 Frequencies --    813.0161               829.3678               834.1221
 Red. masses --      1.8859                 3.0907                 1.2456
 Frc consts  --      0.7344                 1.2526                 0.5106
 IR Inten    --     35.6999                 0.6526                 1.4478

                     34                     35                     36
                      A                      A                      A
 Frequencies --    860.6337               905.3942               932.2790
 Red. masses --      1.4363                11.5585                 2.1741
 Frc consts  --      0.6268                 5.5825                 1.1133
 IR Inten    --      0.4897                14.2499                 4.9844

                     37                     38                     39
                      A                      A                      A
 Frequencies --   1006.7004              1012.7321              1024.1549
 Red. masses --      2.6865                 5.4443                 3.4196
 Frc consts  --      1.6041                 3.2899                 2.1133
 IR Inten    --     11.0174                 6.7672                20.3206

                     40                     41                     42
                      A                      A                      A
 Frequencies --   1040.7106              1060.1141              1072.5611
 Red. masses --      1.8011                 2.6635                 7.7700
 Frc consts  --      1.1493                 1.7636                 5.2664
 IR Inten    --      0.3868                 1.5865                 1.3107

                     43                     44                     45
                      A                      A                      A
 Frequencies --   1084.8404              1086.5975              1178.0509
 Red. masses --      1.5546                 2.2949                 1.5578
 Frc consts  --      1.0779                 1.5964                 1.2737
 IR Inten    --      4.2618                 6.3074                 7.3783

                     46                     47                     48
                      A                      A                      A
 Frequencies --   1183.3727              1212.8401              1222.9056
 Red. masses --      3.8387                 2.5377                 2.0736
 Frc consts  --      3.1672                 2.1993                 1.8271
 IR Inten    --      3.9967                33.5451                14.9074

                     49                     50                     51
                      A                      A                      A
 Frequencies --   1251.6922              1273.1834              1294.6939
 Red. masses --      1.1599                 2.7616                 6.9543
 Frc consts  --      1.0707                 2.6375                 6.8681
 IR Inten    --      0.3741                 0.1933               141.9783

                     52                     53                     54
                      A                      A                      A
 Frequencies --   1313.7370              1344.2813              1345.8722
 Red. masses --      1.1403                 1.5027                 1.6649
 Frc consts  --      1.1596                 1.6000                 1.7769
 IR Inten    --      8.9158               201.8135                91.8463

                     55                     56                     57
                      A                      A                      A
 Frequencies --   1376.4046              1407.0776              1435.0392
 Red. masses --      2.6283                 1.5113                 2.0627
 Frc consts  --      2.9337                 1.7630                 2.5027
 IR Inten    --    144.4815                 4.3947                28.1604

                     58                     59                     60
                      A                      A                      A
 Frequencies --   1441.2178              1446.4223              1456.0252
 Red. masses --      1.5455                 1.4219                 1.9296
 Frc consts  --      1.8914                 1.7527                 2.4102
 IR Inten    --     33.3832                36.1578                45.4809

                     61                     62                     63
                      A                      A                      A
 Frequencies --   1497.0655              1501.3486              1504.3846
 Red. masses --      2.1457                 1.2060                 1.0436
 Frc consts  --      2.8334                 1.6016                 1.3916
 IR Inten    --    206.5932                34.2932                 8.2818

                     64                     65                     66
                      A                      A                      A
 Frequencies --   1514.1369              1524.0516              1533.4171
 Red. masses --      2.1200                 1.0624                 1.0744
 Frc consts  --      2.8636                 1.4539                 1.4885
 IR Inten    --    337.5416                18.3546                 0.5199

                     67                     68                     69
                      A                      A                      A
 Frequencies --   1536.1931              1559.8490              1586.4448
 Red. masses --      1.1242                 1.1007                 5.1641
 Frc consts  --      1.5631                 1.5779                 7.6577
 IR Inten    --     23.6521                22.4449                 0.6727

                     70                     71                     72
                      A                      A                      A
 Frequencies --   1599.3843              1616.8771              1629.0558
 Red. masses --      2.8479                 6.4559                 5.1996
 Frc consts  --      4.2921                 9.9440                 8.1300
 IR Inten    --     50.4869               609.4309               158.5270

                     73                     74                     75
                      A                      A                      A
 Frequencies --   1646.0733              2979.6601              2993.4320
 Red. masses --      7.9722                 1.0723                 1.0713
 Frc consts  --     12.7270                 5.6090                 5.6556
 IR Inten    --     34.4950                39.1434                55.3957

                     76                     77                     78
                      A                      A                      A
 Frequencies --   3038.8683              3051.9383              3057.5446
 Red. masses --      1.0876                 1.0532                 1.0745
 Frc consts  --      5.9176                 5.7799                 5.9182
 IR Inten    --     20.4230                16.9936                27.8341

                     79                     80                     81
                      A                      A                      A
 Frequencies --   3069.6634              3120.5209              3129.9138
 Red. masses --      1.0366                 1.1013                 1.1015
 Frc consts  --      5.7550                 6.3184                 6.3578
 IR Inten    --      7.1696                36.0387                 6.6759

                     82                     83                     84
                      A                      A                      A
 Frequencies --   3138.4395              3167.5154              3192.7540
 Red. masses --      1.1025                 1.1026                 1.0889
 Frc consts  --      6.3984                 6.5176                 6.5397
 IR Inten    --     25.7632                 5.5201                38.8982

                     85                     86                     87
                      A                      A                      A
 Frequencies --   3204.0514              3592.2368              3593.6105
 Red. masses --      1.0912                 1.0764                 1.0759
 Frc consts  --      6.6004                 8.1836                 8.1864
 IR Inten    --     14.0688                60.9625                42.5511

 - Thermochemistry -
 -------------------
 Temperature   298.150 Kelvin.  Pressure   1.00000 Atm.
 Atom     1 has atomic number  6 and mass  12.00000

 Molecular mass:   234.12291 amu.
 Principal axes and moments of inertia in atomic units:
                           1         2         3
     Eigenvalues --  1590.63449********************
           X            0.99999  -0.00390  -0.00165
           Y            0.00390   0.99999   0.00139
           Z            0.00165  -0.00140   1.00000
 This molecule is an asymmetric top.
 Rotational symmetry number  1.
 Warning -- assumption of classical behavior for rotation
           may cause significant error
 Rotational temperatures (Kelvin)      0.05445     0.00782     0.00688
 Rotational constants (GHZ):           1.13460     0.16290     0.14337
 Zero-point vibrational energy     659582.8 (Joules/Mol)
                                  157.64408 (Kcal/Mol)
 Warning -- explicit consideration of  23 degrees of freedom as
           vibrations may cause significant error
 Vibrational temperatures:     36.66    46.93    72.02    83.37   115.25
          (Kelvin)            143.28   179.17   197.22   252.85   278.42
                              295.40   347.72   365.22   396.73   467.49
                              487.22   502.79   612.35   664.00   694.14
                              754.47   830.88   871.80   919.49   936.49
                              977.89   990.79  1017.44  1100.36  1115.55
                             1169.75  1193.28  1200.12  1238.26  1302.66
                             1341.34  1448.42  1457.10  1473.53  1497.35
                             1525.27  1543.18  1560.84  1563.37  1694.95
                             1702.61  1745.01  1759.49  1800.91  1831.83
                             1862.78  1890.17  1934.12  1936.41  1980.34
                             2024.47  2064.70  2073.59  2081.08  2094.90
                             2153.94  2160.11  2164.47  2178.51  2192.77
                             2206.25  2210.24  2244.27  2282.54  2301.16
                             2326.33  2343.85  2368.33  4287.07  4306.88
                             4372.25  4391.06  4399.12  4416.56  4489.73
                             4503.25  4515.51  4557.35  4593.66  4609.92
                             5168.43  5170.40

 Zero-point correction=                           0.251222 (Hartree/Particle)
 Thermal correction to Energy=                    0.267569
 Thermal correction to Enthalpy=                  0.268513
 Thermal correction to Gibbs Free Energy=         0.204860
 Sum of electronic and zero-point Energies=           -793.000656
 Sum of electronic and thermal Energies=              -792.984309
 Sum of electronic and thermal Enthalpies=            -792.983365
 Sum of electronic and thermal Free Energies=         -793.047018

                     E (Thermal)             CV                S
                      KCal/Mol        Cal/Mol-Kelvin    Cal/Mol-Kelvin
 Total                  167.902             59.446            133.969
 Electronic               0.000              0.000              0.000
 Translational            0.889              2.981             42.254
 Rotational               0.889              2.981             33.761
 Vibrational            166.124             53.484             57.954
 Vibration     1          0.593              1.985              6.153
 Vibration     2          0.594              1.983              5.664
 Vibration     3          0.595              1.978              4.815
 Vibration     4          0.596              1.974              4.526
 Vibration     5          0.600              1.963              3.888
 Vibration     6          0.604              1.949              3.462
 Vibration     7          0.610              1.928              3.029
 Vibration     8          0.614              1.916              2.844
 Vibration     9          0.628              1.872              2.373
 Vibration    10          0.635              1.849              2.194
 Vibration    11          0.640              1.832              2.085
 Vibration    12          0.658              1.776              1.790
 Vibration    13          0.665              1.756              1.704
 Vibration    14          0.677              1.718              1.560
 Vibration    15          0.709              1.626              1.285
 Vibration    16          0.719              1.598              1.219
 Vibration    17          0.727              1.576              1.169
 Vibration    18          0.787              1.415              0.873
 Vibration    19          0.819              1.335              0.762
 Vibration    20          0.839              1.289              0.703
 Vibration    21          0.879              1.196              0.600
 Vibration    22          0.934              1.080              0.490
 Vibration    23          0.965              1.019              0.440

                           ! Non-Optimized Parameters !
 Normal termination of Gaussian 16 at Fri Dec 11 13:21:44 2020.

 ----------------------------------------------------------------------
 # B3LYP/6-311++G(d,p) empiricaldispersion=gd3bj scf=xqc pop=npa geom=c
 heck
 ----------------------------------------------------------------------

 --------------------------------------
 CID_80813526_JID_7631_Energie_neutraal
 --------------------------------------
 Structure from the checkpoint file:  "JID_7631.chk"
 Charge =  0 Multiplicity = 1

 SCF Done:  E(RB3LYP) =  -793.470197266     A.U. after   14 cycles
 Normal termination of Gaussian 16 at Fri Dec 11 13:26:03 2020.

 ----------------------------------------------------------------------
 # B3LYP/6-311++G(d,p) empiricaldispersion=gd3bj scf=xqc pop=npa geom=c
 heck
 ----------------------------------------------------------------------

 ------------------------------------
 CID_80813526_JID_7631_Energie_kation
 ------------------------------------
 Structure from the checkpoint file:  "JID_7631.chk"
 Charge =  1 Multiplicity = 2

 SCF Done:  E(UB3LYP) =  -793.193987735     A.U. after   19 cycles
 Normal termination of Gaussian 16 at Fri Dec 11 13:34:21 2020.
 Gaussian 16:  ES64L-G16RevA.03 25-Dec-2016

 ----------------------------------------------------------------------
 # B3LYP/6-311++G(d,p) empiricaldispersion=gd3bj scf=xqc pop=npa geom=c
 heck
 ----------------------------------------------------------------------

 -----------------------------------
 CID_80813526_JID_7631_Energie_anion
 -----------------------------------
 Structure from the checkpoint file:  "JID_7631.chk"
 Charge = -1 Multiplicity = 2

                         Standard orientation:
 ---------------------------------------------------------------------
 Center     Atomic      Atomic             Coordinates (Angstroms)
 Number     Number       Type             X           Y           Z
 ---------------------------------------------------------------------
      1          6           0       -5.860203    2.186136    0.080163
      2          6           0       -5.146208    0.847775    0.235349
      3          7           0       -3.758157    0.967513   -0.177173
      4          6           0       -2.855101   -0.059962   -0.095628
      5          6           0       -3.244759   -1.407187    0.090944
      6          7           0       -2.338864   -2.380865    0.130443
      7          6           0       -1.052988   -2.057577   -0.008848
      8          6           0       -0.663200   -0.712681   -0.183703
      9          7           0       -1.562866    0.278882   -0.217271
     10          7           0        0.649020   -0.337652   -0.344394
     11          6           0        1.744051   -1.212731   -0.007855
     12          6           0        3.013461   -0.427066    0.016308
     13          7           0        3.148213    0.864966   -0.014131
     14          6           0        4.522678    1.020692    0.057220
     15          7           0        5.190969   -0.102888    0.129316
     16          8           0        4.173749   -1.088673    0.100013
     17          6           0        5.192528    2.351422    0.052410
     18          1           0       -5.400991    2.952867    0.715825
     19          1           0       -6.910770    2.095250    0.371752
     20          1           0       -5.818194    2.530290   -0.958580
     21          1           0       -5.223678    0.495419    1.276884
     22          1           0       -5.639928    0.094359   -0.391292
     23          1           0       -3.332542    1.883921   -0.116205
     24          1           0       -4.286111   -1.689841    0.207185
     25          1           0       -0.330976   -2.868416    0.015449
     26          1           0        0.830692    0.656703   -0.278502
     27          1           0        1.610347   -1.693219    0.976929
     28          1           0        1.848693   -2.028798   -0.736637
     29          1           0        4.844017    2.952374    0.898651
     30          1           0        6.275621    2.230866    0.117687
     31          1           0        4.944067    2.894987   -0.864943
 ---------------------------------------------------------------------

 SCF Done:  E(UB3LYP) =  -793.467422790     A.U. after   33 cycles
 SCF Done:  E(UB3LYP) =  -793.467422790     a.u. after    1 cycles

 The electronic state is 2-A.
 Alpha  occ. eigenvalues --  -19.10043 -14.24936 -14.21831 -14.21797 -14.20969
 Alpha  occ. eigenvalues --  -14.18558 -14.18037 -10.15786 -10.13458 -10.12650
 Alpha  occ. eigenvalues --  -10.12593 -10.12453 -10.11005 -10.09539 -10.07525
 Alpha  occ. eigenvalues --  -10.07163 -10.06894  -1.05193  -0.87735  -0.84179
 Alpha  occ. eigenvalues --   -0.82950  -0.81057  -0.77420  -0.75745  -0.67160
 Alpha  occ. eigenvalues --   -0.65204  -0.63356  -0.60720  -0.54717  -0.53908
 Alpha  occ. eigenvalues --   -0.51650  -0.49606  -0.49145  -0.43482  -0.42479
 Alpha  occ. eigenvalues --   -0.40161  -0.39749  -0.38369  -0.37588  -0.36575
 Alpha  occ. eigenvalues --   -0.36006  -0.35656  -0.34088  -0.33367  -0.33201
 Alpha  occ. eigenvalues --   -0.31076  -0.30532  -0.29958  -0.29314  -0.28387
 Alpha  occ. eigenvalues --   -0.27649  -0.27055  -0.23809  -0.22209  -0.22097
 Alpha  occ. eigenvalues --   -0.21689  -0.19556  -0.18313  -0.18189  -0.13233
 Alpha  occ. eigenvalues --   -0.12944  -0.09256   0.04291
 Alpha virt. eigenvalues --    0.05564   0.06710   0.07148   0.08219   0.08514
 Alpha virt. eigenvalues --    0.09235   0.09412   0.09951   0.10449   0.11406
 Alpha virt. eigenvalues --    0.11680   0.12117   0.12372   0.12583   0.12734

  Beta  occ. eigenvalues --  -19.09855 -14.24714 -14.21838 -14.21783 -14.20983
  Beta  occ. eigenvalues --  -14.18244 -14.17864 -10.15502 -10.13400 -10.12617
  Beta  occ. eigenvalues --  -10.12563 -10.12481 -10.10995 -10.09545 -10.07487
  Beta  occ. eigenvalues --  -10.07183 -10.06862  -1.04865  -0.87560  -0.84091
  Beta  occ. eigenvalues --   -0.82800  -0.80783  -0.77045  -0.75460  -0.67084
  Beta  occ. eigenvalues --   -0.65132  -0.63205  -0.60581  -0.54607  -0.53648
  Beta  occ. eigenvalues --   -0.51527  -0.49368  -0.49000  -0.43379  -0.42365
  Beta  occ. eigenvalues --   -0.39689  -0.39388  -0.38290  -0.37530  -0.36509
  Beta  occ. eigenvalues --   -0.35899  -0.35461  -0.33994  -0.33200  -0.32929
  Beta  occ. eigenvalues --   -0.30653  -0.30413  -0.29841  -0.29213  -0.28297
  Beta  occ. eigenvalues --   -0.27528  -0.26972  -0.23556  -0.21615  -0.21519
  Beta  occ. eigenvalues --   -0.20970  -0.19429  -0.17895  -0.17156  -0.12872
  Beta  occ. eigenvalues --   -0.12577  -0.08964
  Beta virt. eigenvalues --    0.06431   0.06681   0.08144   0.08459   0.08632
  Beta virt. eigenvalues --    0.09229   0.09541   0.09808   0.10126   0.10431
  Beta virt. eigenvalues --    0.11348   0.11843   0.12162   0.12471   0.12725

 Mulliken charges and spin densities:
               1          2
     1  C    1.045207  -1.703356
     2  C   -0.782564   0.709110
     3  N   -0.089903   0.032762
     4  C   -0.027175  -0.133153
     5  C   -0.188257   0.117310
     6  N   -0.084706   0.130881
     7  C   -0.171131   0.023727
     8  C   -0.069370  -0.032817
     9  N   -0.303502   0.074090
    10  N   -0.059179   0.001323
    11  C   -0.237836  -0.056462
    12  C   -0.631786   0.159882
    13  N   -0.136316  -0.011976
    14  C    0.510380   0.021827
    15  N   -0.410752   0.107320
    16  O    0.145490   0.038873
    17  C   -0.489069   0.002494
    18  H   -0.200018   0.335376
    19  H   -0.451948   0.606201
    20  H   -0.079434   0.229547
    21  H    0.153631   0.001371
    22  H   -0.030798   0.174252
    23  H    0.242670   0.005379
    24  H    0.120159   0.048792
    25  H    0.164288  -0.001209
    26  H    0.290593  -0.000308
    27  H    0.129350   0.085743
    28  H    0.183612   0.029371
    29  H    0.155109   0.001316
    30  H    0.148032   0.000074
    31  H    0.155224   0.002258
 Sum of Mulliken charges =  -1.00000   1.00000

 Dipole moment (field-independent basis, Debye):
    X=              5.6447    Y=              1.1154    Z=              0.3437  Tot=              5.7641
 Quadrupole moment (field-independent basis, Debye-Ang):
   XX=           -219.3811   YY=           -130.0225   ZZ=           -114.0225
   XY=             18.2447   XZ=             -1.3352   YZ=              0.4215

 Summary of Natural Population Analysis:

                                       Natural Population
                Natural  -----------------------------------------------
    Atom  No    Charge         Core      Valence    Rydberg      Total
 -----------------------------------------------------------------------
      C    1   -0.28888      0.99967     2.28393    0.00528     3.28888
      C    2   -0.08647      0.99964     2.07557    0.01126     3.08647
      N    3   -0.31341      0.99967     2.80307    0.01068     3.81341
      C    4    0.19732      0.99955     1.78739    0.01573     2.80268
      C    5   -0.04788      0.99957     2.03122    0.01709     3.04788
      N    6   -0.16427      0.99971     2.65335    0.01121     3.66427
      C    7   -0.05703      0.99957     2.04391    0.01355     3.05703
      C    8    0.19821      0.99955     1.78857    0.01366     2.80179
      N    9   -0.25041      0.99964     2.74065    0.01012     3.75041
      N   10   -0.31502      0.99967     2.80348    0.01187     3.81502
      C   11   -0.11742      0.99960     2.10852    0.00930     3.11742
      C   12    0.32958      0.99963     1.65275    0.01804     2.67042
      N   13   -0.29116      0.99966     2.78286    0.00865     3.79116
      C   14    0.17432      0.99968     1.80802    0.01797     2.82568
      N   15   -0.07586      0.99966     2.56414    0.01206     3.57586
      O   16   -0.16279      0.99985     3.15258    0.01036     4.16279
      C   17   -0.30320      0.99962     2.29912    0.00445     3.30320
      H   18    0.09594      0.00000     0.40270    0.00137     0.40406
      H   19    0.10379      0.00000     0.39474    0.00147     0.39621
      H   20    0.09978      0.00000     0.39892    0.00130     0.40022
      H   21    0.08456      0.00000     0.41383    0.00160     0.41544
      H   22    0.09293      0.00000     0.40539    0.00168     0.40707
      H   23    0.18618      0.00000     0.30950    0.00432     0.31382
      H   24    0.08723      0.00000     0.41055    0.00222     0.41277
      H   25    0.08850      0.00000     0.41012    0.00138     0.41150
      H   26    0.20351      0.00000     0.29445    0.00204     0.29649
      H   27    0.10754      0.00000     0.39188    0.00058     0.39246
      H   28    0.10456      0.00000     0.39373    0.00171     0.39544
      H   29    0.10658      0.00000     0.39244    0.00098     0.39342
      H   30    0.10678      0.00000     0.39229    0.00093     0.39322
      H   31    0.10670      0.00000     0.39233    0.00097     0.39330
 =======================================================================
   * Total *    0.00017     16.99396    44.78200    0.22387    61.99983

 Normal termination of Gaussian 16 at Fri Dec 11 13:49:03 2020.
